Title
81370
    1CHL1    C3    1   1.901   2.584  10.201  0.2496 -0.1577  0.6328
    1CHL1    H3    2   1.860   2.685  10.224 -0.9471 -1.0370  2.6030
    1CHL1    O3    3   1.957   2.532  10.320 -0.7093  0.2980  0.3082
    1CHL1   H3'    4   1.918   2.574  10.397  2.4333 -0.6550  2.6093
    1CHL1    C4    5   1.783   2.487  10.150 -0.3983 -0.4137 -0.9846
    1CHL1   H4A    6   1.822   2.384  10.139  0.9937 -0.2795  1.7632
    1CHL1   H4B    7   1.708   2.493  10.232 -2.1933  2.0660 -2.6869
    1CHL1    C5    8   1.719   2.535  10.021  0.1101  0.5737  0.5288
    1CHL1    C6    9   1.589   2.557  10.006  0.4704  0.5730 -0.2799
    1CHL1    H6   10   1.518   2.543  10.089 -0.4005  2.1670 -0.7016
    1CHL1    C7   11   1.526   2.602   9.883 -0.3715 -0.3209  0.0398
    1CHL1   H7A   12   1.432   2.546   9.861  0.5547 -1.5753 -0.8806
    1CHL1   H7B   13   1.519   2.711   9.904 -0.4974 -0.6492  1.8558
    1CHL1    C8   14   1.618   2.571   9.763 -0.6072 -0.9389  0.5283
    1CHL1    H8   15   1.612   2.461   9.749 -1.2892 -0.7147 -1.1435
    1CHL1   C14   16   1.559   2.632   9.636  0.1242 -0.0009 -0.3160
    1CHL1   H14   17   1.567   2.742   9.645  1.4034 -0.0037 -1.1017
    1CHL1   C15   18   1.416   2.594   9.597 -0.5004 -0.0470 -0.0956
    1CHL1  H15A   19   1.397   2.489   9.629 -0.3239  0.1598  0.7253
    1CHL1  H15B   20   1.350   2.662   9.656  1.1767  1.9092 -0.3337
    1CHL1   C16   21   1.407   2.610   9.446 -0.3583 -0.3422 -0.3836
    1CHL1  H16A   22   1.368   2.519   9.396 -2.9575  1.9946 -2.9777
    1CHL1  H16B   23   1.340   2.695   9.420 -0.0479 -0.0125 -0.1206
    1CHL1   C17   24   1.552   2.648   9.402  0.1102  0.2305  0.0249
    1CHL1   H17   25   1.556   2.759   9.409 -3.8163  0.5837 -0.9663
    1CHL1   C13   26   1.643   2.600   9.513 -0.2702 -0.1503 -0.3685
    1CHL1   C18   27   1.673   2.445   9.502 -0.3159  0.0299 -0.3162
    1CHL1  H18A   28   1.745   2.429   9.419 -0.1884  1.3634 -0.4729
    1CHL1  H18B   29   1.724   2.410   9.594 -0.3250  0.4086 -0.1669
    1CHL1  H18C   30   1.585   2.376   9.497  0.6318 -1.3141  0.7530
    1CHL1   C12   31   1.771   2.679   9.525 -0.4375  0.2499 -0.2525
    1CHL1  H12A   32   1.839   2.658   9.440  0.4326  0.4835  0.3729
    1CHL1  H12B   33   1.752   2.789   9.526 -0.9914  0.2428 -2.6153
    1CHL1   C11   34   1.843   2.639   9.658  0.3724  0.5253  0.2412
    1CHL1  H11A   35   1.894   2.544   9.631 -1.0917  0.3178 -2.1308
    1CHL1  H11B   36   1.923   2.711   9.685  0.2538  0.8694 -0.3121
    1CHL1    C9   37   1.758   2.625   9.792 -0.1073 -0.0725  0.4843
    1CHL1    H9   38   1.738   2.729   9.825 -0.2275 -0.1947  0.8056
    1CHL1   C10   39   1.825   2.555   9.910 -0.4211 -0.0744  1.1097
    1CHL1   C19   40   1.867   2.417   9.869 -0.1582  0.3803 -0.2880
    1CHL1  H19A   41   1.893   2.358   9.959 -1.0243  0.5964  0.1096
    1CHL1  H19B   42   1.799   2.354   9.808 -0.0426 -1.4715  1.4139
    1CHL1  H19C   43   1.957   2.416   9.802  1.3017  2.2177  1.5196
    1CHL1    C1   44   1.935   2.647   9.954  0.3379 -0.0810 -0.0847
    1CHL1   H1A   45   2.009   2.655   9.872  2.4267 -2.1301  1.4659
    1CHL1   H1B   46   1.890   2.746   9.977 -1.4107 -1.0153  0.7768
    1CHL1    C2   47   2.015   2.605  10.087 -0.2801  0.0610 -0.3805
    1CHL1   H2A   48   2.083   2.684  10.124 -0.5831 -0.2146  0.8091
    1CHL1   H2B   49   2.066   2.509  10.064 -2.7451 -1.0658 -1.6046
    1CHL1   C20   50   1.594   2.618   9.251 -0.4367  0.3708  0.1620
    1CHL1   H20   51   1.704   2.626   9.238 -0.2382 -0.1235  1.3920
    1CHL1   C21   52   1.524   2.721   9.166 -0.4649  0.1671  0.6287
    1CHL1  H21A   53   1.528   2.817   9.221 -2.1289  1.5077 -1.3989
    1CHL1  H21B   54   1.415   2.699   9.163 -0.2154 -1.3566  1.7396
    1CHL1  H21C   55   1.573   2.734   9.067  0.0410  2.1709  1.1150
    1CHL1   C22   56   1.555   2.476   9.187  0.2363  0.4115 -0.1155
    1CHL1  H22A   57   1.583   2.386   9.246 -2.5331 -2.1950 -2.4218
    1CHL1  H22B   58   1.445   2.467   9.185 -0.0134  2.4846  1.1865
    1CHL1   C23   59   1.622   2.457   9.057 -0.1088 -0.2384 -0.2667
    1CHL1  H23A   60   1.583   2.542   8.998 -0.1442  0.1292  0.2810
    1CHL1  H23B   61   1.730   2.479   9.072  0.2793 -1.1858 -1.4869
    1CHL1   C24   62   1.608   2.321   8.988  0.4198 -0.7281  0.4178
    1CHL1  H24A   63   1.649   2.237   9.049  3.0422 -0.3710 -0.6757
    1CHL1  H24B   64   1.498   2.310   8.990  0.2353  1.0646  2.0719
    1CHL1   C25   65   1.657   2.316   8.843  1.1356  0.6075 -0.0172
    1CHL1   H25   66   1.756   2.367   8.847  1.1569  0.6618 -0.9929
    1CHL1   C26   67   1.688   2.170   8.803  0.1321  0.2143  0.1370
    1CHL1  H26A   68   1.755   2.128   8.881  3.5274  1.8389 -1.7118
    1CHL1  H26B   69   1.595   2.110   8.793  0.9387 -0.9791 -0.3468
    1CHL1  H26C   70   1.752   2.167   8.713  0.4150 -0.0313  0.3444
    1CHL1   C27   71   1.563   2.376   8.737 -0.2694 -0.0523  0.1684
    1CHL1  H27A   72   1.623   2.395   8.645  0.9708  1.6590  1.2694
    1CHL1  H27B   73   1.471   2.317   8.717 -0.1695  0.0902 -0.7546
    1CHL1  H27C   74   1.533   2.479   8.764  2.7602  1.2149 -0.8892
    2CHL1    C3   75   2.737   0.119   9.749 -0.1174 -0.4925 -0.5651
    2CHL1    H3   76   2.649   0.185   9.765 -0.3547 -1.0227  0.3277
    2CHL1    O3   77   2.753   0.046   9.864 -0.1006 -0.0041 -0.6872
    2CHL1   H3'   78   2.753   0.116   9.929 -0.2195  0.6331 -1.3587
    2CHL1    C4   79   2.735   0.027   9.627 -0.4718  0.2554 -0.3567
    2CHL1   H4A   80   2.825  -0.039   9.635 -1.2281 -1.1948 -2.7132
    2CHL1   H4B   81   2.656  -0.050   9.635 -0.4704  0.2158 -0.6983
    2CHL1    C5   82   2.732   0.103   9.494  0.2404 -0.2428 -0.6938
    2CHL1    C6   83   2.635   0.079   9.402 -0.2868  0.6344 -0.3466
    2CHL1    H6   84   2.558   0.001   9.415 -0.3836  0.8878  0.6952
    2CHL1    C7   85   2.639   0.154   9.273 -0.5754 -0.0324  0.1417
    2CHL1   H7A   86   2.652   0.082   9.190  1.3249  0.0702  0.3127
    2CHL1   H7B   87   2.539   0.200   9.256 -0.4377 -0.0736 -0.8559
    2CHL1    C8   88   2.754   0.250   9.241  0.3470 -0.2924 -1.0187
    2CHL1    H8   89   2.834   0.182   9.204 -0.5115 -2.6846  1.1677
    2CHL1   C14   90   2.716   0.354   9.137  0.4269  0.0134 -0.3380
    2CHL1   H14   91   2.637   0.421   9.178 -1.4678 -0.9136 -2.2540
    2CHL1   C15   92   2.649   0.317   9.008  1.0849 -1.2568  0.3423
    2CHL1  H15A   93   2.710   0.232   8.970  2.7108 -0.5091  1.1923
    2CHL1  H15B   94   2.548   0.284   9.041 -0.0311 -0.7221 -2.3078
    2CHL1   C16   95   2.663   0.441   8.915  0.0600 -0.2634  0.3833
    2CHL1  H16A   96   2.704   0.406   8.818  0.7471  0.0005  0.5749
    2CHL1  H16B   97   2.562   0.486   8.901 -0.6136 -1.1430  2.0553
    2CHL1   C17   98   2.761   0.534   8.995  0.4501 -0.0909 -0.6022
    2CHL1   H17   99   2.714   0.621   9.045  3.6497  0.8017  1.0840
    2CHL1   C13  100   2.827   0.444   9.102 -0.2476 -0.6676 -0.0706
    2CHL1   C18  101   2.936   0.365   9.030 -0.1760  0.3196  0.3438
    2CHL1  H18A  102   3.016   0.433   8.994 -0.5145  0.5827  0.0782
    2CHL1  H18B  103   2.975   0.286   9.098  0.0829 -1.1629 -1.4169
    2CHL1  H18C  104   2.902   0.299   8.947  1.0143  0.1113 -0.0051
    2CHL1   C12  105   2.873   0.513   9.237  0.5549 -0.7127  0.2814
    2CHL1  H12A  106   2.961   0.575   9.211  0.0754 -0.0705  0.1764
    2CHL1  H12B  107   2.803   0.588   9.280 -0.5625 -1.7349  0.3117
    2CHL1   C11  108   2.916   0.417   9.351  0.2862 -0.0657  0.6245
    2CHL1  H11A  109   3.000   0.362   9.304 -0.1294 -0.0932 -0.1048
    2CHL1  H11B  110   2.945   0.475   9.441 -0.1373 -1.0443  1.4237
    2CHL1    C9  111   2.804   0.315   9.377 -0.0730 -0.0246  0.2526
    2CHL1    H9  112   2.711   0.364   9.413 -0.0608 -0.3056  0.6644
    2CHL1   C10  113   2.843   0.217   9.489  0.0572  0.0578  0.5462
    2CHL1   C19  114   2.979   0.145   9.472 -0.2303  0.5040  0.0452
    2CHL1  H19A  115   3.005   0.063   9.541 -0.1882  0.0431 -0.5098
    2CHL1  H19B  116   2.970   0.114   9.365  0.3498  3.0005 -0.8124
    2CHL1  H19C  117   3.065   0.215   9.485  0.2867  0.4447 -2.4457
    2CHL1    C1  118   2.860   0.297   9.614  0.0064 -0.3729  0.1528
    2CHL1   H1A  119   2.959   0.347   9.626  1.0769 -2.7254  1.7684
    2CHL1   H1B  120   2.780   0.372   9.634  1.8674  1.0610  2.8928
    2CHL1    C2  121   2.853   0.212   9.744 -0.3737  0.3438  0.5798
    2CHL1   H2A  122   2.860   0.278   9.833 -1.0148  0.6970  0.3730
    2CHL1   H2B  123   2.950   0.161   9.762  0.1491  1.6153  1.4565
    2CHL1   C20  124   2.852   0.608   8.893  0.4269  0.5011 -0.2831
    2CHL1   H20  125   2.921   0.536   8.843  1.2433  0.8396  0.3347
    2CHL1   C21  126   2.954   0.709   8.957  0.7795 -0.0801 -0.0048
    2CHL1  H21A  127   3.021   0.748   8.877 -1.3286  0.8227 -1.4051
    2CHL1  H21B  128   3.008   0.652   9.036  1.5673  1.8090  0.8926
    2CHL1  H21C  129   2.913   0.796   9.012 -0.2374 -0.4222 -0.2040
    2CHL1   C22  130   2.780   0.671   8.768 -0.0452 -0.3487 -0.0460
    2CHL1  H22A  131   2.856   0.693   8.689 -1.2831 -0.0171 -1.1875
    2CHL1  H22B  132   2.725   0.591   8.714 -0.9104  2.8498 -4.5390
    2CHL1   C23  133   2.699   0.800   8.793 -0.4093 -0.6971 -0.4468
    2CHL1  H23A  134   2.629   0.763   8.871  1.6572 -2.4610  0.6864
    2CHL1  H23B  135   2.762   0.870   8.851 -0.6780 -0.9253  0.1262
    2CHL1   C24  136   2.634   0.876   8.683  0.1812 -0.4608 -0.0695
    2CHL1  H24A  137   2.569   0.797   8.639  2.1617 -2.3667  0.2693
    2CHL1  H24B  138   2.566   0.959   8.713 -1.6346 -0.8932 -2.6563
    2CHL1   C25  139   2.727   0.934   8.579 -0.1286 -0.1733  0.4039
    2CHL1   H25  140   2.804   0.857   8.555 -0.7764 -0.7172  0.0331
    2CHL1   C26  141   2.626   0.955   8.460 -0.6018 -0.6907  0.0479
    2CHL1  H26A  142   2.565   0.865   8.438 -1.0731 -0.5675  0.8135
    2CHL1  H26B  143   2.570   1.048   8.481 -0.9125 -0.9873  0.5538
    2CHL1  H26C  144   2.679   0.975   8.364  0.4520  1.9014  1.0741
    2CHL1   C27  145   2.804   1.058   8.619  0.6280 -0.4559 -0.5724
    2CHL1  H27A  146   2.843   1.111   8.529 -2.5937 -0.6583 -2.2426
    2CHL1  H27B  147   2.736   1.128   8.672 -2.1904 -3.5426  0.1892
    2CHL1  H27C  148   2.886   1.038   8.691 -0.8594 -1.6363  0.8377
    3CHL1    C3  149   2.608   0.645  10.018 -0.3603  0.0851 -0.2239
    3CHL1    H3  150   2.497   0.647  10.016 -0.3423  1.1157 -1.1506
    3CHL1    O3  151   2.633   0.603  10.150  0.0190  0.4265  0.4141
    3CHL1   H3'  152   2.624   0.680  10.207 -0.0355  0.2051  0.7086
    3CHL1    C4  153   2.656   0.551   9.904  0.0664  0.4834 -0.0085
    3CHL1   H4A  154   2.766   0.542   9.917 -0.1827 -0.8119  1.6499
    3CHL1   H4B  155   2.609   0.452   9.919 -0.2704  0.3140 -1.9176
    3CHL1    C5  156   2.626   0.607   9.766 -0.2460  0.0470 -0.5001
    3CHL1    C6  157   2.544   0.539   9.690  0.7839  0.3861 -0.0029
    3CHL1    H6  158   2.490   0.451   9.728  0.6856  0.0396 -0.9276
    3CHL1    C7  159   2.493   0.594   9.553  0.2898  0.5967 -0.0419
    3CHL1   H7A  160   2.493   0.511   9.479 -0.2861  0.5056  0.0611
    3CHL1   H7B  161   2.396   0.643   9.576  0.1886 -0.0992  1.0856
    3CHL1    C8  162   2.589   0.709   9.503  0.0815  0.7952 -0.0358
    3CHL1    H8  163   2.684   0.661   9.471 -0.3155  0.2170 -0.3830
    3CHL1   C14  164   2.532   0.781   9.389 -0.1376 -0.0904  0.4892
    3CHL1   H14  165   2.433   0.809   9.430 -0.5223  0.5265 -0.8018
    3CHL1   C15  166   2.500   0.699   9.260  0.0874  0.2574  0.2774
    3CHL1  H15A  167   2.591   0.638   9.241  0.5496  1.1542 -0.4787
    3CHL1  H15B  168   2.413   0.633   9.278  0.6269 -0.2805  0.9825
    3CHL1   C16  169   2.467   0.807   9.159  0.5119 -0.0830 -0.4832
    3CHL1  H16A  170   2.509   0.788   9.058  0.4424 -0.7451 -0.3864
    3CHL1  H16B  171   2.356   0.801   9.148  0.5071  0.5491 -0.8737
    3CHL1   C17  172   2.512   0.943   9.218  0.4875 -0.0851  0.5134
    3CHL1   H17  173   2.426   0.985   9.275  2.9108  3.2323  2.0732
    3CHL1   C13  174   2.600   0.907   9.337  0.1978  0.1005  0.5497
    3CHL1   C18  175   2.745   0.881   9.287 -0.3874 -0.2638  0.3568
    3CHL1  H18A  176   2.744   0.810   9.202 -0.8204 -0.4604  0.5217
    3CHL1  H18B  177   2.782   0.982   9.261 -2.2703  0.9384  2.0056
    3CHL1  H18C  178   2.807   0.838   9.368 -0.9675 -1.3059  0.2677
    3CHL1   C12  179   2.595   1.004   9.453 -0.0431 -0.0676  0.2738
    3CHL1  H12A  180   2.623   1.110   9.440  0.1046  0.1765  2.2651
    3CHL1  H12B  181   2.489   1.012   9.484 -0.0077 -1.4003  0.8031
    3CHL1   C11  182   2.671   0.954   9.580  0.8390  0.2377  0.2085
    3CHL1  H11A  183   2.779   0.948   9.555  1.0456 -0.8541  1.2601
    3CHL1  H11B  184   2.670   1.024   9.667  0.2330  1.3597 -0.6830
    3CHL1    C9  185   2.612   0.809   9.623  0.6942  0.9770  0.5065
    3CHL1    H9  186   2.506   0.836   9.640 -0.2553 -1.0340 -1.6590
    3CHL1   C10  187   2.671   0.753   9.752  0.3667  0.4865 -0.3599
    3CHL1   C19  188   2.824   0.749   9.728  0.7214  0.0392 -0.5214
    3CHL1  H19A  189   2.870   0.850   9.736  0.3988  0.1400  0.0503
    3CHL1  H19B  190   2.878   0.694   9.808  0.5215  1.3546  0.5534
    3CHL1  H19C  191   2.840   0.712   9.624 -1.1481  0.5580 -1.0294
    3CHL1    C1  192   2.635   0.849   9.875 -0.4213 -0.0607 -0.1088
    3CHL1   H1A  193   2.699   0.940   9.871 -2.8604  1.7751  0.2174
    3CHL1   H1B  194   2.528   0.876   9.885 -0.1226  0.7464  1.1352
    3CHL1    C2  195   2.675   0.784  10.004 -0.4132 -0.6944  0.0510
    3CHL1   H2A  196   2.652   0.844  10.094  1.8171  1.1461 -0.5239
    3CHL1   H2B  197   2.785   0.779   9.995 -0.6136 -1.4108 -3.3354
    3CHL1   C20  198   2.563   1.044   9.116 -0.1830 -0.2922 -0.1492
    3CHL1   H20  199   2.655   1.009   9.065 -0.9955  0.2989 -2.1287
    3CHL1   C21  200   2.601   1.184   9.182  0.0949 -0.6352  0.3316
    3CHL1  H21A  201   2.634   1.273   9.124  0.9315 -1.4573 -0.5009
    3CHL1  H21B  202   2.684   1.176   9.257 -1.3444 -3.7370  1.8106
    3CHL1  H21C  203   2.511   1.217   9.236 -0.0949 -1.2764  0.4194
    3CHL1   C22  204   2.446   1.088   9.015  0.3391 -0.4046 -0.2617
    3CHL1  H22A  205   2.417   0.991   8.969  1.2826 -0.1330 -1.4701
    3CHL1  H22B  206   2.362   1.128   9.075  0.4441 -1.1006  0.3696
    3CHL1   C23  207   2.486   1.181   8.898  0.4918 -0.0520 -0.0066
    3CHL1  H23A  208   2.514   1.282   8.935 -0.7763 -0.0251  0.9541
    3CHL1  H23B  209   2.582   1.145   8.855  1.2922  1.7469  0.1499
    3CHL1   C24  210   2.377   1.204   8.792  0.0086  0.1663 -0.2007
    3CHL1  H24A  211   2.343   1.115   8.734  0.0861  0.5957 -0.9234
    3CHL1  H24B  212   2.289   1.237   8.850 -0.9089  0.8275 -1.9030
    3CHL1   C25  213   2.408   1.309   8.683  0.8799 -0.9614  0.0635
    3CHL1   H25  214   2.509   1.292   8.639  0.4396  2.0238 -2.5072
    3CHL1   C26  215   2.310   1.308   8.570  0.2743 -0.1385 -0.5722
    3CHL1  H26A  216   2.274   1.204   8.555  0.1438  0.1067 -2.1531
    3CHL1  H26B  217   2.217   1.360   8.601  0.4830  0.0293 -0.2272
    3CHL1  H26C  218   2.346   1.359   8.478 -0.3083  1.3702  0.0011
    3CHL1   C27  219   2.416   1.461   8.735  0.0854 -0.3675 -0.3722
    3CHL1  H27A  220   2.421   1.530   8.648 -0.5888  2.4367  1.6830
    3CHL1  H27B  221   2.325   1.483   8.796  0.7242 -1.0272  0.8592
    3CHL1  H27C  222   2.504   1.467   8.803 -1.0658  2.7710  1.0168
    4CHL1    C3  223   3.214   3.577  10.229 -0.1506 -0.6169  0.0005
    4CHL1    H3  224   3.214   3.686  10.204  2.2849  0.0709  2.5515
    4CHL1    O3  225   3.190   3.571  10.369  0.2804  0.0602 -0.3126
    4CHL1   H3'  226   3.102   3.608  10.383  0.3425  1.3039 -2.6532
    4CHL1    C4  227   3.099   3.503  10.154 -0.1196 -0.0834  0.4983
    4CHL1   H4A  228   3.097   3.397  10.188 -0.6100  0.3564  1.9247
    4CHL1   H4B  229   3.003   3.543  10.193 -1.0803 -2.3371  0.6169
    4CHL1    C5  230   3.118   3.514  10.001  0.2254  0.5136  0.1143
    4CHL1    C6  231   3.018   3.572   9.927 -0.5973  0.3655  0.0291
    4CHL1    H6  232   2.919   3.598   9.969 -0.2348 -0.2577  1.3104
    4CHL1    C7  233   3.022   3.600   9.781  0.1626 -0.4153  0.2725
    4CHL1   H7A  234   2.929   3.574   9.726  0.8374 -1.4248 -0.4262
    4CHL1   H7B  235   3.055   3.705   9.762 -1.0623 -0.5882 -3.8551
    4CHL1    C8  236   3.147   3.523   9.716  0.7939  0.1667  0.5516
    4CHL1    H8  237   3.122   3.416   9.704  1.2142  0.2121 -1.0153
    4CHL1   C14  238   3.173   3.569   9.574 -0.7094 -0.1587  0.4526
    4CHL1   H14  239   3.213   3.673   9.575  0.3815 -0.5577  1.5537
    4CHL1   C15  240   3.049   3.576   9.483  0.1535  0.2011  0.4360
    4CHL1  H15A  241   2.988   3.484   9.488 -0.6816  0.6214 -1.0754
    4CHL1  H15B  242   2.991   3.667   9.508 -0.0289 -0.1341  1.2576
    4CHL1   C16  243   3.112   3.581   9.344 -0.2326  0.0764 -0.0665
    4CHL1  H16A  244   3.066   3.503   9.279  0.2209  0.7527 -1.2387
    4CHL1  H16B  245   3.103   3.683   9.300 -1.7717  1.4190  3.1225
    4CHL1   C17  246   3.271   3.562   9.357 -0.5476  0.1642 -0.2963
    4CHL1   H17  247   3.314   3.664   9.362  0.0603  0.0903 -2.6097
    4CHL1   C13  248   3.281   3.495   9.499  0.2518  0.1508  1.3912
    4CHL1   C18  249   3.248   3.347   9.488 -0.3137 -0.0700 -0.0329
    4CHL1  H18A  250   3.262   3.286   9.580  0.1076 -1.6284 -1.0901
    4CHL1  H18B  251   3.144   3.324   9.456 -0.5449 -0.6726  1.0901
    4CHL1  H18C  252   3.319   3.297   9.418  1.8255  0.1129  1.8810
    4CHL1   C12  253   3.408   3.519   9.583  0.1349  0.0905  0.0954
    4CHL1  H12A  254   3.483   3.456   9.531 -2.2287 -1.5242 -1.5585
    4CHL1  H12B  255   3.441   3.625   9.587 -0.2716  0.1919  1.3480
    4CHL1   C11  256   3.397   3.467   9.724  0.0522 -0.0112 -0.4871
    4CHL1  H11A  257   3.382   3.357   9.716  2.1488 -0.7708  3.7809
    4CHL1  H11B  258   3.491   3.466   9.783  1.4768 -2.4377 -2.6110
    4CHL1    C9  259   3.276   3.528   9.802  0.1746 -0.1105  0.2437
    4CHL1    H9  260   3.307   3.635   9.808 -0.0513  0.1056 -1.7697
    4CHL1   C10  261   3.255   3.481   9.945  0.0120  0.4565  0.1435
    4CHL1   C19  262   3.255   3.320   9.945 -0.2029 -0.1440  0.7968
    4CHL1  H19A  263   3.171   3.288   9.880 -0.4322  1.2134  0.3874
    4CHL1  H19B  264   3.350   3.279   9.904 -1.2934 -1.3170 -0.6583
    4CHL1  H19C  265   3.247   3.279  10.048  2.1419 -1.2930  0.5944
    4CHL1    C1  266   3.369   3.533  10.044 -0.3874 -0.4532 -0.5248
    4CHL1   H1A  267   3.467   3.483  10.031  0.1734 -0.1870  2.0322
    4CHL1   H1B  268   3.384   3.643  10.034 -1.4231 -0.1351  1.0044
    4CHL1    C2  269   3.348   3.514  10.195 -0.1037 -0.3543  0.3123
    4CHL1   H2A  270   3.436   3.550  10.252  2.1877 -2.1287 -1.8824
    4CHL1   H2B  271   3.344   3.405  10.216 -1.2721 -0.3991 -0.0483
    4CHL1   C20  272   3.332   3.492   9.231 -0.1782  0.0899 -0.2376
    4CHL1   H20  273   3.314   3.383   9.228  2.0700 -0.3251 -0.3121
    4CHL1   C21  274   3.479   3.502   9.255  0.3480 -0.1546 -0.3017
    4CHL1  H21A  275   3.495   3.433   9.341 -3.4716 -1.5098 -0.4639
    4CHL1  H21B  276   3.515   3.602   9.286 -1.8506  0.6577 -0.1679
    4CHL1  H21C  277   3.527   3.470   9.160 -0.3043 -2.0003 -0.0492
    4CHL1   C22  278   3.290   3.566   9.097  0.1498  0.5600 -0.9115
    4CHL1  H22A  279   3.180   3.551   9.094  0.2433 -0.2371 -0.6468
    4CHL1  H22B  280   3.327   3.670   9.111  0.5846  0.3389 -0.3857
    4CHL1   C23  281   3.342   3.505   8.960  0.2534 -0.2414 -0.3375
    4CHL1  H23A  282   3.452   3.521   8.947  0.4172 -1.9349 -1.3455
    4CHL1  H23B  283   3.332   3.394   8.970  3.2152 -0.5781 -0.0556
    4CHL1   C24  284   3.270   3.545   8.835 -0.2081 -0.2628 -0.2102
    4CHL1  H24A  285   3.313   3.494   8.746  0.1325 -0.8514  0.2894
    4CHL1  H24B  286   3.165   3.509   8.839  0.5970 -3.0337 -1.6724
    4CHL1   C25  287   3.275   3.700   8.801 -0.7659  0.0127  0.5222
    4CHL1   H25  288   3.236   3.767   8.881 -1.3917  0.4043 -0.0933
    4CHL1   C26  289   3.417   3.751   8.766 -0.1119 -0.1799  0.1602
    4CHL1  H26A  290   3.416   3.861   8.750  1.3315 -0.0173  0.9808
    4CHL1  H26B  291   3.486   3.717   8.846 -1.9539 -2.1942  0.9733
    4CHL1  H26C  292   3.444   3.705   8.668 -0.8752 -1.6485  0.6126
    4CHL1   C27  293   3.179   3.734   8.687  0.6318 -0.3015  0.2559
    4CHL1  H27A  294   3.197   3.673   8.596  1.0155  1.7468 -1.1305
    4CHL1  H27B  295   3.077   3.715   8.725  0.9351 -0.4587  0.9994
    4CHL1  H27C  296   3.182   3.843   8.664 -0.9630 -0.3232 -0.1466
    5CHL1    C3  297   3.287   0.494  10.055 -0.2072  0.4474 -0.2339
    5CHL1    H3  298   3.302   0.604  10.046  0.4363  0.2141 -2.5499
    5CHL1    O3  299   3.239   0.459  10.190 -0.0695 -0.1542  0.5608
    5CHL1   H3'  300   3.261   0.541  10.236 -0.9157  1.1787 -1.2786
    5CHL1    C4  301   3.181   0.466   9.948  0.1286 -0.2790 -0.6921
    5CHL1   H4A  302   3.153   0.358   9.956 -0.4339 -0.0785  0.1886
    5CHL1   H4B  303   3.091   0.527   9.970  1.3479  1.0249  0.9474
    5CHL1    C5  304   3.235   0.492   9.816 -0.0318 -0.2059  0.3149
    5CHL1    C6  305   3.172   0.580   9.730  0.1638  0.9247  0.6126
    5CHL1    H6  306   3.089   0.632   9.778 -1.0157 -0.2689 -0.0750
    5CHL1    C7  307   3.212   0.607   9.594  0.6777  0.8794 -0.7838
    5CHL1   H7A  308   3.119   0.598   9.534 -0.8774  1.4692  1.4220
    5CHL1   H7B  309   3.247   0.711   9.581  2.5705  0.3436 -0.2723
    5CHL1    C8  310   3.302   0.494   9.534 -0.8992  0.7627 -0.3316
    5CHL1    H8  311   3.244   0.402   9.513  0.1070  0.4352 -1.9159
    5CHL1   C14  312   3.364   0.546   9.406 -0.9788  0.1448  0.5479
    5CHL1   H14  313   3.427   0.637   9.417  0.4778 -0.7170 -0.2781
    5CHL1   C15  314   3.269   0.587   9.299 -0.3536  0.5719  0.3033
    5CHL1  H15A  315   3.189   0.509   9.294  0.4712 -0.2185 -1.1611
    5CHL1  H15B  316   3.223   0.684   9.327 -2.0981  0.4681 -1.9911
    5CHL1   C16  317   3.361   0.584   9.176 -0.5682 -0.2976 -0.7807
    5CHL1  H16A  318   3.283   0.539   9.112 -1.6362 -1.5527  1.2974
    5CHL1  H16B  319   3.386   0.689   9.149 -0.9157  0.5362  1.8231
    5CHL1   C17  320   3.497   0.513   9.209  0.1697 -0.4792  0.7880
    5CHL1   H17  321   3.573   0.589   9.239  0.6158 -0.9201  0.7751
    5CHL1   C13  322   3.465   0.445   9.337  0.8389 -0.0613 -0.1416
    5CHL1   C18  323   3.389   0.312   9.311  0.6303 -0.1572  0.4365
    5CHL1  H18A  324   3.458   0.227   9.294 -1.6973 -1.9405 -0.6892
    5CHL1  H18B  325   3.335   0.269   9.398  1.0322  0.4173  0.9803
    5CHL1  H18C  326   3.308   0.323   9.236  0.1136 -0.1704  0.9898
    5CHL1   C12  327   3.589   0.425   9.435  0.3662  0.0205 -0.4673
    5CHL1  H12A  328   3.666   0.359   9.389  1.7888  1.3168 -0.0149
    5CHL1  H12B  329   3.632   0.526   9.449 -0.2224  0.5357 -2.1156
    5CHL1   C11  330   3.545   0.374   9.571  0.0981 -0.0281 -0.5696
    5CHL1  H11A  331   3.509   0.269   9.563 -0.7585  0.0586  1.4756
    5CHL1  H11B  332   3.632   0.375   9.640  0.8075 -0.3595 -1.4429
    5CHL1    C9  333   3.419   0.456   9.629  0.0052 -0.4529  0.5224
    5CHL1    H9  334   3.458   0.560   9.640  0.7128 -0.6983  0.4361
    5CHL1   C10  335   3.369   0.416   9.770 -0.1495 -0.0138 -0.2425
    5CHL1   C19  336   3.351   0.260   9.762 -0.4193  0.5564 -0.0417
    5CHL1  H19A  337   3.449   0.208   9.757  0.4992  2.0887  1.1489
    5CHL1  H19B  338   3.296   0.218   9.849 -1.7975 -0.8733 -1.5230
    5CHL1  H19C  339   3.295   0.240   9.668  2.8266 -0.7488 -1.8490
    5CHL1    C1  340   3.479   0.453   9.882  0.8260  0.3236 -0.3499
    5CHL1   H1A  341   3.571   0.395   9.860  0.2639 -0.6436 -0.2350
    5CHL1   H1B  342   3.518   0.557   9.885  1.3186  0.2174 -2.0775
    5CHL1    C2  343   3.422   0.420  10.023 -0.0190  0.1440  0.4187
    5CHL1   H2A  344   3.493   0.468  10.093  2.2958  0.1752 -1.8354
    5CHL1   H2B  345   3.412   0.315  10.057  0.3875  0.3518  1.1910
    5CHL1   C20  346   3.541   0.430   9.089  0.2126  0.9840 -0.8108
    5CHL1   H20  347   3.468   0.347   9.080 -0.0942  1.2803 -1.1121
    5CHL1   C21  348   3.681   0.367   9.119  0.4441  0.2647 -0.6430
    5CHL1  H21A  349   3.746   0.457   9.119 -1.2140  1.6027  2.5240
    5CHL1  H21B  350   3.706   0.304   9.031 -0.9548  0.4654 -1.2039
    5CHL1  H21C  351   3.686   0.317   9.218 -0.4884  1.3812 -0.0203
    5CHL1   C22  352   3.544   0.500   8.953  0.2437  0.3460  0.0610
    5CHL1  H22A  353   3.445   0.541   8.925 -0.4367 -0.7363  0.8208
    5CHL1  H22B  354   3.603   0.592   8.973  1.2790 -0.3633  0.3898
    5CHL1   C23  355   3.615   0.432   8.828 -0.5397 -0.2868 -0.2704
    5CHL1  H23A  356   3.721   0.440   8.859 -1.3304 -0.7112  2.9116
    5CHL1  H23B  357   3.594   0.323   8.821 -2.2698  0.0443 -0.6657
    5CHL1   C24  358   3.595   0.509   8.687  0.0370 -0.2045 -1.5252
    5CHL1  H24A  359   3.489   0.528   8.661  0.0247 -1.4595 -2.4429
    5CHL1  H24B  360   3.648   0.605   8.709  0.2565 -0.8331  0.9510
    5CHL1   C25  361   3.659   0.435   8.571 -0.2381  0.2918 -0.1109
    5CHL1   H25  362   3.763   0.403   8.594 -0.7163 -1.0911  0.2272
    5CHL1   C26  363   3.580   0.317   8.537  0.3374  0.3063  0.0276
    5CHL1  H26A  364   3.604   0.259   8.445  0.8493  1.0638 -0.3295
    5CHL1  H26B  365   3.571   0.251   8.627  0.2127 -0.5709 -0.6141
    5CHL1  H26C  366   3.480   0.359   8.516  0.3983 -0.1063 -1.1557
    5CHL1   C27  367   3.663   0.536   8.455  0.2839 -0.0584  0.1206
    5CHL1  H27A  368   3.681   0.490   8.355 -1.8273 -1.4655  0.3111
    5CHL1  H27B  369   3.562   0.584   8.449  0.9171  1.8695  2.8564
    5CHL1  H27C  370   3.735   0.618   8.473 -0.0448  0.4166 -0.6261
    6CHL1    C3  371   3.839   4.871  10.015  0.2930 -0.5006  0.2168
    6CHL1    H3  372   3.840   4.769   9.972  2.4660  0.4050 -2.1911
    6CHL1    O3  373   3.875   4.849  10.153  0.0036 -0.0011  0.3280
    6CHL1   H3'  374   3.889   4.935  10.193  1.6983 -0.3224  0.4978
    6CHL1    C4  375   3.942   4.960   9.950 -0.1260 -0.0205  0.1829
    6CHL1   H4A  376   3.948   5.048  10.018 -0.8789 -0.0225  0.2600
    6CHL1   H4B  377   4.040   4.908   9.960  1.5596  2.7339 -0.6710
    6CHL1    C5  378   3.903   4.980   9.807 -0.2134 -0.7485  0.4819
    6CHL1    C6  379   3.993   4.952   9.722 -0.1429  0.6056 -0.4368
    6CHL1    H6  380   4.091   4.913   9.751 -1.0074 -0.7212  0.8832
    6CHL1    C7  381   3.976   4.974   9.576  0.0084  0.1815 -0.8081
    6CHL1   H7A  382   4.064   5.030   9.537  0.1080  1.2023  0.7965
    6CHL1   H7B  383   3.969   4.876   9.524 -2.6394 -0.3283  0.3095
    6CHL1    C8  384   3.853   5.062   9.547  0.0005  0.2418  0.2036
    6CHL1    H8  385   3.873   5.167   9.579  1.0690 -0.3085  1.4624
    6CHL1   C14  386   3.814   5.048   9.394 -0.8051  0.5805  0.3893
    6CHL1   H14  387   3.783   4.943   9.379  0.0076  0.5022 -0.9551
    6CHL1   C15  388   3.929   5.081   9.297 -0.4678  0.3930  0.6036
    6CHL1  H15A  389   3.978   5.176   9.328  0.3759  0.0456  0.3594
    6CHL1  H15B  390   3.998   4.994   9.283  0.4112  1.2696 -0.6678
    6CHL1   C16  391   3.861   5.106   9.162  0.2721  0.1946  0.0375
    6CHL1  H16A  392   3.895   5.207   9.131 -1.2342  1.5333  2.4797
    6CHL1  H16B  393   3.879   5.028   9.084 -1.7453  0.1255 -0.4024
    6CHL1   C17  394   3.707   5.108   9.195 -0.3058 -0.2827 -0.7400
    6CHL1   H17  395   3.677   5.003   9.179  1.5295 -0.7683 -1.2911
    6CHL1   C13  396   3.698   5.139   9.354 -0.5101  0.9583 -0.1493
    6CHL1   C18  397   3.731   5.284   9.375 -0.5544  0.6029  0.3315
    6CHL1  H18A  398   3.811   5.315   9.305  0.6867  0.4516  1.6369
    6CHL1  H18B  399   3.644   5.348   9.349  0.9520  2.4811 -0.3467
    6CHL1  H18C  400   3.763   5.303   9.480  1.5839 -0.4991 -0.0735
    6CHL1   C12  401   3.577   5.101   9.437 -0.3054  0.7405 -0.5439
    6CHL1  H12A  402   3.480   5.152   9.416 -3.0663 -3.2719  1.0692
    6CHL1  H12B  403   3.552   4.995   9.416  1.4436  0.1950 -0.0097
    6CHL1   C11  404   3.610   5.114   9.586  0.8329  0.0227  0.6525
    6CHL1  H11A  405   3.618   5.222   9.609 -4.2780  0.4933  1.3961
    6CHL1  H11B  406   3.518   5.080   9.638  0.3779 -1.3815 -0.9772
    6CHL1    C9  407   3.730   5.024   9.632  0.0049  0.1440  0.0293
    6CHL1    H9  408   3.708   4.921   9.597  1.3295 -0.4649  0.8859
    6CHL1   C10  409   3.762   5.031   9.778  0.2890  0.0591 -0.4049
    6CHL1   C19  410   3.753   5.177   9.824 -0.4050  0.1971  0.0106
    6CHL1  H19A  411   3.646   5.205   9.820 -0.6758 -0.8827 -1.1248
    6CHL1  H19B  412   3.789   5.187   9.928  1.5574  0.3754 -0.6515
    6CHL1  H19C  413   3.812   5.247   9.761  0.0132  2.1988  2.4706
    6CHL1    C1  414   3.655   4.950   9.859  0.4144  0.5390 -1.3595
    6CHL1   H1A  415   3.556   5.002   9.857 -1.1079 -2.1391 -3.7644
    6CHL1   H1B  416   3.640   4.851   9.810 -0.0823 -0.2275  0.2532
    6CHL1    C2  417   3.698   4.929  10.007  0.3360  0.0324  0.1515
    6CHL1   H2A  418   3.622   4.866  10.057  0.7823  0.5084  1.4671
    6CHL1   H2B  419   3.699   5.030  10.052  0.9400  0.4878 -0.8316
    6CHL1   C20  420   3.633   5.200   9.096 -0.1585 -0.4509 -0.0905
    6CHL1   H20  421   3.677   5.301   9.104  0.1571 -0.5468 -0.5585
    6CHL1   C21  422   3.482   5.214   9.130  0.5573 -0.4218  0.4438
    6CHL1  H21A  423   3.431   5.272   9.050 -1.7588 -0.7500  1.6136
    6CHL1  H21B  424   3.466   5.267   9.226 -3.1462  0.2468 -0.3944
    6CHL1  H21C  425   3.433   5.117   9.153 -1.1417  0.4970  0.8450
    6CHL1   C22  426   3.642   5.145   8.947  0.1046 -0.1806  0.2082
    6CHL1  H22A  427   3.622   5.232   8.880  0.1921 -0.1028  0.2846
    6CHL1  H22B  428   3.746   5.113   8.927  0.1637 -1.3156  2.1503
    6CHL1   C23  429   3.557   5.030   8.900 -0.6912  0.3463 -0.0876
    6CHL1  H23A  430   3.574   4.956   8.981  1.9621  1.5109  0.5229
    6CHL1  H23B  431   3.447   5.045   8.901 -0.6425  0.8116  1.1757
    6CHL1   C24  432   3.592   4.970   8.761  0.5914 -0.1450  0.2743
    6CHL1  H24A  433   3.700   4.984   8.740  0.8338  0.1268  1.6277
    6CHL1  H24B  434   3.562   4.863   8.752 -3.7682  0.8739  0.3259
    6CHL1   C25  435   3.508   5.034   8.643  0.2000 -0.3595  0.0480
    6CHL1   H25  436   3.519   5.145   8.640  0.4417 -0.2686  2.1620
    6CHL1   C26  437   3.576   4.983   8.513 -0.3864 -0.0693 -0.0909
    6CHL1  H26A  438   3.686   5.001   8.516 -0.3086 -0.5256 -0.2719
    6CHL1  H26B  439   3.561   4.874   8.522  1.4976 -0.2679  1.2398
    6CHL1  H26C  440   3.528   5.028   8.423 -1.5093 -0.5453  0.2474
    6CHL1   C27  441   3.360   5.005   8.661  0.8098 -0.5683  0.3681
    6CHL1  H27A  442   3.315   5.041   8.566  0.1929 -3.6886 -0.6209
    6CHL1  H27B  443   3.335   4.901   8.691  0.0410 -0.1793  1.1310
    6CHL1  H27C  444   3.316   5.065   8.744 -0.9516 -0.9288 -0.2444
    7CHL1    C3  445   5.522   2.024  10.390  0.5196 -0.4719 -0.6293
    7CHL1    H3  446   5.597   2.079  10.330  2.9475 -2.7724  0.0630
    7CHL1    O3  447   5.533   2.076  10.520  0.1064  0.4483 -0.4248
    7CHL1   H3'  448   5.444   2.108  10.538 -0.7917 -2.5100  0.9734
    7CHL1    C4  449   5.375   2.046  10.333  0.3034  0.4637  0.2465
    7CHL1   H4A  450   5.299   1.984  10.385  0.1131  2.8792  3.1563
    7CHL1   H4B  451   5.345   2.152  10.338  1.9745  0.9300  1.4259
    7CHL1    C5  452   5.377   2.002  10.188  0.7171  0.5075  0.2612
    7CHL1    C6  453   5.351   2.094  10.091 -0.2895  0.1724 -0.4947
    7CHL1    H6  454   5.314   2.190  10.129 -2.8899 -0.7823 -0.4052
    7CHL1    C7  455   5.351   2.064   9.943  0.5360  0.0883 -0.0399
    7CHL1   H7A  456   5.265   2.107   9.888  1.8162  2.8114 -0.1284
    7CHL1   H7B  457   5.443   2.108   9.899  1.3738  1.4653  2.8488
    7CHL1    C8  458   5.353   1.913   9.915 -0.0986  0.0611  0.1760
    7CHL1    H8  459   5.259   1.863   9.943  1.0315 -1.2214  1.8194
    7CHL1   C14  460   5.386   1.884   9.769  0.3065 -0.6363  0.2869
    7CHL1   H14  461   5.491   1.918   9.756  0.2367 -0.4331  0.2584
    7CHL1   C15  462   5.303   1.946   9.661 -0.7537  0.3074 -0.1219
    7CHL1  H15A  463   5.195   1.923   9.676 -0.7266 -0.6785 -1.2355
    7CHL1  H15B  464   5.313   2.055   9.640  0.5026  0.0599 -0.9516
    7CHL1   C16  465   5.355   1.871   9.535 -0.1421  0.5048 -0.1806
    7CHL1  H16A  466   5.268   1.850   9.469  0.3678  0.5926 -0.8971
    7CHL1  H16B  467   5.434   1.932   9.486  1.7736 -1.9076 -0.3164
    7CHL1   C17  468   5.437   1.748   9.585  0.5133  0.0373 -0.0733
    7CHL1   H17  469   5.543   1.780   9.580  0.2644  1.0202  0.7461
    7CHL1   C13  470   5.396   1.732   9.735  0.2717 -0.1770  0.1709
    7CHL1   C18  471   5.259   1.669   9.764  0.5459  0.6285 -0.0629
    7CHL1  H18A  472   5.227   1.681   9.870  2.2462  1.7129  0.3731
    7CHL1  H18B  473   5.177   1.686   9.692 -1.1784  0.0429  1.6762
    7CHL1  H18C  474   5.262   1.559   9.748 -0.5029  0.8137 -1.7629
    7CHL1   C12  475   5.505   1.672   9.825 -0.5168 -0.4531 -0.5990
    7CHL1  H12A  476   5.510   1.563   9.801 -1.0856 -0.3712 -1.1206
    7CHL1  H12B  477   5.608   1.701   9.797 -0.5079  0.0323 -0.0781
    7CHL1   C11  478   5.483   1.694   9.971 -0.0104 -0.2597  0.3893
    7CHL1  H11A  479   5.390   1.640   9.999  1.2541 -3.1855 -0.6467
    7CHL1  H11B  480   5.569   1.653  10.028  1.1484  1.7452  0.1824
    7CHL1    C9  481   5.455   1.847  10.000 -0.1590  0.1591  1.0466
    7CHL1    H9  482   5.552   1.896   9.977 -1.0025  2.3588  1.8800
    7CHL1   C10  483   5.428   1.863  10.151  0.2917 -0.2165  0.0192
    7CHL1   C19  484   5.310   1.769  10.194  0.1425 -0.1342  0.3525
    7CHL1  H19A  485   5.331   1.661  10.180 -2.1856 -0.3764 -2.2698
    7CHL1  H19B  486   5.280   1.781  10.300 -0.7185 -0.1678  0.1184
    7CHL1  H19C  487   5.228   1.796  10.125  1.9686 -0.9203 -2.3010
    7CHL1    C1  488   5.554   1.826  10.243  0.5370 -0.2014  0.4389
    7CHL1   H1A  489   5.564   1.716  10.234  0.0854 -0.1525 -1.0056
    7CHL1   H1B  490   5.641   1.879  10.199 -1.5316  0.9466 -2.5884
    7CHL1    C2  491   5.553   1.875  10.390  0.0626 -0.0574  0.3964
    7CHL1   H2A  492   5.648   1.864  10.447  0.4943 -1.1013 -0.4907
    7CHL1   H2B  493   5.474   1.822  10.448 -1.4897  0.9980 -0.6704
    7CHL1   C20  494   5.413   1.626   9.488  0.2826 -0.0730  0.4842
    7CHL1   H20  495   5.312   1.584   9.509 -0.4055  0.4320 -1.5708
    7CHL1   C21  496   5.513   1.520   9.534  0.3048  0.5411 -0.2468
    7CHL1  H21A  497   5.605   1.568   9.574  0.6587  0.4091 -0.8899
    7CHL1  H21B  498   5.549   1.453   9.453  1.8294  1.5526 -0.4451
    7CHL1  H21C  499   5.465   1.459   9.614  1.5003  0.7087  0.6310
    7CHL1   C22  500   5.433   1.664   9.341  0.2418  0.0857  0.2346
    7CHL1  H22A  501   5.378   1.757   9.318 -1.7431 -1.1257 -0.1039
    7CHL1  H22B  502   5.542   1.686   9.336  0.2768 -0.3629 -1.4228
    7CHL1   C23  503   5.391   1.556   9.245 -0.3231 -0.2462 -0.0687
    7CHL1  H23A  504   5.432   1.456   9.273  0.0789  0.1572  0.7843
    7CHL1  H23B  505   5.280   1.549   9.248 -0.5056  1.9064 -0.2059
    7CHL1   C24  506   5.418   1.569   9.091 -0.4670 -0.0603  0.2248
    7CHL1  H24A  507   5.369   1.658   9.046 -1.2656 -0.7945 -0.3745
    7CHL1  H24B  508   5.528   1.580   9.076 -0.4939 -0.3990 -0.2188
    7CHL1   C25  509   5.390   1.442   9.001  0.2712 -0.2919 -0.0290
    7CHL1   H25  510   5.442   1.356   9.048 -0.5169 -0.4491  0.5798
    7CHL1   C26  511   5.240   1.415   9.017 -0.3608  0.1629 -0.5918
    7CHL1  H26A  512   5.198   1.361   8.928  1.2943  1.2768 -2.1113
    7CHL1  H26B  513   5.213   1.357   9.108  2.1990  0.0559  0.1584
    7CHL1  H26C  514   5.196   1.516   9.003 -1.1778 -0.1881 -0.6421
    7CHL1   C27  515   5.444   1.473   8.859  0.5407  0.2259 -0.5648
    7CHL1  H27A  516   5.385   1.558   8.817 -1.2083 -0.8446 -0.3704
    7CHL1  H27B  517   5.553   1.492   8.853  0.5597  1.6923  2.5118
    7CHL1  H27C  518   5.417   1.391   8.789  2.1510 -1.7008  0.9564
    8CHL1    C3  519   5.339   2.658  10.105  0.1319 -0.1986 -0.0596
    8CHL1    H3  520   5.251   2.689  10.044  1.1548  0.7116 -1.1328
    8CHL1    O3  521   5.332   2.695  10.240 -0.7512  0.1846 -0.4636
    8CHL1   H3'  522   5.422   2.684  10.269 -0.5339  0.7053 -0.9212
    8CHL1    C4  523   5.347   2.507  10.084 -0.7202  0.0632 -0.4991
    8CHL1   H4A  524   5.440   2.473  10.135 -0.4667 -1.4330 -1.8840
    8CHL1   H4B  525   5.260   2.463  10.138  0.8673 -0.9177  1.3976
    8CHL1    C5  526   5.344   2.467   9.941  0.5423  0.6011 -0.0552
    8CHL1    C6  527   5.241   2.389   9.895  0.1213 -0.5288  0.1537
    8CHL1    H6  528   5.164   2.366   9.969  1.5035 -2.5687  1.0585
    8CHL1    C7  529   5.197   2.361   9.757  0.0524 -0.3125  0.2200
    8CHL1   H7A  530   5.163   2.256   9.745 -1.0401  0.0308  0.2161
    8CHL1   H7B  531   5.105   2.419   9.735  0.0213 -0.8706 -1.1903
    8CHL1    C8  532   5.312   2.391   9.665 -0.0066  0.1001  0.0402
    8CHL1    H8  533   5.375   2.300   9.660  1.3007  0.9719  0.1993
    8CHL1   C14  534   5.255   2.417   9.524  0.0693 -0.9482  0.1480
    8CHL1   H14  535   5.198   2.512   9.531  0.8275 -0.5007  0.3353
    8CHL1   C15  536   5.153   2.314   9.473 -0.1313  0.5094 -0.5302
    8CHL1  H15A  537   5.190   2.211   9.490 -0.0082  0.6331 -0.0450
    8CHL1  H15B  538   5.052   2.334   9.516 -0.3390 -1.3093 -0.1139
    8CHL1   C16  539   5.157   2.337   9.317  0.3450 -1.0545  0.2908
    8CHL1  H16A  540   5.194   2.240   9.276 -1.5175 -1.6580 -0.0479
    8CHL1  H16B  541   5.058   2.359   9.272 -0.5761 -1.0895  2.2095
    8CHL1   C17  542   5.262   2.455   9.288  0.4322 -0.0378  0.1084
    8CHL1   H17  543   5.199   2.547   9.289  0.4290  0.0344 -2.1490
    8CHL1   C13  544   5.357   2.451   9.411 -0.4168  0.1530 -0.7084
    8CHL1   C18  545   5.452   2.336   9.381 -0.2194  0.1475 -0.4969
    8CHL1  H18A  546   5.495   2.292   9.474 -1.8606 -0.5145 -0.0107
    8CHL1  H18B  547   5.401   2.253   9.329 -0.3486 -0.1139  0.0354
    8CHL1  H18C  548   5.536   2.369   9.316  0.3286 -0.1265  0.0492
    8CHL1   C12  549   5.432   2.577   9.463  0.2382  0.7332  0.5202
    8CHL1  H12A  550   5.499   2.612   9.381  1.1335 -0.1813  0.8360
    8CHL1  H12B  551   5.352   2.653   9.459  0.2775  0.7430 -1.2953
    8CHL1   C11  552   5.491   2.560   9.601  0.2743 -0.3151 -0.3275
    8CHL1  H11A  553   5.561   2.475   9.586  1.2033 -0.4307  3.4905
    8CHL1  H11B  554   5.545   2.651   9.635 -0.5002 -0.1859  0.6156
    8CHL1    C9  555   5.385   2.523   9.705 -0.8349 -0.6467 -0.0283
    8CHL1    H9  556   5.310   2.605   9.704 -0.4607 -0.2933  0.3829
    8CHL1   C10  557   5.436   2.528   9.847 -0.3921 -0.0439 -0.3846
    8CHL1   C19  558   5.567   2.452   9.854  0.8376 -0.6146  0.8890
    8CHL1  H19A  559   5.643   2.484   9.779 -0.4495  2.2130  0.6561
    8CHL1  H19B  560   5.616   2.470   9.953 -2.1501  1.4280  2.1725
    8CHL1  H19C  561   5.548   2.345   9.834 -1.4200 -0.3966  1.5445
    8CHL1    C1  562   5.468   2.679   9.889  0.3438 -0.2985  0.3351
    8CHL1   H1A  563   5.568   2.706   9.848  0.5425 -1.7945 -0.2564
    8CHL1   H1B  564   5.403   2.754   9.840  0.7210 -0.6767 -0.7879
    8CHL1    C2  565   5.458   2.718  10.038 -0.7163  0.3003  0.0072
    8CHL1   H2A  566   5.451   2.828  10.045 -1.8142  0.1105  3.0003
    8CHL1   H2B  567   5.556   2.680  10.074 -0.4737  1.5394  0.6976
    8CHL1   C20  568   5.321   2.448   9.146  0.2201  0.1905 -0.5653
    8CHL1   H20  569   5.386   2.357   9.142 -0.8098 -0.6067  0.3251
    8CHL1   C21  570   5.390   2.581   9.104 -0.2192  0.6578  0.8098
    8CHL1  H21A  571   5.442   2.568   9.007  2.4589  2.0203  1.9476
    8CHL1  H21B  572   5.474   2.604   9.173 -0.6146  2.2370  0.8078
    8CHL1  H21C  573   5.323   2.670   9.109  0.4975  1.1523  2.2701
    8CHL1   C22  574   5.208   2.418   9.046  0.9765  0.1171 -0.6314
    8CHL1  H22A  575   5.120   2.355   9.074  0.8978  0.5367  0.0937
    8CHL1  H22B  576   5.175   2.520   9.016 -1.6126 -0.2743  0.5705
    8CHL1   C23  577   5.257   2.352   8.919  0.2627 -0.8577  0.0071
    8CHL1  H23A  578   5.355   2.399   8.897  1.2030 -2.3245  0.9072
    8CHL1  H23B  579   5.285   2.247   8.939  0.9328 -0.2384  2.7466
    8CHL1   C24  580   5.163   2.356   8.793  0.1484 -0.6810 -0.0286
    8CHL1  H24A  581   5.081   2.287   8.819 -1.2252  0.0797 -2.1084
    8CHL1  H24B  582   5.123   2.457   8.771 -0.8079 -0.9978  0.2046
    8CHL1   C25  583   5.229   2.285   8.669  0.1407 -0.0045  0.4089
    8CHL1   H25  584   5.283   2.195   8.705  1.0909 -0.1645 -1.3074
    8CHL1   C26  585   5.116   2.237   8.570 -0.6616 -0.6734 -0.0546
    8CHL1  H26A  586   5.162   2.150   8.517  0.0018 -0.0935 -0.4444
    8CHL1  H26B  587   5.021   2.217   8.625 -0.3486 -2.7256 -0.1588
    8CHL1  H26C  588   5.084   2.313   8.495 -1.1167 -0.1887  0.6202
    8CHL1   C27  589   5.331   2.376   8.604  0.4324  0.4378  0.5686
    8CHL1  H27A  590   5.378   2.326   8.517 -1.6569  2.0118 -1.6028
    8CHL1  H27B  591   5.282   2.472   8.575  1.9464  1.0512 -0.0196
    8CHL1  H27C  592   5.411   2.406   8.675  3.7405  1.9306 -3.4117
    9CHL1    C3  593   0.277   6.157  10.105 -0.1016 -0.3622  0.0309
    9CHL1    H3  594   0.272   6.057  10.153 -2.3559 -0.4147 -0.2021
    9CHL1    O3  595   0.325   6.247  10.205 -0.1199 -0.7494  0.1183
    9CHL1   H3'  596   0.357   6.327  10.163 -2.7440 -0.0021 -0.6304
    9CHL1    C4  597   0.373   6.170   9.990  0.8308  0.0295  0.3590
    9CHL1   H4A  598   0.393   6.277   9.971  1.5940 -0.5506 -2.7934
    9CHL1   H4B  599   0.470   6.123  10.017 -0.7953 -3.5939  0.5870
    9CHL1    C5  600   0.316   6.100   9.862  0.0944 -0.6894  0.0437
    9CHL1    C6  601   0.392   6.013   9.798 -0.2810 -0.1233 -0.2633
    9CHL1    H6  602   0.487   5.983   9.845 -0.5372 -1.1553 -0.3734
    9CHL1    C7  603   0.361   5.953   9.661 -0.7012 -0.2693 -0.1517
    9CHL1   H7A  604   0.447   5.955   9.591 -0.6969 -0.5346 -0.1556
    9CHL1   H7B  605   0.331   5.846   9.672  0.1362 -0.6810 -1.5441
    9CHL1    C8  606   0.243   6.023   9.590 -0.3657  0.9402 -0.1331
    9CHL1    H8  607   0.285   6.120   9.555  2.1150 -0.0721 -0.2165
    9CHL1   C14  608   0.194   5.939   9.472 -0.2238  0.4879  0.0850
    9CHL1   H14  609   0.154   5.845   9.514  1.3454  0.1323  0.8598
    9CHL1   C15  610   0.301   5.880   9.376 -0.5929  0.4647  0.1343
    9CHL1  H15A  611   0.376   5.958   9.352 -0.9106  0.9044  0.5363
    9CHL1  H15B  612   0.362   5.791   9.402  1.1464  1.8231  0.9376
    9CHL1   C16  613   0.219   5.850   9.246 -0.5323 -0.2460 -0.4036
    9CHL1  H16A  614   0.263   5.919   9.171 -0.2331 -0.1963 -0.1824
    9CHL1  H16B  615   0.236   5.744   9.218 -0.3195 -0.6323  1.0923
    9CHL1   C17  616   0.074   5.897   9.273 -0.1240  0.6727 -0.1117
    9CHL1   H17  617   0.023   5.808   9.315  2.2240 -0.3292  0.7616
    9CHL1   C13  618   0.086   6.006   9.386 -0.7640 -0.5404  0.2157
    9CHL1   C18  619   0.142   6.143   9.326  0.3277 -0.0330  0.2495
    9CHL1  H18A  620   0.232   6.117   9.266  0.0647  0.6638 -0.4696
    9CHL1  H18B  621   0.076   6.196   9.253  0.0063 -1.2106 -0.3346
    9CHL1  H18C  622   0.163   6.216   9.407  0.8050 -1.7315  1.7141
    9CHL1   C12  623  -0.036   6.018   9.487 -0.2642 -0.0903 -0.0445
    9CHL1  H12A  624  -0.127   6.065   9.443 -0.0261  0.0728 -0.3561
    9CHL1  H12B  625  -0.062   5.913   9.513  1.6073 -0.3205  1.0265
    9CHL1   C11  626   0.001   6.109   9.613  0.5082  0.0521  0.2260
    9CHL1  H11A  627   0.020   6.212   9.576  2.0647 -0.2558  0.1340
    9CHL1  H11B  628  -0.099   6.110   9.663 -0.7745  0.7857 -2.1737
    9CHL1    C9  629   0.125   6.058   9.684 -0.1433  0.6927  0.6642
    9CHL1    H9  630   0.096   5.958   9.723 -1.1064  0.1387 -1.3442
    9CHL1   C10  631   0.177   6.142   9.812 -0.0282 -0.1550  0.5304
    9CHL1   C19  632   0.185   6.292   9.767  0.1018  0.1324  0.6674
    9CHL1  H19A  633   0.239   6.353   9.842 -0.8915  0.1739  1.3572
    9CHL1  H19B  634   0.228   6.294   9.665  3.3658  1.3552  1.9275
    9CHL1  H19C  635   0.079   6.326   9.768 -0.5743 -1.8713  0.7275
    9CHL1    C1  636   0.088   6.133   9.938  0.1883  0.7586 -0.0178
    9CHL1   H1A  637  -0.018   6.160   9.916  0.6142  1.8246 -0.8691
    9CHL1   H1B  638   0.092   6.025   9.962 -0.2166  0.7829  0.1641
    9CHL1    C2  639   0.138   6.211  10.065  0.4328 -0.2849 -0.3779
    9CHL1   H2A  640   0.082   6.196  10.160  2.7463 -1.1139  0.9607
    9CHL1   H2B  641   0.140   6.321  10.050 -0.2569 -0.0941  0.8299
    9CHL1   C20  642   0.002   5.942   9.143 -0.0108 -0.0369  0.3729
    9CHL1   H20  643   0.059   6.024   9.093  0.5062 -1.1472 -0.8939
    9CHL1   C21  644  -0.135   5.992   9.185  0.1519 -0.0579 -0.2201
    9CHL1  H21A  645  -0.191   6.021   9.093  1.0926  1.2047 -0.4084
    9CHL1  H21B  646  -0.142   6.085   9.245  0.1173 -0.4549  0.4003
    9CHL1  H21C  647  -0.192   5.917   9.244 -0.2273 -0.4449 -1.0481
    9CHL1   C22  648  -0.013   5.824   9.043 -0.1993  0.1811 -0.1196
    9CHL1  H22A  649   0.093   5.795   9.028  0.0423  1.3644 -0.8416
    9CHL1  H22B  650  -0.064   5.737   9.090  0.6580 -0.7399 -0.8642
    9CHL1   C23  651  -0.088   5.858   8.912  0.1123 -0.2538  0.4012
    9CHL1  H23A  652  -0.196   5.833   8.922  0.0905 -0.4055 -0.1720
    9CHL1  H23B  653  -0.075   5.965   8.885 -2.1804 -0.0216 -0.0026
    9CHL1   C24  654  -0.023   5.770   8.806  0.2327  0.1987  0.0754
    9CHL1  H24A  655   0.088   5.765   8.821  0.3024 -1.2166 -0.7707
    9CHL1  H24B  656  -0.070   5.670   8.807  1.6342 -0.5237  2.1918
    9CHL1   C25  657  -0.032   5.838   8.664  0.5963 -0.3778 -0.2338
    9CHL1   H25  658   0.009   5.941   8.675  1.8860 -1.0252  1.3404
    9CHL1   C26  659   0.048   5.769   8.558  0.1751  0.5627  0.6631
    9CHL1  H26A  660   0.024   5.660   8.559  1.1172  0.3376 -0.2057
    9CHL1  H26B  661   0.016   5.802   8.457  1.7358  0.1665  0.0132
    9CHL1  H26C  662   0.158   5.775   8.569  0.1200 -0.5582  2.2682
    9CHL1   C27  663  -0.181   5.861   8.632  0.5024 -0.1881  0.2788
    9CHL1  H27A  664  -0.222   5.929   8.710  2.2779  0.9389  0.3049
    9CHL1  H27B  665  -0.190   5.919   8.538  0.7639  1.1450  1.0455
    9CHL1  H27C  666  -0.242   5.769   8.631 -1.3039  0.9451  0.7412
   10CHL1    C3  667   1.275   3.739   9.912 -0.1870 -0.3556  0.4162
   10CHL1    H3  668   1.243   3.844   9.933  1.8722  0.4976 -0.4883
   10CHL1    O3  669   1.310   3.672  10.031  0.0192 -0.4499  0.1599
   10CHL1   H3'  670   1.359   3.595  10.000  1.0958  0.0376  0.5930
   10CHL1    C4  671   1.152   3.673   9.857 -0.8875  0.2776  0.7350
   10CHL1   H4A  672   1.156   3.562   9.859 -0.4324  0.2936  0.7867
   10CHL1   H4B  673   1.062   3.698   9.917 -0.1268  2.1390  1.1501
   10CHL1    C5  674   1.116   3.703   9.712 -0.5793 -0.9777 -0.4723
   10CHL1    C6  675   0.992   3.734   9.680  0.6858  0.7932  0.3190
   10CHL1    H6  676   0.914   3.744   9.756  1.2866 -1.6510  1.3561
   10CHL1    C7  677   0.946   3.759   9.542  0.2259  0.1857  0.6740
   10CHL1   H7A  678   0.848   3.708   9.529  0.0934  0.2342  1.4225
   10CHL1   H7B  679   0.915   3.866   9.536  2.4706  0.9392  1.3328
   10CHL1    C8  680   1.052   3.714   9.432 -0.2170 -0.0331  0.7925
   10CHL1    H8  681   1.043   3.604   9.425  3.0400 -0.3506 -0.2131
   10CHL1   C14  682   1.022   3.778   9.300 -0.0368  0.0337  0.1276
   10CHL1   H14  683   1.033   3.888   9.318  1.6047  0.3178 -2.0352
   10CHL1   C15  684   0.886   3.770   9.238 -0.2808 -0.1739  0.2725
   10CHL1  H15A  685   0.855   3.664   9.248  0.7622 -0.4206  1.1105
   10CHL1  H15B  686   0.800   3.835   9.263  0.1013  0.5638 -0.2779
   10CHL1   C16  687   0.900   3.796   9.085  0.5276  0.1019  0.5157
   10CHL1  H16A  688   0.862   3.705   9.035  0.5652 -0.7791  2.0204
   10CHL1  H16B  689   0.839   3.883   9.053  0.1922 -0.0665  0.6870
   10CHL1   C17  690   1.051   3.817   9.062  0.3151  0.1753  0.0233
   10CHL1   H17  691   1.067   3.922   9.095 -2.7092 -0.1134  2.9876
   10CHL1   C13  692   1.118   3.738   9.176 -0.5436  0.2219  0.4654
   10CHL1   C18  693   1.100   3.585   9.150  0.4756 -0.4263 -0.4978
   10CHL1  H18A  694   1.136   3.527   9.237  1.0138 -0.4892 -0.7571
   10CHL1  H18B  695   0.994   3.563   9.125  0.5477 -1.0646 -0.2692
   10CHL1  H18C  696   1.163   3.553   9.065  2.5756 -1.3835  1.3321
   10CHL1   C12  697   1.260   3.774   9.231  0.3677  0.4040  0.4327
   10CHL1  H12A  698   1.335   3.723   9.166  1.1048 -1.3213  2.5269
   10CHL1  H12B  699   1.278   3.883   9.228 -2.1858  0.8761 -0.8937
   10CHL1   C11  700   1.301   3.705   9.365  0.0650 -0.3602  0.4911
   10CHL1  H11A  701   1.311   3.596   9.347  1.9745 -0.5754  2.5004
   10CHL1  H11B  702   1.403   3.738   9.394  0.7543 -1.3803 -0.6660
   10CHL1    C9  703   1.196   3.741   9.479  0.3280 -0.2367  0.1942
   10CHL1    H9  704   1.209   3.851   9.494  1.2092 -0.1540 -1.0205
   10CHL1   C10  705   1.232   3.687   9.615  0.5202 -0.4950  0.2487
   10CHL1   C19  706   1.264   3.536   9.610  0.5518 -0.4253  0.0590
   10CHL1  H19A  707   1.365   3.523   9.565 -0.0553  0.1654 -1.5681
   10CHL1  H19B  708   1.258   3.489   9.710 -0.0123 -0.3241  0.0740
   10CHL1  H19C  709   1.198   3.480   9.540 -2.2150  2.8710 -0.1925
   10CHL1    C1  710   1.344   3.771   9.678 -0.4343  0.4694  0.2832
   10CHL1   H1A  711   1.430   3.748   9.612 -0.4916 -1.0713  0.7008
   10CHL1   H1B  712   1.320   3.879   9.665  4.1266  1.5432 -1.0799
   10CHL1    C2  713   1.389   3.734   9.819  0.0940 -0.7439  0.3153
   10CHL1   H2A  714   1.481   3.785   9.854  0.9952 -2.1497  0.0607
   10CHL1   H2B  715   1.420   3.627   9.813  0.2656 -0.8369  2.3344
   10CHL1   C20  716   1.082   3.795   8.911  0.4325 -0.9436 -0.2059
   10CHL1   H20  717   1.042   3.693   8.892 -1.9856 -0.3633  1.3513
   10CHL1   C21  718   1.233   3.805   8.897  0.0722  0.3180 -0.0507
   10CHL1  H21A  719   1.270   3.896   8.949 -0.8967 -0.6090  2.4072
   10CHL1  H21B  720   1.263   3.802   8.790  2.7841  1.7859  0.5819
   10CHL1  H21C  721   1.282   3.718   8.945  0.1464  0.6318  0.4499
   10CHL1   C22  722   1.024   3.906   8.823  0.0993 -0.9317  0.0521
   10CHL1  H22A  723   0.914   3.913   8.835  0.3497  1.4170  1.7786
   10CHL1  H22B  724   1.060   4.007   8.851  2.4958 -1.7028 -0.0543
   10CHL1   C23  725   1.055   3.895   8.670 -0.0811 -0.1439  0.1701
   10CHL1  H23A  726   0.996   3.976   8.622 -2.1819 -0.4606  2.0107
   10CHL1  H23B  727   1.161   3.912   8.645 -0.2654  0.1235 -0.4374
   10CHL1   C24  728   1.001   3.762   8.611  0.8373  0.3613 -0.6490
   10CHL1  H24A  729   0.991   3.689   8.694 -0.5226 -0.2465 -1.3210
   10CHL1  H24B  730   0.905   3.783   8.559 -0.8248  0.0585  2.1133
   10CHL1   C25  731   1.085   3.699   8.500 -0.8981 -0.3214  0.2356
   10CHL1   H25  732   1.187   3.723   8.537 -0.1346 -3.9793  0.8613
   10CHL1   C26  733   1.048   3.552   8.484  0.1226  0.3964 -0.2174
   10CHL1  H26A  734   1.123   3.500   8.421  1.3805 -0.9259  2.2309
   10CHL1  H26B  735   1.058   3.494   8.578 -0.7315 -0.7062 -0.7908
   10CHL1  H26C  736   0.943   3.535   8.454 -0.4977 -1.3073  2.5535
   10CHL1   C27  737   1.055   3.772   8.366  0.0135 -0.3996 -0.5791
   10CHL1  H27A  738   1.057   3.883   8.374 -0.7231 -0.3758 -0.7133
   10CHL1  H27B  739   1.126   3.742   8.285  0.0359 -0.8297 -0.4060
   10CHL1  H27C  740   0.947   3.770   8.343  0.1351 -1.3361 -1.1333
   11CHL1    C3  741   3.954   0.165  10.144 -0.0679 -0.7816  0.3996
   11CHL1    H3  742   3.925   0.271  10.130 -1.7501 -1.4193 -1.5560
   11CHL1    O3  743   3.948   0.151  10.287 -0.0919  0.4141 -0.4367
   11CHL1   H3'  744   3.867   0.105  10.312  1.9689 -2.4116  1.7346
   11CHL1    C4  745   3.856   0.065  10.075  0.0399  0.3898 -0.2284
   11CHL1   H4A  746   3.870  -0.034  10.123 -0.8704  1.6749  2.9572
   11CHL1   H4B  747   3.753   0.100  10.098  0.0092  0.7263 -0.8533
   11CHL1    C5  748   3.873   0.059   9.925  0.1833  0.5100  0.2172
   11CHL1    C6  749   3.761   0.064   9.850  0.1108 -0.2283  0.4262
   11CHL1    H6  750   3.663   0.074   9.898  1.0333  1.8700  2.0513
   11CHL1    C7  751   3.759   0.065   9.699 -0.5269  0.1099  0.0424
   11CHL1   H7A  752   3.680  -0.001   9.656 -2.3634  1.4842  1.1073
   11CHL1   H7B  753   3.735   0.167   9.662 -0.0783  0.1229 -0.2154
   11CHL1    C8  754   3.900   0.035   9.644  0.0679  0.3341 -0.3342
   11CHL1    H8  755   3.910  -0.075   9.645 -0.5778  0.2647  1.2550
   11CHL1   C14  756   3.909   0.077   9.498 -0.6194  0.2544  0.2345
   11CHL1   H14  757   3.896   0.187   9.510  0.2494  0.3284  0.5093
   11CHL1   C15  758   3.803   0.031   9.396  0.5374  0.3625 -1.1410
   11CHL1  H15A  759   3.767  -0.070   9.424 -1.0731  1.4574  0.9986
   11CHL1  H15B  760   3.711   0.090   9.418 -0.5209 -1.7185  0.4104
   11CHL1   C16  761   3.863   0.047   9.254 -0.1858  0.1282 -0.3347
   11CHL1  H16A  762   3.884  -0.056   9.218 -0.7293 -1.4049  3.2973
   11CHL1  H16B  763   3.800   0.106   9.184 -2.1366 -0.5694  0.7668
   11CHL1   C17  764   4.010   0.098   9.281  0.7634 -0.3590 -0.0836
   11CHL1   H17  765   4.006   0.209   9.276 -3.6904 -0.2320  1.4702
   11CHL1   C13  766   4.046   0.056   9.428 -0.3918  0.9030  0.0495
   11CHL1   C18  767   4.095  -0.084   9.426 -0.5969  0.7806 -0.5160
   11CHL1  H18A  768   4.199  -0.082   9.386 -1.0756  1.5919 -1.7779
   11CHL1  H18B  769   4.098  -0.129   9.527  1.3678 -0.3947 -1.0367
   11CHL1  H18C  770   4.031  -0.147   9.361 -2.0133  3.7439 -2.1937
   11CHL1   C12  771   4.146   0.148   9.503 -0.2289  0.1654  0.0130
   11CHL1  H12A  772   4.246   0.126   9.459 -0.3121 -0.2244  0.0151
   11CHL1  H12B  773   4.117   0.254   9.485  0.4119  0.3694  0.1351
   11CHL1   C11  774   4.147   0.117   9.655  0.4875  0.9171  0.4844
   11CHL1  H11A  775   4.182   0.011   9.661  2.4733  1.4214 -1.2235
   11CHL1  H11B  776   4.223   0.181   9.704  0.8644 -0.3308  1.5924
   11CHL1    C9  777   4.010   0.105   9.723 -0.3342  0.1177  0.2466
   11CHL1    H9  778   3.985   0.212   9.715  1.0649  0.4949  0.6513
   11CHL1   C10  779   4.018   0.064   9.874 -0.1058 -0.1268 -0.0369
   11CHL1   C19  780   4.085  -0.073   9.886  0.4613 -0.4325  0.5835
   11CHL1  H19A  781   4.191  -0.073   9.852  0.3052 -2.0026  0.0070
   11CHL1  H19B  782   4.092  -0.117   9.987 -0.0315  1.9789  1.7336
   11CHL1  H19C  783   4.031  -0.138   9.814 -3.8360  2.9302  0.3759
   11CHL1    C1  784   4.106   0.166   9.949  0.5766 -0.1961  0.7002
   11CHL1   H1A  785   4.212   0.149   9.921  0.4128 -1.9541  1.0001
   11CHL1   H1B  786   4.068   0.264   9.914  0.7057 -0.3370  0.1597
   11CHL1    C2  787   4.100   0.156  10.099 -0.8821  0.3725 -0.0069
   11CHL1   H2A  788   4.163   0.238  10.140 -1.4068  0.1429  1.3121
   11CHL1   H2B  789   4.138   0.061  10.142 -0.6369  0.0689 -0.8813
   11CHL1   C20  790   4.107   0.054   9.170  0.3457 -0.9090 -0.1135
   11CHL1   H20  791   4.108  -0.057   9.172  1.0310 -0.9293 -0.8795
   11CHL1   C21  792   4.241   0.118   9.190 -0.8591 -0.3137 -0.0351
   11CHL1  H21A  793   4.296   0.063   9.269  1.0512 -1.4170 -2.0410
   11CHL1  H21B  794   4.236   0.228   9.203 -1.9066 -0.0769 -2.0896
   11CHL1  H21C  795   4.302   0.118   9.098  1.1511  0.5532  1.2439
   11CHL1   C22  796   4.062   0.084   9.029 -0.5299  0.0596  0.3680
   11CHL1  H22A  797   4.142   0.041   8.964  0.7717 -0.3722  2.1969
   11CHL1  H22B  798   3.977   0.017   9.006 -0.0221 -0.5695  0.2869
   11CHL1   C23  799   4.028   0.233   8.991 -0.2351  0.4632  0.2104
   11CHL1  H23A  800   3.932   0.245   9.046 -0.3968 -0.2738  0.1046
   11CHL1  H23B  801   4.097   0.302   9.043 -0.5164  0.0461  1.1556
   11CHL1   C24  802   3.999   0.250   8.842 -0.4333  0.1391  0.4779
   11CHL1  H24A  803   3.915   0.185   8.811  0.2709  0.0047 -1.2900
   11CHL1  H24B  804   3.953   0.351   8.831  0.0244  0.0976 -3.2112
   11CHL1   C25  805   4.122   0.253   8.739  0.1451  0.4830  0.5459
   11CHL1   H25  806   4.168   0.152   8.737 -1.2822 -0.2022  0.9465
   11CHL1   C26  807   4.063   0.286   8.600 -0.2678 -0.4935  0.3871
   11CHL1  H26A  808   3.982   0.211   8.585 -0.5139 -0.3130  0.8147
   11CHL1  H26B  809   4.040   0.394   8.604  1.1003 -0.1774  0.1248
   11CHL1  H26C  810   4.144   0.278   8.523 -2.5205 -0.4694 -2.1440
   11CHL1   C27  811   4.221   0.364   8.778 -0.5209  0.9257 -0.2245
   11CHL1  H27A  812   4.173   0.464   8.788 -0.2913  0.9290  1.0476
   11CHL1  H27B  813   4.255   0.344   8.882 -0.8511  1.3600 -0.0276
   11CHL1  H27C  814   4.317   0.370   8.723 -0.3929 -2.2186 -0.4967
   12CHL1    C3  815   6.191   3.155  10.331 -0.4504  0.4855 -0.4139
   12CHL1    H3  816   6.120   3.077  10.365 -0.1115  0.8556  1.2398
   12CHL1    O3  817   6.233   3.236  10.441  0.3956 -0.2614 -0.0823
   12CHL1   H3'  818   6.173   3.311  10.435 -0.2895 -0.7872  0.0247
   12CHL1    C4  819   6.311   3.072  10.283  0.1154  0.2971  0.5673
   12CHL1   H4A  820   6.397   3.141  10.267  1.5219 -1.9884 -3.0815
   12CHL1   H4B  821   6.340   3.011  10.372 -0.0716 -1.7462 -0.7198
   12CHL1    C5  822   6.298   3.015  10.140 -1.2322  0.8706 -0.2651
   12CHL1    C6  823   6.330   2.887  10.117  0.1386 -0.0887 -0.1465
   12CHL1    H6  824   6.344   2.819  10.202  0.7353 -2.1744 -1.8235
   12CHL1    C7  825   6.332   2.816   9.984 -0.0345 -0.2004  0.4551
   12CHL1   H7A  826   6.430   2.764   9.974  0.8801  1.3109  1.0867
   12CHL1   H7B  827   6.247   2.746   9.987 -1.0589  0.9084 -1.0603
   12CHL1    C8  828   6.323   2.919   9.868  0.3256 -0.4978  0.6407
   12CHL1    H8  829   6.423   2.968   9.862 -0.7645  1.7167 -0.8174
   12CHL1   C14  830   6.297   2.855   9.739 -1.0298 -0.4673 -0.7535
   12CHL1   H14  831   6.196   2.809   9.741 -0.7154 -1.1553  1.3208
   12CHL1   C15  832   6.387   2.739   9.695 -0.5176 -1.0954 -0.3389
   12CHL1  H15A  833   6.493   2.774   9.694 -0.5969 -0.8733 -0.8043
   12CHL1  H15B  834   6.375   2.643   9.750  0.2227 -0.1778  1.5136
   12CHL1   C16  835   6.349   2.720   9.545  0.1337 -0.0787  0.0583
   12CHL1  H16A  836   6.442   2.690   9.492 -0.6224 -1.7406 -0.4077
   12CHL1  H16B  837   6.285   2.630   9.535 -2.8557  2.1232 -2.4492
   12CHL1   C17  838   6.270   2.847   9.495 -0.0054 -0.2172 -0.7914
   12CHL1   H17  839   6.163   2.816   9.494  0.4709 -1.9371 -0.8239
   12CHL1   C13  840   6.288   2.948   9.615 -0.6315 -0.2280  0.7424
   12CHL1   C18  841   6.421   3.025   9.596 -0.1653 -0.0726 -0.1281
   12CHL1  H18A  842   6.390   3.111   9.532 -2.0568 -1.7656 -1.6612
   12CHL1  H18B  843   6.445   3.068   9.696 -0.8613 -2.0995  0.9626
   12CHL1  H18C  844   6.502   2.969   9.546  0.3542  1.3163 -0.9010
   12CHL1   C12  845   6.169   3.045   9.647 -0.3816 -0.3356 -0.1200
   12CHL1  H12A  846   6.165   3.128   9.573  1.6883  0.4454  0.5860
   12CHL1  H12B  847   6.072   2.990   9.647  0.5236 -2.0388 -1.7865
   12CHL1   C11  848   6.195   3.127   9.776 -0.1653  0.4531 -0.8276
   12CHL1  H11A  849   6.291   3.182   9.772 -0.6839  1.3092 -2.1590
   12CHL1  H11B  850   6.116   3.202   9.796 -1.0715 -1.0394  1.6998
   12CHL1    C9  851   6.222   3.034   9.893  0.0454  0.1852 -1.0561
   12CHL1    H9  852   6.122   2.986   9.907 -0.7475  1.5535 -1.8129
   12CHL1   C10  853   6.247   3.107  10.030  0.2079  0.5429 -0.0289
   12CHL1   C19  854   6.359   3.217  10.010  0.3281 -0.1875 -0.3231
   12CHL1  H19A  855   6.441   3.161   9.960  1.9664 -0.2646  2.2401
   12CHL1  H19B  856   6.327   3.298   9.940  0.3973  0.0694 -0.0601
   12CHL1  H19C  857   6.389   3.276  10.099  0.7457 -1.2252  0.2418
   12CHL1    C1  858   6.105   3.157  10.089 -0.1908  0.2180  0.5805
   12CHL1   H1A  859   6.045   3.214  10.015  1.8708  0.3272 -1.1219
   12CHL1   H1B  860   6.042   3.070  10.114  0.1230 -0.1654  0.0683
   12CHL1    C2  861   6.127   3.232  10.220  0.0207 -0.0404 -0.2768
   12CHL1   H2A  862   6.027   3.267  10.254 -0.4391 -0.6215 -0.9804
   12CHL1   H2B  863   6.190   3.322  10.208  0.4243 -0.0709  1.3722
   12CHL1   C20  864   6.310   2.888   9.351 -0.4871 -0.2157  0.1851
   12CHL1   H20  865   6.412   2.932   9.339 -0.7285  0.7315  1.4489
   12CHL1   C21  866   6.219   3.004   9.310  0.0755  0.7246  0.0595
   12CHL1  H21A  867   6.124   3.005   9.367 -0.0857  0.4563 -0.2040
   12CHL1  H21B  868   6.188   3.008   9.203  1.0517  1.1329 -0.2186
   12CHL1  H21C  869   6.276   3.099   9.320 -0.5679  1.2484 -0.9971
   12CHL1   C22  870   6.291   2.770   9.249  0.6324  1.2607  0.6961
   12CHL1  H22A  871   6.331   2.671   9.280 -1.7586  0.4841  1.5550
   12CHL1  H22B  872   6.181   2.759   9.241  0.8584 -2.3498  0.9643
   12CHL1   C23  873   6.351   2.812   9.113  0.5280  0.1480 -0.2384
   12CHL1  H23A  874   6.294   2.893   9.063  2.1717 -0.8442 -4.0413
   12CHL1  H23B  875   6.455   2.839   9.141 -0.4594  2.6822  1.2383
   12CHL1   C24  876   6.330   2.695   9.017  0.0448  0.7563 -0.2515
   12CHL1  H24A  877   6.415   2.628   9.043 -0.5274 -0.1988 -0.7760
   12CHL1  H24B  878   6.232   2.643   9.028 -0.4399  1.2088 -2.1868
   12CHL1   C25  879   6.342   2.727   8.865 -0.3392  0.6199  0.4822
   12CHL1   H25  880   6.253   2.785   8.835 -2.0487 -1.0052  2.1664
   12CHL1   C26  881   6.471   2.814   8.832 -0.2766  0.4171  0.1472
   12CHL1  H26A  882   6.568   2.773   8.868  1.0645  0.9105 -2.6073
   12CHL1  H26B  883   6.474   2.815   8.720  0.8133 -0.9236  0.1380
   12CHL1  H26C  884   6.463   2.912   8.884  1.5496 -0.2771  1.8529
   12CHL1   C27  885   6.343   2.612   8.770  0.5731 -0.2792 -0.5760
   12CHL1  H27A  886   6.309   2.637   8.667  1.8038  0.6126 -0.7852
   12CHL1  H27B  887   6.447   2.578   8.753  1.3711  0.2666  2.5516
   12CHL1  H27C  888   6.277   2.530   8.806 -0.6620  1.4072  1.2014
   13CHL1    C3  889   4.761   3.507   9.952 -0.3865 -0.2378 -0.2677
   13CHL1    H3  890   4.652   3.490   9.940 -0.2399 -0.6411 -1.1086
   13CHL1    O3  891   4.804   3.452  10.079 -0.0921  0.1705 -0.2329
   13CHL1   H3'  892   4.888   3.488  10.108 -0.3904  0.3141  0.4764
   13CHL1    C4  893   4.848   3.439   9.844  0.0399  0.3854  0.2644
   13CHL1   H4A  894   4.953   3.430   9.881 -0.8030  1.9903  3.4115
   13CHL1   H4B  895   4.811   3.335   9.846 -0.1866  0.4349 -0.6922
   13CHL1    C5  896   4.824   3.498   9.709  0.1131 -0.0780  0.2116
   13CHL1    C6  897   4.767   3.431   9.607 -0.0998 -0.4272 -0.0456
   13CHL1    H6  898   4.744   3.324   9.618  1.4546 -0.6228  2.0387
   13CHL1    C7  899   4.746   3.485   9.463 -0.4133 -0.0423  0.2975
   13CHL1   H7A  900   4.785   3.405   9.398  2.7257  0.0648  1.8521
   13CHL1   H7B  901   4.635   3.496   9.457 -0.2627  3.5570  1.4968
   13CHL1    C8  902   4.805   3.625   9.439  0.1008  0.2841 -0.8113
   13CHL1    H8  903   4.912   3.611   9.412  0.2312 -0.6133  0.0864
   13CHL1   C14  904   4.739   3.688   9.321  1.0532 -0.9132 -0.3600
   13CHL1   H14  905   4.632   3.705   9.347  1.4717  2.1849 -0.3048
   13CHL1   C15  906   4.730   3.615   9.187 -0.5024  0.6048  0.1923
   13CHL1  H15A  907   4.832   3.574   9.172 -0.5099 -0.0962  1.8085
   13CHL1  H15B  908   4.651   3.537   9.175 -2.3042  2.2142  1.0501
   13CHL1   C16  909   4.707   3.722   9.081 -0.0188  0.1934  0.0220
   13CHL1  H16A  910   4.788   3.720   9.005  0.5664  0.7256  0.6223
   13CHL1  H16B  911   4.611   3.723   9.026  0.5727  2.6286 -1.0778
   13CHL1   C17  912   4.727   3.858   9.153 -1.1593  0.6372 -0.3815
   13CHL1   H17  913   4.624   3.881   9.189 -1.6510 -3.2208  1.1602
   13CHL1   C13  914   4.803   3.823   9.285 -0.1035 -0.2029  0.4878
   13CHL1   C18  915   4.950   3.804   9.248 -0.4312 -0.2637 -0.3881
   13CHL1  H18A  916   5.001   3.765   9.338 -1.2424 -2.6437 -0.8763
   13CHL1  H18B  917   4.955   3.731   9.164 -0.8448  0.0089 -0.6565
   13CHL1  H18C  918   4.997   3.900   9.219  0.3191 -0.6819 -0.5755
   13CHL1   C12  919   4.782   3.923   9.395  0.5102 -0.2937 -0.3588
   13CHL1  H12A  920   4.854   4.006   9.381 -0.2637  0.3460 -0.5897
   13CHL1  H12B  921   4.678   3.962   9.394 -0.3346 -2.3310  0.3703
   13CHL1   C11  922   4.816   3.863   9.542  0.3154 -0.2976  1.1717
   13CHL1  H11A  923   4.927   3.870   9.543  0.3889  0.3502 -1.7168
   13CHL1  H11B  924   4.775   3.931   9.619 -2.3791 -1.6484  1.0373
   13CHL1    C9  925   4.781   3.709   9.562  0.2091  0.0840 -0.1828
   13CHL1    H9  926   4.670   3.716   9.567  0.0171 -0.9242 -1.9752
   13CHL1   C10  927   4.837   3.647   9.699 -0.4672 -0.1708 -0.1835
   13CHL1   C19  928   4.990   3.671   9.691 -0.0433  0.3427 -0.6157
   13CHL1  H19A  929   5.015   3.774   9.723  1.2525 -0.2946  0.6019
   13CHL1  H19B  930   5.039   3.606   9.767  2.0648  0.1319 -2.0696
   13CHL1  H19C  931   5.038   3.646   9.594  0.1179  0.7829 -0.6487
   13CHL1    C1  932   4.774   3.727   9.817 -0.5782  0.1577 -0.2899
   13CHL1   H1A  933   4.829   3.823   9.821 -0.1208 -0.1422  0.6974
   13CHL1   H1B  934   4.666   3.743   9.796 -0.2842  0.3151 -1.8015
   13CHL1    C2  935   4.791   3.656   9.956  0.2275 -0.3197  0.0824
   13CHL1   H2A  936   4.726   3.714  10.025  0.4312  0.4865 -0.3808
   13CHL1   H2B  937   4.896   3.675   9.988  0.0350 -1.2487  1.3475
   13CHL1   C20  938   4.777   3.975   9.074 -0.1710 -0.4806  0.3682
   13CHL1   H20  939   4.888   3.976   9.068 -0.1484  1.2796  0.5773
   13CHL1   C21  940   4.723   4.100   9.137 -0.3488  0.0917  0.0449
   13CHL1  H21A  941   4.728   4.185   9.067  1.8072 -0.4367 -0.4928
   13CHL1  H21B  942   4.787   4.133   9.221 -0.1653 -0.2785  0.0540
   13CHL1  H21C  943   4.617   4.088   9.169  0.4822 -1.3488  2.6057
   13CHL1   C22  944   4.732   3.962   8.923  0.1309 -0.0580  0.1706
   13CHL1  H22A  945   4.782   3.873   8.878  2.0830  1.2470 -0.3992
   13CHL1  H22B  946   4.621   3.953   8.919  0.0122  1.1707  0.3283
   13CHL1   C23  947   4.769   4.087   8.835 -0.2286 -0.3739 -1.2297
   13CHL1  H23A  948   4.703   4.173   8.860  1.6098  0.8114 -0.1753
   13CHL1  H23B  949   4.877   4.110   8.843 -0.5208  0.6897  0.0464
   13CHL1   C24  950   4.737   4.052   8.687 -0.8993  0.4341 -0.1878
   13CHL1  H24A  951   4.784   3.954   8.668 -0.2826  0.4077  1.3312
   13CHL1  H24B  952   4.627   4.046   8.676 -1.0338 -1.2598  1.5585
   13CHL1   C25  953   4.798   4.144   8.574  1.2468  0.4889 -0.7550
   13CHL1   H25  954   4.768   4.247   8.600 -1.4000 -0.1723 -0.9239
   13CHL1   C26  955   4.953   4.138   8.563 -0.3164  0.3893  0.1077
   13CHL1  H26A  956   4.979   4.032   8.543 -0.0436  0.7006 -1.2678
   13CHL1  H26B  957   4.996   4.207   8.488  0.5368  0.3190  0.5156
   13CHL1  H26C  958   5.007   4.173   8.654  0.5118 -0.3618 -0.0832
   13CHL1   C27  959   4.736   4.104   8.442 -0.0825  0.3730  0.9971
   13CHL1  H27A  960   4.757   3.999   8.411  0.7447  0.8233 -0.0611
   13CHL1  H27B  961   4.626   4.114   8.456 -0.0616  1.1481  0.6448
   13CHL1  H27C  962   4.764   4.168   8.355 -1.0201 -0.6040 -0.0638
   14CHL1    C3  963   3.008   1.060  10.193 -0.4083  0.2302 -0.4513
   14CHL1    H3  964   2.920   1.047  10.126  0.1758 -2.0892 -0.8453
   14CHL1    O3  965   2.982   1.006  10.324 -0.1755 -0.0404  0.4532
   14CHL1   H3'  966   3.038   1.058  10.382 -0.1421  1.3573 -0.7794
   14CHL1    C4  967   3.142   1.011  10.120 -0.2786 -0.4193 -0.5558
   14CHL1   H4A  968   3.230   1.030  10.187 -2.0573 -0.3605  1.9056
   14CHL1   H4B  969   3.130   0.901  10.122  0.3811 -0.5042 -1.0541
   14CHL1    C5  970   3.151   1.071   9.978  0.5979  0.3383  0.0661
   14CHL1    C6  971   3.158   0.992   9.870 -0.6815  0.3663  0.0112
   14CHL1    H6  972   3.150   0.883   9.882 -2.0957  0.0598 -2.9299
   14CHL1    C7  973   3.171   1.045   9.728  0.1021 -0.3867  0.0525
   14CHL1   H7A  974   3.243   0.981   9.672  2.4098  0.9659  1.2767
   14CHL1   H7B  975   3.066   1.035   9.693 -0.7789 -2.4242  2.9467
   14CHL1    C8  976   3.207   1.189   9.717 -0.1434 -0.7666  0.4375
   14CHL1    H8  977   3.315   1.194   9.742 -0.7047  1.1640  2.8793
   14CHL1   C14  978   3.176   1.255   9.585  0.1654 -0.0757 -0.2941
   14CHL1   H14  979   3.066   1.257   9.571 -0.0730  0.2531  1.4375
   14CHL1   C15  980   3.227   1.174   9.465 -0.4825 -0.0681  0.8097
   14CHL1  H15A  981   3.332   1.140   9.466 -0.6907 -0.7546  2.9147
   14CHL1  H15B  982   3.160   1.087   9.447  0.4189 -0.6426  0.1530
   14CHL1   C16  983   3.216   1.280   9.348  0.1172  0.1871  0.1599
   14CHL1  H16A  984   3.319   1.295   9.309  1.3470  1.9687  3.6834
   14CHL1  H16B  985   3.131   1.253   9.282 -1.1263 -0.5383  1.9859
   14CHL1   C17  986   3.174   1.413   9.415 -0.0327  0.0995 -0.7028
   14CHL1   H17  987   3.063   1.423   9.407 -0.2483 -1.4493  0.0486
   14CHL1   C13  988   3.221   1.398   9.565  0.3219  0.0560  0.1971
   14CHL1   C18  989   3.372   1.402   9.577 -0.0118 -0.0624  0.0631
   14CHL1  H18A  990   3.429   1.349   9.498  2.0805 -2.4303  2.9230
   14CHL1  H18B  991   3.410   1.506   9.577 -0.5299  0.1367  0.8488
   14CHL1  H18C  992   3.410   1.342   9.663 -1.9533  0.3392  1.2908
   14CHL1   C12  993   3.158   1.485   9.673  0.1903  0.4976 -0.6420
   14CHL1  H12A  994   3.203   1.587   9.666  1.4073 -0.0916 -2.0976
   14CHL1  H12B  995   3.051   1.489   9.642 -0.7486  1.0991  2.3797
   14CHL1   C11  996   3.187   1.423   9.815 -0.4957 -0.0799 -0.3316
   14CHL1  H11A  997   3.296   1.432   9.835 -0.5590  1.2716 -0.4775
   14CHL1  H11B  998   3.134   1.485   9.890 -2.1097  1.7546 -2.8302
   14CHL1    C9  999   3.138   1.276   9.828  0.1612 -0.7508  0.9803
   14CHL1    H9 1000   3.031   1.298   9.805  0.3299 -1.5229 -0.6793
   14CHL1   C10 1001   3.148   1.219   9.973  0.4964  0.1226  0.6351
   14CHL1   C19 1002   3.277   1.269  10.036 -0.0150 -0.1079 -0.0064
   14CHL1  H19A 1003   3.363   1.264   9.965 -0.6953  0.4099 -0.8895
   14CHL1  H19B 1004   3.266   1.377  10.063 -2.2001 -0.6384  1.4418
   14CHL1  H19C 1005   3.308   1.211  10.125  1.0934 -1.1267 -1.0219
   14CHL1    C1 1006   3.042   1.274  10.064  0.3535 -1.0075  0.4010
   14CHL1   H1A 1007   3.062   1.382  10.078 -1.4241 -0.6893  0.7929
   14CHL1   H1B 1008   2.942   1.256  10.018  1.6528 -0.8880 -2.7269
   14CHL1    C2 1009   3.027   1.213  10.207  0.9999 -0.2391  0.8282
   14CHL1   H2A 1010   2.945   1.265  10.261 -2.3272 -2.6932 -1.4866
   14CHL1   H2B 1011   3.122   1.236  10.260  0.9028  3.8681 -0.4090
   14CHL1   C20 1012   3.223   1.537   9.341  0.0931  0.4707  0.1298
   14CHL1   H20 1013   3.329   1.556   9.369 -0.2078 -0.0706  1.7337
   14CHL1   C21 1014   3.135   1.662   9.376  0.5850 -0.2226  0.0537
   14CHL1  H21A 1015   3.169   1.747   9.314  2.2268 -0.5747  0.4358
   14CHL1  H21B 1016   3.143   1.685   9.485  2.1635 -0.0210 -0.0864
   14CHL1  H21C 1017   3.027   1.640   9.362  0.5956 -1.4188  1.5891
   14CHL1   C22 1018   3.231   1.536   9.188  0.7072  0.3694 -0.4062
   14CHL1  H22A 1019   3.279   1.620   9.134  1.0834  0.4481  0.0460
   14CHL1  H22B 1020   3.280   1.441   9.158  1.3591  0.8862 -1.0046
   14CHL1   C23 1021   3.097   1.523   9.123  0.1495 -0.0999  0.2501
   14CHL1  H23A 1022   3.028   1.456   9.178  0.2837  0.2714  0.8871
   14CHL1  H23B 1023   3.054   1.625   9.116  0.1214  0.1771  3.1108
   14CHL1   C24 1024   3.105   1.469   8.975  0.4640 -0.2369  0.3132
   14CHL1  H24A 1025   3.164   1.552   8.930 -0.3096  1.0440  1.5438
   14CHL1  H24B 1026   3.160   1.374   8.964  2.3029  0.7324  0.6920
   14CHL1   C25 1027   2.964   1.468   8.902  0.6393  0.2688 -0.4329
   14CHL1   H25 1028   2.911   1.562   8.925  1.4037  0.9873 -1.4815
   14CHL1   C26 1029   2.992   1.472   8.748 -0.2350 -0.8434 -0.4458
   14CHL1  H26A 1030   2.898   1.481   8.689  0.8864 -1.0280 -2.3593
   14CHL1  H26B 1031   3.066   1.553   8.732 -0.4882 -0.1814  1.4857
   14CHL1  H26C 1032   3.040   1.375   8.722 -3.0374 -3.3892  2.9252
   14CHL1   C27 1033   2.870   1.356   8.947 -0.6662  0.1965 -0.2267
   14CHL1  H27A 1034   2.844   1.370   9.054 -0.5535  1.7130 -0.3751
   14CHL1  H27B 1035   2.777   1.346   8.886  1.4327 -1.3120 -3.4620
   14CHL1  H27C 1036   2.919   1.256   8.946 -0.2598  0.3977 -1.1188
   15CHL1    C3 1037   6.667   6.483   9.977  0.6291  0.5173  0.0538
   15CHL1    H3 1038   6.731   6.394   9.991 -0.0573  0.0591  0.3181
   15CHL1    O3 1039   6.665   6.540  10.108  0.0335  0.4110 -0.2019
   15CHL1   H3' 1040   6.595   6.605  10.098  0.2141  0.4903 -1.0714
   15CHL1    C4 1041   6.716   6.578   9.875  0.4244  0.1200 -0.2832
   15CHL1   H4A 1042   6.669   6.679   9.882 -0.5458 -0.3937  0.8539
   15CHL1   H4B 1043   6.823   6.601   9.893  0.7892  0.0890 -2.1464
   15CHL1    C5 1044   6.703   6.530   9.729  0.2743 -0.0667 -0.4019
   15CHL1    C6 1045   6.797   6.542   9.634 -1.0716  0.1976 -0.3046
   15CHL1    H6 1046   6.893   6.584   9.669  0.5406 -2.5917 -1.0898
   15CHL1    C7 1047   6.778   6.522   9.483  1.2403  0.0360 -0.1717
   15CHL1   H7A 1048   6.809   6.611   9.424 -0.5790 -0.1240 -1.4388
   15CHL1   H7B 1049   6.848   6.444   9.447  2.5756  1.8898 -1.7973
   15CHL1    C8 1050   6.624   6.502   9.441  0.0800 -0.5037  0.9400
   15CHL1    H8 1051   6.585   6.606   9.446 -0.5234 -0.7714  2.8339
   15CHL1   C14 1052   6.617   6.438   9.305 -0.1916  0.1386  0.1541
   15CHL1   H14 1053   6.678   6.346   9.309  1.3257  1.0370 -1.2552
   15CHL1   C15 1054   6.679   6.511   9.175 -0.2422 -0.0194  0.4266
   15CHL1  H15A 1055   6.652   6.618   9.182  0.1834  0.2723 -1.7591
   15CHL1  H15B 1056   6.789   6.500   9.164 -0.1481  0.6736  0.6474
   15CHL1   C16 1057   6.596   6.463   9.054 -0.3972  0.7543  0.0878
   15CHL1  H16A 1058   6.555   6.549   8.997 -1.0528  0.8762  0.7324
   15CHL1  H16B 1059   6.661   6.401   8.988 -0.1294  0.5744  0.5175
   15CHL1   C17 1060   6.484   6.368   9.118 -0.7644 -0.2317  0.2315
   15CHL1   H17 1061   6.536   6.269   9.120 -1.5351 -0.7250 -1.6135
   15CHL1   C13 1062   6.470   6.412   9.265  0.1535 -0.2856  0.1682
   15CHL1   C18 1063   6.394   6.541   9.262  0.2787 -0.4448 -0.2492
   15CHL1  H18A 1064   6.393   6.589   9.362  3.4796 -0.3275 -0.1947
   15CHL1  H18B 1065   6.438   6.618   9.196  2.4760  0.1331  1.7504
   15CHL1  H18C 1066   6.287   6.521   9.238  0.3750 -1.2697 -0.0531
   15CHL1   C12 1067   6.403   6.307   9.358 -0.1763 -0.5928  0.3382
   15CHL1  H12A 1068   6.293   6.308   9.340 -0.3007  1.5567  0.9233
   15CHL1  H12B 1069   6.452   6.208   9.347  0.2499 -0.4355  0.7863
   15CHL1   C11 1070   6.415   6.364   9.503  0.3850  0.3752  0.3856
   15CHL1  H11A 1071   6.342   6.448   9.508 -0.8595 -0.4547 -2.0292
   15CHL1  H11B 1072   6.368   6.292   9.573 -0.0384  0.9279  0.6832
   15CHL1    C9 1073   6.555   6.419   9.549 -0.4811  0.7273 -0.5234
   15CHL1    H9 1074   6.607   6.322   9.565 -1.9503  0.1536  1.1061
   15CHL1   C10 1075   6.561   6.480   9.692 -0.0549  0.2742 -0.1230
   15CHL1   C19 1076   6.470   6.603   9.688  0.1015  0.6505 -0.3781
   15CHL1  H19A 1077   6.460   6.657   9.785 -2.6828 -3.3521  1.9077
   15CHL1  H19B 1078   6.504   6.672   9.609  2.4487  0.2655  0.2165
   15CHL1  H19C 1079   6.364   6.576   9.665 -0.3618  3.3966 -1.7734
   15CHL1    C1 1080   6.505   6.383   9.798 -0.2197 -0.0098  0.3044
   15CHL1   H1A 1081   6.395   6.367   9.789 -0.1776 -0.6164  0.8032
   15CHL1   H1B 1082   6.557   6.286   9.785  0.7686  0.6810 -1.1657
   15CHL1    C2 1083   6.525   6.438   9.936  0.5371 -0.3195  0.1605
   15CHL1   H2A 1084   6.493   6.363  10.011  0.0209 -0.4966 -0.2286
   15CHL1   H2B 1085   6.460   6.528   9.948  1.7486  0.5836  0.0801
   15CHL1   C20 1086   6.347   6.346   9.031 -0.3736 -0.1969 -0.6764
   15CHL1   H20 1087   6.269   6.313   9.103 -0.8995 -2.6049 -2.2521
   15CHL1   C21 1088   6.393   6.231   8.943  0.1143 -0.6368 -0.0050
   15CHL1  H21A 1089   6.433   6.149   9.006  1.1944  2.1625  3.1994
   15CHL1  H21B 1090   6.485   6.262   8.889  0.3692 -1.1386  0.1296
   15CHL1  H21C 1091   6.316   6.200   8.868  1.5125 -0.6293 -1.5061
   15CHL1   C22 1092   6.306   6.460   8.940  0.8070  0.1489 -0.0652
   15CHL1  H22A 1093   6.291   6.556   8.993  2.8967  2.3949 -3.2283
   15CHL1  H22B 1094   6.380   6.475   8.859  0.2788 -0.6810 -0.7226
   15CHL1   C23 1095   6.171   6.429   8.864  0.0143  0.5573 -0.3265
   15CHL1  H23A 1096   6.181   6.332   8.810  1.1484 -0.5547  1.7605
   15CHL1  H23B 1097   6.100   6.421   8.948  1.2069  0.3484  0.6892
   15CHL1   C24 1098   6.134   6.539   8.765  1.0766 -0.1034  0.1204
   15CHL1  H24A 1099   6.091   6.628   8.814  0.4892 -0.9546  1.1900
   15CHL1  H24B 1100   6.226   6.582   8.720  0.9975 -1.3027 -1.2710
   15CHL1   C25 1101   6.027   6.504   8.656 -0.5959  0.1112  0.5160
   15CHL1   H25 1102   6.065   6.411   8.609  1.4598  0.7718  0.7741
   15CHL1   C26 1103   5.897   6.495   8.733 -0.6381  0.3915  0.4319
   15CHL1  H26A 1104   5.812   6.466   8.667 -0.2396 -1.1084  0.5400
   15CHL1  H26B 1105   5.907   6.426   8.819 -3.9374 -1.2460 -0.3073
   15CHL1  H26C 1106   5.863   6.594   8.771 -0.8298  0.4287  0.1711
   15CHL1   C27 1107   6.026   6.616   8.547 -0.5768  0.3340  0.3854
   15CHL1  H27A 1108   6.122   6.604   8.493  0.5093  0.4018  2.1997
   15CHL1  H27B 1109   5.938   6.610   8.480 -0.9038  2.3560  0.5695
   15CHL1  H27C 1110   6.003   6.713   8.595 -0.4036  0.8916 -0.6492
   16CHL1    C3 1111   6.560   1.956  10.287  0.1756 -0.0707 -0.8754
   16CHL1    H3 1112   6.657   1.903  10.276 -0.1052 -0.5314 -1.1437
   16CHL1    O3 1113   6.554   2.003  10.416 -0.3187  0.9783 -0.4560
   16CHL1   H3' 1114   6.472   2.050  10.404 -0.7443 -0.0773 -1.9738
   16CHL1    C4 1115   6.545   2.071  10.182  0.3320 -0.2272  0.0821
   16CHL1   H4A 1116   6.450   2.126  10.197  0.4998 -0.1830  1.0494
   16CHL1   H4B 1117   6.629   2.144  10.189  2.0875 -2.0488 -0.8247
   16CHL1    C5 1118   6.537   2.023  10.042  0.0375  0.1950 -0.4464
   16CHL1    C6 1119   6.613   2.072   9.949 -0.7129 -0.0073 -0.8961
   16CHL1    H6 1120   6.694   2.144   9.967  0.2662  0.2873 -5.3422
   16CHL1    C7 1121   6.603   2.035   9.808 -0.4714  0.4443  0.2296
   16CHL1   H7A 1122   6.592   2.123   9.742 -1.5976  1.5472  1.8203
   16CHL1   H7B 1123   6.700   1.987   9.781  0.1789  1.0742  1.3524
   16CHL1    C8 1124   6.476   1.950   9.770 -1.0290 -0.7662  0.1635
   16CHL1    H8 1125   6.394   2.023   9.753 -0.4478 -0.2453 -0.4519
   16CHL1   C14 1126   6.502   1.878   9.640  0.6181  0.6065 -0.2977
   16CHL1   H14 1127   6.584   1.804   9.651 -0.7745 -0.7319  1.7096
   16CHL1   C15 1128   6.558   1.959   9.523 -0.1297  0.1959 -0.3903
   16CHL1  H15A 1129   6.515   2.061   9.533 -1.9262 -0.6726  1.2478
   16CHL1  H15B 1130   6.669   1.953   9.510 -0.2320 -2.2904 -0.6408
   16CHL1   C16 1131   6.506   1.877   9.398  0.5027  0.3968 -0.2282
   16CHL1  H16A 1132   6.435   1.934   9.335  0.5313  1.8762  1.0246
   16CHL1  H16B 1133   6.594   1.846   9.337  1.0233  0.6246  0.3949
   16CHL1   C17 1134   6.443   1.752   9.460 -0.4370 -0.4703  0.0836
   16CHL1   H17 1135   6.529   1.683   9.471  0.7658  0.9316 -0.2952
   16CHL1   C13 1136   6.386   1.797   9.592 -0.3622  0.5654  0.9812
   16CHL1   C18 1137   6.269   1.888   9.556  0.5052  0.0156  0.6434
   16CHL1  H18A 1138   6.288   1.965   9.478 -1.4137 -2.2918 -2.2969
   16CHL1  H18B 1139   6.193   1.822   9.510 -0.9910  1.8649  0.3009
   16CHL1  H18C 1140   6.225   1.948   9.639 -0.7081  0.4981 -0.3214
   16CHL1   C12 1141   6.348   1.696   9.701  0.3301  0.3230 -0.2364
   16CHL1  H12A 1142   6.251   1.646   9.679 -1.3694  2.4792  1.8588
   16CHL1  H12B 1143   6.429   1.619   9.701  1.1006  1.1105 -0.0768
   16CHL1   C11 1144   6.320   1.765   9.834  0.2281 -0.4639 -0.4073
   16CHL1  H11A 1145   6.227   1.825   9.825  0.4926 -0.0303 -0.2813
   16CHL1  H11B 1146   6.299   1.696   9.918 -1.0892 -0.2838 -0.5669
   16CHL1    C9 1147   6.440   1.850   9.884  0.7041  0.2038  1.0681
   16CHL1    H9 1148   6.531   1.787   9.884  2.1516  2.2064  1.7317
   16CHL1   C10 1149   6.428   1.915  10.016 -0.5762  0.7101 -0.5117
   16CHL1   C19 1150   6.283   1.974  10.039 -0.3394 -0.6526 -0.2863
   16CHL1  H19A 1151   6.279   2.048  10.121 -1.7444  0.7516 -1.5561
   16CHL1  H19B 1152   6.245   2.027   9.949 -0.4114  0.0468  0.1507
   16CHL1  H19C 1153   6.210   1.896  10.069 -0.4554  0.5978  3.0400
   16CHL1    C1 1154   6.451   1.796  10.120 -0.4606 -0.1972 -0.0732
   16CHL1   H1A 1155   6.363   1.728  10.126  0.6030 -1.7197 -0.9455
   16CHL1   H1B 1156   6.541   1.735  10.096 -1.0853 -1.4209  0.5857
   16CHL1    C2 1157   6.456   1.849  10.262  0.4931  0.0292 -0.5861
   16CHL1   H2A 1158   6.468   1.768  10.337 -0.5036  1.1491  0.8404
   16CHL1   H2B 1159   6.357   1.894  10.281  0.3255 -0.9882  1.1733
   16CHL1   C20 1160   6.354   1.676   9.354 -0.2472  0.7732  0.5359
   16CHL1   H20 1161   6.249   1.713   9.357 -1.1115 -1.5195  4.1026
   16CHL1   C21 1162   6.340   1.534   9.408  0.2755 -0.0343 -0.5631
   16CHL1  H21A 1163   6.263   1.482   9.348  0.1986 -1.6296  0.8393
   16CHL1  H21B 1164   6.308   1.533   9.514  0.9666  1.2947 -0.3220
   16CHL1  H21C 1165   6.442   1.491   9.396  0.6845 -0.2719  2.7757
   16CHL1   C22 1166   6.403   1.674   9.209  0.1084 -0.2430 -0.1902
   16CHL1  H22A 1167   6.325   1.620   9.151  0.9255 -0.3353 -1.2388
   16CHL1  H22B 1168   6.394   1.777   9.168  0.6564 -0.8195 -1.8436
   16CHL1   C23 1169   6.523   1.596   9.175 -0.1025 -0.3800  0.3050
   16CHL1  H23A 1170   6.593   1.619   9.258 -0.5902 -0.8662  0.8609
   16CHL1  H23B 1171   6.499   1.488   9.185  1.2156 -0.6482  0.6994
   16CHL1   C24 1172   6.573   1.618   9.033  0.5075 -0.0205 -0.7466
   16CHL1  H24A 1173   6.620   1.521   9.005  0.0588 -0.6823  0.6953
   16CHL1  H24B 1174   6.485   1.638   8.968  1.1634  1.1920 -1.2805
   16CHL1   C25 1175   6.671   1.725   9.015  0.2885 -0.7183 -0.3365
   16CHL1   H25 1176   6.642   1.819   9.067  1.1093 -0.6310 -0.0169
   16CHL1   C26 1177   6.811   1.672   9.048 -0.0659 -0.1342  0.0988
   16CHL1  H26A 1178   6.839   1.594   8.974  1.3442  0.2204  0.2237
   16CHL1  H26B 1179   6.886   1.754   9.054  0.5791 -0.8174  3.1015
   16CHL1  H26C 1180   6.815   1.629   9.151  2.5035 -0.1585  0.0694
   16CHL1   C27 1181   6.664   1.777   8.868 -1.0198 -0.0151  0.0936
   16CHL1  H27A 1182   6.696   1.698   8.796 -0.7291  0.5169 -0.3640
   16CHL1  H27B 1183   6.563   1.821   8.856 -0.5670  1.0216 -0.0156
   16CHL1  H27C 1184   6.735   1.859   8.845 -2.1830  0.7476 -0.8758
   17CHL1    C3 1185   3.487   4.420   9.953 -0.4706  1.1086  0.3447
   17CHL1    H3 1186   3.538   4.321   9.949 -0.8341  0.6034  4.2611
   17CHL1    O3 1187   3.438   4.425  10.087  0.2298 -0.1933 -0.5199
   17CHL1   H3' 1188   3.451   4.513  10.123 -1.9828 -0.1041  0.2253
   17CHL1    C4 1189   3.580   4.534   9.916  0.1079  0.4769 -0.0955
   17CHL1   H4A 1190   3.516   4.622   9.939 -1.3962 -1.3538  3.6578
   17CHL1   H4B 1191   3.658   4.541   9.995 -0.2307  0.5582  0.2367
   17CHL1    C5 1192   3.635   4.533   9.774  0.6576 -0.4745  0.0955
   17CHL1    C6 1193   3.766   4.524   9.751 -0.1694  0.0634 -0.4588
   17CHL1    H6 1194   3.829   4.539   9.840  1.3289 -2.2228 -1.0390
   17CHL1    C7 1195   3.833   4.508   9.619 -0.4608  0.3163 -0.3584
   17CHL1   H7A 1196   3.921   4.576   9.609 -0.3843  0.2298 -0.2789
   17CHL1   H7B 1197   3.880   4.409   9.597  0.6209  1.2070 -2.3189
   17CHL1    C8 1198   3.737   4.546   9.501 -0.0337 -0.4532  0.1444
   17CHL1    H8 1199   3.717   4.654   9.513  0.9020 -0.4303  1.8539
   17CHL1   C14 1200   3.796   4.513   9.368  0.2420 -0.9649 -0.3994
   17CHL1   H14 1201   3.797   4.402   9.365 -1.0147 -0.9887 -0.2870
   17CHL1   C15 1202   3.936   4.560   9.330  0.2039  0.6920  0.1194
   17CHL1  H15A 1203   3.940   4.665   9.366 -2.2811  1.4803 -1.6115
   17CHL1  H15B 1204   4.015   4.496   9.375  2.1476  2.2090 -0.9818
   17CHL1   C16 1205   3.937   4.553   9.180 -0.5263 -0.4000  0.4689
   17CHL1  H16A 1206   3.965   4.655   9.147 -0.4299  0.0901  2.0100
   17CHL1  H16B 1207   4.009   4.480   9.137  1.2187  0.9978  0.9233
   17CHL1   C17 1208   3.794   4.521   9.130 -0.6510 -0.6422 -1.1762
   17CHL1   H17 1209   3.792   4.411   9.116 -1.4826 -0.9685  1.1069
   17CHL1   C13 1210   3.704   4.559   9.251 -0.4917 -0.1928  0.5106
   17CHL1   C18 1211   3.682   4.709   9.255 -0.8140 -0.3868  0.3063
   17CHL1  H18A 1212   3.616   4.737   9.170 -1.5068 -1.9171  0.3126
   17CHL1  H18B 1213   3.636   4.741   9.351  1.6881 -0.7224  1.6985
   17CHL1  H18C 1214   3.783   4.754   9.238 -0.5140 -0.9501  0.5641
   17CHL1   C12 1215   3.568   4.474   9.259  0.0613  0.2644  0.8667
   17CHL1  H12A 1216   3.500   4.499   9.176  0.1903  1.8070  1.2034
   17CHL1  H12B 1217   3.609   4.370   9.253 -0.9094 -0.1747  1.5163
   17CHL1   C11 1218   3.502   4.501   9.395 -0.1930  0.3721 -0.4710
   17CHL1  H11A 1219   3.468   4.607   9.394 -0.3401  0.3227 -0.6862
   17CHL1  H11B 1220   3.413   4.438   9.419  0.1180 -0.0580 -0.4437
   17CHL1    C9 1221   3.598   4.475   9.523  0.4019  0.3609 -0.1890
   17CHL1    H9 1222   3.613   4.365   9.530 -1.9900  0.0175  0.4459
   17CHL1   C10 1223   3.534   4.518   9.663  0.7735 -0.3234  0.3830
   17CHL1   C19 1224   3.462   4.655   9.654 -0.0052 -0.5251  1.3498
   17CHL1  H19A 1225   3.371   4.657   9.590 -0.2237 -1.4159  1.6206
   17CHL1  H19B 1226   3.441   4.695   9.755  0.8730  1.2912  0.8695
   17CHL1  H19C 1227   3.526   4.730   9.603 -0.9772 -1.3074 -1.1770
   17CHL1    C1 1228   3.431   4.411   9.705 -0.4236 -1.1322 -0.0491
   17CHL1   H1A 1229   3.339   4.442   9.650 -0.1142  0.7441  0.4103
   17CHL1   H1B 1230   3.466   4.306   9.698 -1.3635 -1.3609 -2.1628
   17CHL1    C2 1231   3.381   4.420   9.851  0.6967 -0.3508  0.7809
   17CHL1   H2A 1232   3.329   4.324   9.871 -2.0329  0.9732  0.5411
   17CHL1   H2B 1233   3.307   4.502   9.868  1.2387  0.4810 -0.6180
   17CHL1   C20 1234   3.770   4.586   8.993 -0.3788  0.8031  0.0805
   17CHL1   H20 1235   3.783   4.696   9.004 -2.8514  1.1074  0.4522
   17CHL1   C21 1236   3.620   4.574   8.943  0.0718 -0.2129 -0.4263
   17CHL1  H21A 1237   3.588   4.469   8.932 -0.3164 -0.1617  0.1896
   17CHL1  H21B 1238   3.621   4.627   8.846 -0.7166  0.2117 -0.2081
   17CHL1  H21C 1239   3.548   4.637   9.000 -0.2695 -0.3228 -0.7377
   17CHL1   C22 1240   3.861   4.537   8.880 -0.0454  0.0383 -0.0884
   17CHL1  H22A 1241   3.966   4.508   8.904 -1.2034 -3.0024  1.9724
   17CHL1  H22B 1242   3.814   4.444   8.839  2.0179 -2.1880  2.2100
   17CHL1   C23 1243   3.873   4.628   8.755 -0.0775  0.1820  0.6040
   17CHL1  H23A 1244   3.795   4.706   8.749 -1.1782 -0.8738  0.7010
   17CHL1  H23B 1245   3.963   4.692   8.761 -0.8450  1.4269 -0.7521
   17CHL1   C24 1246   3.891   4.552   8.622  0.2683  0.6654 -0.0714
   17CHL1  H24A 1247   3.979   4.490   8.647  0.7488  1.2888 -0.1973
   17CHL1  H24B 1248   3.812   4.475   8.610  2.7394 -1.7881 -1.6080
   17CHL1   C25 1249   3.919   4.623   8.490 -0.0479 -1.0432 -0.2986
   17CHL1   H25 1250   3.997   4.702   8.498 -0.1099 -1.1010  0.9556
   17CHL1   C26 1251   3.970   4.513   8.399  0.0576 -0.8471 -0.3022
   17CHL1  H26A 1252   3.994   4.551   8.298 -0.2697 -0.0153 -0.0732
   17CHL1  H26B 1253   4.066   4.467   8.432  0.4383  0.7632  0.9416
   17CHL1  H26C 1254   3.897   4.429   8.404  1.4925 -2.1652 -0.6163
   17CHL1   C27 1255   3.790   4.692   8.440 -0.6105  0.4093 -0.1597
   17CHL1  H27A 1256   3.826   4.748   8.351 -0.1736 -0.9946 -0.8861
   17CHL1  H27B 1257   3.712   4.617   8.415 -0.7267 -0.5383  2.6083
   17CHL1  H27C 1258   3.745   4.762   8.514 -0.2227  0.0589  0.4172
   18CHL1    C3 1259   6.484   4.092  10.128  0.9270 -0.2341 -0.3979
   18CHL1    H3 1260   6.468   3.985  10.152 -0.9139  0.3602  1.2868
   18CHL1    O3 1261   6.452   4.167  10.251 -0.6411  0.6084 -0.4997
   18CHL1   H3' 1262   6.356   4.173  10.251 -1.0307 -2.7933  1.3425
   18CHL1    C4 1263   6.632   4.114  10.097 -0.4014  0.4394  0.2407
   18CHL1   H4A 1264   6.661   4.221  10.098 -0.3886  0.5320 -2.8696
   18CHL1   H4B 1265   6.694   4.065  10.175 -1.0022 -2.3577 -0.9313
   18CHL1    C5 1266   6.662   4.042   9.962  0.3185  0.8996  0.1876
   18CHL1    C6 1267   6.741   3.937   9.950 -0.3680  0.3004 -0.3700
   18CHL1    H6 1268   6.781   3.887  10.039  1.5180 -0.6087 -1.6647
   18CHL1    C7 1269   6.774   3.868   9.813  0.0433 -0.7339  0.3209
   18CHL1   H7A 1270   6.877   3.827   9.810  0.3125 -0.0131 -1.4013
   18CHL1   H7B 1271   6.717   3.775   9.798 -0.2861 -0.6378  0.9258
   18CHL1    C8 1272   6.742   3.961   9.693 -0.4375  0.3889 -0.4916
   18CHL1    H8 1273   6.829   4.030   9.690  0.5690 -0.3061  4.4251
   18CHL1   C14 1274   6.729   3.879   9.568  0.0222 -0.7397 -0.5562
   18CHL1   H14 1275   6.644   3.811   9.590 -0.3091  0.0761  0.7554
   18CHL1   C15 1276   6.843   3.782   9.538 -0.6692  0.0706  0.5186
   18CHL1  H15A 1277   6.946   3.821   9.550 -1.1472  1.3562  0.5488
   18CHL1  H15B 1278   6.830   3.685   9.590 -0.8255 -0.1382  0.1023
   18CHL1   C16 1279   6.824   3.755   9.388  0.4105  0.3395  0.2599
   18CHL1  H16A 1280   6.906   3.801   9.330  1.2046 -0.6138  0.6074
   18CHL1  H16B 1281   6.820   3.645   9.373  3.7907  0.2332 -0.4494
   18CHL1   C17 1282   6.699   3.838   9.341 -0.4558  0.7833  0.3758
   18CHL1   H17 1283   6.607   3.780   9.363 -0.5259  1.0634  0.8411
   18CHL1   C13 1284   6.693   3.957   9.437  0.1954  0.0959  0.2530
   18CHL1   C18 1285   6.801   4.055   9.413 -1.1456 -1.3757  0.3249
   18CHL1  H18A 1286   6.904   4.015   9.423  1.0039  2.8394 -2.0732
   18CHL1  H18B 1287   6.801   4.085   9.306 -0.6084  0.1159  0.7154
   18CHL1  H18C 1288   6.795   4.145   9.479 -2.3329  0.0129 -1.5748
   18CHL1   C12 1289   6.550   4.020   9.465 -0.0246 -0.0074  0.2398
   18CHL1  H12A 1290   6.518   4.071   9.372  3.3117  0.6270 -0.6789
   18CHL1  H12B 1291   6.486   3.934   9.493  0.7162 -1.0642 -1.1983
   18CHL1   C11 1292   6.560   4.119   9.585  0.6195  0.2193  0.1664
   18CHL1  H11A 1293   6.627   4.205   9.561 -1.2861  0.9587 -2.9531
   18CHL1  H11B 1294   6.454   4.146   9.603  0.2190  0.6929 -2.4759
   18CHL1    C9 1295   6.606   4.035   9.716 -0.4406  0.5681  1.0783
   18CHL1    H9 1296   6.535   3.950   9.708 -0.0747  0.4314 -1.9105
   18CHL1   C10 1297   6.585   4.107   9.847  0.5259  0.2436  0.3327
   18CHL1   C19 1298   6.620   4.260   9.832  0.2082  0.1811  0.1303
   18CHL1  H19A 1299   6.623   4.322   9.925  0.6165 -1.5557  1.3271
   18CHL1  H19B 1300   6.720   4.275   9.786  2.2400 -2.1504  3.3315
   18CHL1  H19C 1301   6.544   4.299   9.761  1.5213  1.1485 -0.7728
   18CHL1    C1 1302   6.433   4.092   9.881  0.5566  0.9284 -0.6614
   18CHL1   H1A 1303   6.375   4.153   9.809 -1.0824  0.5081  0.2570
   18CHL1   H1B 1304   6.406   3.985   9.868  1.1477  0.5514  0.9700
   18CHL1    C2 1305   6.396   4.145  10.019  0.7002  0.0904  0.3208
   18CHL1   H2A 1306   6.292   4.108  10.033  0.8760 -0.1206  1.0744
   18CHL1   H2B 1307   6.385   4.255  10.010  0.8823 -0.0455 -2.6854
   18CHL1   C20 1308   6.704   3.856   9.187 -0.4613  0.1890 -0.6372
   18CHL1   H20 1309   6.797   3.907   9.151  1.5544 -1.7084  1.5469
   18CHL1   C21 1310   6.585   3.949   9.145 -0.4044  0.7786 -0.5122
   18CHL1  H21A 1311   6.491   3.909   9.189  1.0684 -3.1510 -0.5297
   18CHL1  H21B 1312   6.566   3.940   9.036  0.1663  1.2834 -0.6547
   18CHL1  H21C 1313   6.601   4.056   9.169  0.6081  0.4066  0.5778
   18CHL1   C22 1314   6.697   3.723   9.107  1.0037 -0.5158 -0.1376
   18CHL1  H22A 1315   6.763   3.653   9.161  1.5225  0.1366  0.0824
   18CHL1  H22B 1316   6.592   3.688   9.112  0.2436  1.5312 -0.4276
   18CHL1   C23 1317   6.722   3.734   8.958  0.2061  0.2582  0.1039
   18CHL1  H23A 1318   6.679   3.639   8.918  1.3350 -0.7803  1.2662
   18CHL1  H23B 1319   6.670   3.820   8.911  1.6588  0.8567 -0.4857
   18CHL1   C24 1320   6.871   3.739   8.924  0.3030  0.8625  0.4347
   18CHL1  H24A 1321   6.920   3.832   8.961  0.4142  0.5934  0.9801
   18CHL1  H24B 1322   6.920   3.656   8.979 -1.2056 -0.4900 -0.1962
   18CHL1   C25 1323   6.916   3.736   8.778 -0.4278  0.3676  0.2850
   18CHL1   H25 1324   7.027   3.740   8.777 -0.4083 -0.1757 -0.2233
   18CHL1   C26 1325   6.880   3.593   8.714  0.1331  0.4745  0.4103
   18CHL1  H26A 1326   6.930   3.588   8.616 -1.7900  0.6611 -0.6294
   18CHL1  H26B 1327   6.916   3.513   8.783 -1.1682  0.7552  1.4663
   18CHL1  H26C 1328   6.772   3.589   8.690 -0.1641  0.2546  1.7066
   18CHL1   C27 1329   6.861   3.847   8.687  0.9771  0.4155 -0.0796
   18CHL1  H27A 1330   6.750   3.851   8.696  0.6648  2.3957 -3.2219
   18CHL1  H27B 1331   6.897   3.947   8.718  1.3596  0.6032 -1.1126
   18CHL1  H27C 1332   6.882   3.815   8.583  2.9672  2.1311 -0.2671
   19CHL1    C3 1333   5.358   6.388  10.226  0.1098  0.1602 -0.4990
   19CHL1    H3 1334   5.259   6.337  10.227  0.0955  0.1762 -0.8508
   19CHL1    O3 1335   5.407   6.410  10.357 -0.0759  0.0774  0.3939
   19CHL1   H3' 1336   5.419   6.326  10.401  2.6364  1.2196  2.0783
   19CHL1    C4 1337   5.460   6.288  10.166 -0.1558  0.4104  0.1168
   19CHL1   H4A 1338   5.562   6.325  10.189 -0.2831  0.5810  0.4161
   19CHL1   H4B 1339   5.466   6.191  10.221  1.5287 -1.1014 -2.4763
   19CHL1    C5 1340   5.419   6.261  10.020  0.4500 -0.3865 -0.9512
   19CHL1    C6 1341   5.387   6.136   9.971 -0.2342  0.4376 -0.1471
   19CHL1    H6 1342   5.393   6.052  10.041 -0.8159 -0.0616 -0.6800
   19CHL1    C7 1343   5.368   6.108   9.822  0.7596 -0.6146  0.0175
   19CHL1   H7A 1344   5.423   6.021   9.780  0.9512  0.2417 -1.6154
   19CHL1   H7B 1345   5.266   6.070   9.803 -0.2084 -1.0065  4.8768
   19CHL1    C8 1346   5.417   6.228   9.736 -0.9882  0.3357  0.6912
   19CHL1    H8 1347   5.527   6.220   9.748 -1.1773 -2.3498  1.2896
   19CHL1   C14 1348   5.382   6.215   9.583  0.1931 -0.2844 -0.8656
   19CHL1   H14 1349   5.271   6.216   9.594  0.1964 -2.9875  0.0229
   19CHL1   C15 1350   5.402   6.080   9.515  0.0564  0.7670 -0.5317
   19CHL1  H15A 1351   5.496   6.025   9.541 -1.3615 -0.4833  2.4793
   19CHL1  H15B 1352   5.322   6.004   9.526  1.4125 -0.6909 -0.2071
   19CHL1   C16 1353   5.396   6.125   9.368  0.6862  0.1065 -0.2177
   19CHL1  H16A 1354   5.492   6.103   9.317  0.1629 -0.2255 -1.0955
   19CHL1  H16B 1355   5.321   6.070   9.307 -0.0315 -1.0093  1.6108
   19CHL1   C17 1356   5.382   6.272   9.356 -0.5903  0.1553 -0.5694
   19CHL1   H17 1357   5.273   6.292   9.357 -0.1603  3.3619  2.3001
   19CHL1   C13 1358   5.427   6.329   9.496 -0.0290  0.8043  0.3638
   19CHL1   C18 1359   5.582   6.337   9.494 -0.0269  0.7748  0.4705
   19CHL1  H18A 1360   5.605   6.417   9.421 -1.1660  0.5240 -0.1862
   19CHL1  H18B 1361   5.611   6.371   9.596 -1.5862  0.0942  1.1678
   19CHL1  H18C 1362   5.641   6.250   9.460  0.7080  1.0822  0.9288
   19CHL1   C12 1363   5.348   6.449   9.542 -0.0042 -0.1893 -0.2449
   19CHL1  H12A 1364   5.361   6.547   9.490  0.1835  0.2389  0.5843
   19CHL1  H12B 1365   5.240   6.424   9.531 -0.0351  0.1746 -0.8218
   19CHL1   C11 1366   5.371   6.484   9.687 -0.2823 -0.7625 -0.4533
   19CHL1  H11A 1367   5.477   6.519   9.687 -0.6084  0.3681  0.9055
   19CHL1  H11B 1368   5.298   6.563   9.714  1.4262  1.5903 -2.2647
   19CHL1    C9 1369   5.371   6.364   9.790  0.1268  0.4740  0.7192
   19CHL1    H9 1370   5.262   6.345   9.808 -0.0040  1.8712  1.5749
   19CHL1   C10 1371   5.425   6.392   9.932 -0.1732  0.4592 -0.1121
   19CHL1   C19 1372   5.566   6.442   9.911  0.2835 -0.7316  0.6905
   19CHL1  H19A 1373   5.555   6.549   9.886  0.3535 -0.9970 -0.5571
   19CHL1  H19B 1374   5.623   6.427  10.005 -0.9291  0.7643  1.7077
   19CHL1  H19C 1375   5.611   6.394   9.821  0.0340 -0.4566  0.4185
   19CHL1    C1 1376   5.324   6.495  10.000  0.5097 -0.6760 -0.3313
   19CHL1   H1A 1377   5.332   6.592   9.945 -1.0393 -0.1931  0.2444
   19CHL1   H1B 1378   5.223   6.453   9.987 -0.2308  1.5981 -2.9081
   19CHL1    C2 1379   5.357   6.522  10.148 -0.2074 -1.1798 -0.6948
   19CHL1   H2A 1380   5.275   6.585  10.190 -1.3912 -1.7503 -2.0615
   19CHL1   H2B 1381   5.447   6.583  10.168 -1.9504  0.6921  2.2326
   19CHL1   C20 1382   5.432   6.330   9.221 -0.1434 -0.0991 -0.2595
   19CHL1   H20 1383   5.543   6.323   9.221 -0.1746 -1.0309  1.4087
   19CHL1   C21 1384   5.382   6.476   9.211  0.2892  0.7224  0.5960
   19CHL1  H21A 1385   5.272   6.486   9.222  0.0627 -1.5083  0.8861
   19CHL1  H21B 1386   5.425   6.529   9.123 -0.2365  0.3615  0.1142
   19CHL1  H21C 1387   5.410   6.537   9.299 -1.0530  0.0593  1.5290
   19CHL1   C22 1388   5.369   6.244   9.110 -0.4303 -0.0707 -0.4753
   19CHL1  H22A 1389   5.379   6.133   9.114 -0.1432 -0.0168  1.0719
   19CHL1  H22B 1390   5.260   6.263   9.111  0.0886  3.6211 -1.6726
   19CHL1   C23 1391   5.415   6.285   8.967  0.2090 -0.1681 -0.2420
   19CHL1  H23A 1392   5.362   6.381   8.948 -1.1476 -0.9728 -0.7269
   19CHL1  H23B 1393   5.525   6.302   8.966  0.3371 -0.9635 -1.4838
   19CHL1   C24 1394   5.371   6.187   8.857  0.1498 -0.7511 -0.3926
   19CHL1  H24A 1395   5.419   6.087   8.869  1.5391  0.0999  1.8928
   19CHL1  H24B 1396   5.261   6.171   8.866 -0.0341  0.3520 -0.5658
   19CHL1   C25 1397   5.393   6.237   8.710  0.1924  0.0613  0.0715
   19CHL1   H25 1398   5.501   6.252   8.688 -0.2515  1.3674 -1.3965
   19CHL1   C26 1399   5.336   6.133   8.609  0.0300 -0.9946 -0.2520
   19CHL1  H26A 1400   5.226   6.144   8.623  0.2037  5.0823 -1.1838
   19CHL1  H26B 1401   5.374   6.161   8.509  0.0669  3.0884  0.7379
   19CHL1  H26C 1402   5.361   6.029   8.639 -0.9651 -0.7128  1.7507
   19CHL1   C27 1403   5.318   6.362   8.679  0.5807  0.9092 -0.1371
   19CHL1  H27A 1404   5.358   6.406   8.585 -0.6020 -0.3255 -1.2414
   19CHL1  H27B 1405   5.208   6.356   8.673  0.3127  3.2447  1.1260
   19CHL1  H27C 1406   5.323   6.440   8.759  1.3461 -1.1961  1.9905
   20CHL1    C3 1407   5.663   1.244  10.058 -0.3515 -0.4422  0.6956
   20CHL1    H3 1408   5.602   1.335  10.039 -1.0114 -1.1071 -0.4930
   20CHL1    O3 1409   5.681   1.249  10.200 -0.8575  0.0056 -0.0655
   20CHL1   H3' 1410   5.734   1.171  10.220 -1.2807  0.1580  1.9449
   20CHL1    C4 1411   5.584   1.121  10.015  0.2015 -0.8174 -0.6924
   20CHL1   H4A 1412   5.646   1.039  10.058 -0.5573 -1.1461 -0.2122
   20CHL1   H4B 1413   5.487   1.113  10.068  0.3031  1.5313 -0.0459
   20CHL1    C5 1414   5.566   1.133   9.864 -0.1932  0.3244 -0.3808
   20CHL1    C6 1415   5.445   1.124   9.796 -0.1517 -0.1743 -0.1043
   20CHL1    H6 1416   5.358   1.094   9.857 -2.0010 -1.0772 -2.9714
   20CHL1    C7 1417   5.423   1.128   9.652  0.4083 -1.0391 -0.1450
   20CHL1   H7A 1418   5.349   1.054   9.615  1.9782 -1.8877 -1.7944
   20CHL1   H7B 1419   5.384   1.230   9.634  1.8289 -0.3245  0.6240
   20CHL1    C8 1420   5.549   1.092   9.570  0.4379  0.1015 -0.0913
   20CHL1    H8 1421   5.568   0.984   9.585 -0.5608  0.1817  2.0467
   20CHL1   C14 1422   5.543   1.132   9.424  0.5487  0.2102  0.3156
   20CHL1   H14 1423   5.535   1.242   9.431 -2.3428  0.0471  0.8350
   20CHL1   C15 1424   5.417   1.075   9.357  0.7598 -0.4408 -0.1238
   20CHL1  H15A 1425   5.400   0.974   9.401  0.6229 -0.2575  0.2477
   20CHL1  H15B 1426   5.336   1.144   9.390  0.3637 -2.1162  2.8540
   20CHL1   C16 1427   5.449   1.077   9.210 -0.7354  0.2128  0.0579
   20CHL1  H16A 1428   5.447   0.970   9.178 -0.8310 -0.5452  2.3571
   20CHL1  H16B 1429   5.394   1.150   9.147 -1.1249  0.4781  0.6884
   20CHL1   C17 1430   5.601   1.111   9.200 -0.0010  0.7619 -0.7261
   20CHL1   H17 1431   5.605   1.222   9.186 -2.1972  1.0002  0.1287
   20CHL1   C13 1432   5.662   1.088   9.341 -0.1253  0.2351 -0.3772
   20CHL1   C18 1433   5.716   0.940   9.357 -0.0227 -0.8176  0.4658
   20CHL1  H18A 1434   5.761   0.928   9.458  1.2132  0.1608  0.0582
   20CHL1  H18B 1435   5.635   0.864   9.348  0.5188 -1.3382 -0.1055
   20CHL1  H18C 1436   5.797   0.919   9.284 -1.3737 -0.3599 -1.2173
   20CHL1   C12 1437   5.771   1.188   9.384 -0.2694 -0.0025  0.0815
   20CHL1  H12A 1438   5.872   1.170   9.342  0.2227 -3.0803  2.2432
   20CHL1  H12B 1439   5.741   1.294   9.373 -1.2673 -0.2797  0.0275
   20CHL1   C11 1440   5.793   1.174   9.538  0.5807 -0.4087 -0.7213
   20CHL1  H11A 1441   5.855   1.086   9.563  1.9112  1.0763  1.5299
   20CHL1  H11B 1442   5.852   1.265   9.559 -1.1253  0.6086 -0.1160
   20CHL1    C9 1443   5.668   1.169   9.635 -0.2029 -0.9456 -0.2936
   20CHL1    H9 1444   5.626   1.272   9.624 -0.4057 -1.1634 -1.8409
   20CHL1   C10 1445   5.696   1.152   9.780 -0.0742 -0.3853  1.0536
   20CHL1   C19 1446   5.777   1.027   9.792  0.1501  0.3200 -0.1627
   20CHL1  H19A 1447   5.804   0.999   9.897  2.7696  1.0973 -0.5371
   20CHL1  H19B 1448   5.728   0.936   9.752 -0.3488 -1.3925  3.8663
   20CHL1  H19C 1449   5.879   1.042   9.749  0.7014 -1.0760  0.5894
   20CHL1    C1 1450   5.781   1.275   9.840 -0.8029 -0.4453  0.2603
   20CHL1   H1A 1451   5.878   1.267   9.787 -0.1384 -3.5436  1.7488
   20CHL1   H1B 1452   5.721   1.366   9.818 -1.7222 -1.0917  0.0308
   20CHL1    C2 1453   5.802   1.262   9.990  0.2148  0.0068  0.0838
   20CHL1   H2A 1454   5.852   1.354  10.026  0.7458  0.2139 -1.1242
   20CHL1   H2B 1455   5.877   1.184  10.010 -0.2973 -0.6309 -0.4090
   20CHL1   C20 1456   5.677   1.050   9.078 -0.9957 -0.0372 -1.1547
   20CHL1   H20 1457   5.684   0.939   9.089 -1.3284 -0.0740 -1.2899
   20CHL1   C21 1458   5.811   1.121   9.064  0.1693  0.7729 -0.2159
   20CHL1  H21A 1459   5.879   1.085   9.144  1.0319 -0.3020 -1.3927
   20CHL1  H21B 1460   5.810   1.231   9.079  0.3986  0.5788  1.3469
   20CHL1  H21C 1461   5.862   1.084   8.972 -0.0830 -0.3177  0.0648
   20CHL1   C22 1462   5.597   1.068   8.952  0.5389 -0.6690  0.4104
   20CHL1  H22A 1463   5.500   1.016   8.965 -0.0507 -0.0616 -1.2587
   20CHL1  H22B 1464   5.575   1.176   8.938 -2.4743 -1.3563 -0.9699
   20CHL1   C23 1465   5.655   1.005   8.827 -0.1332 -0.0791 -0.3958
   20CHL1  H23A 1466   5.746   1.065   8.808  1.5251 -1.3563  2.7711
   20CHL1  H23B 1467   5.689   0.900   8.841 -2.0261 -0.8379 -1.1211
   20CHL1   C24 1468   5.547   0.998   8.714 -0.7739 -0.5704 -0.2842
   20CHL1  H24A 1469   5.482   0.909   8.726  0.0750 -1.3140 -1.0471
   20CHL1  H24B 1470   5.489   1.092   8.723 -0.1847 -0.3261  1.3223
   20CHL1   C25 1471   5.597   0.997   8.568  0.0894  0.1827 -0.6892
   20CHL1   H25 1472   5.670   0.913   8.565 -2.0519 -1.7914 -0.4071
   20CHL1   C26 1473   5.480   0.969   8.478 -0.6785 -0.0666 -0.3492
   20CHL1  H26A 1474   5.450   0.865   8.504 -0.2295 -0.0878  0.1096
   20CHL1  H26B 1475   5.390   1.034   8.483 -1.5151 -1.2110  0.0389
   20CHL1  H26C 1476   5.511   0.966   8.372  1.9594 -0.0758  0.3507
   20CHL1   C27 1477   5.671   1.125   8.528 -0.4189  0.2790 -0.7803
   20CHL1  H27A 1478   5.715   1.111   8.427 -1.6402  1.3050 -1.4969
   20CHL1  H27B 1479   5.610   1.218   8.524 -1.2869 -0.2424 -0.0284
   20CHL1  H27C 1480   5.753   1.149   8.598  0.0727  0.2411 -1.3373
   21CHL1    C3 1481   5.112   4.674  10.143  0.2997  0.4190 -0.1221
   21CHL1    H3 1482   5.020   4.624  10.105  0.2421  1.0821 -0.8902
   21CHL1    O3 1483   5.102   4.680  10.283 -0.1461  0.1086 -0.5011
   21CHL1   H3' 1484   5.157   4.750  10.320 -1.6343  0.5260  1.0894
   21CHL1    C4 1485   5.237   4.597  10.093  0.1092  0.0086  0.1224
   21CHL1   H4A 1486   5.333   4.630  10.138 -0.2204 -0.3482  1.1191
   21CHL1   H4B 1487   5.233   4.494  10.134 -1.1474  0.3143  0.8012
   21CHL1    C5 1488   5.252   4.596   9.943 -0.0982  0.2250 -0.4018
   21CHL1    C6 1489   5.277   4.484   9.873  0.7088 -0.2759  0.3143
   21CHL1    H6 1490   5.278   4.386   9.922 -2.0524 -0.2178  0.6119
   21CHL1    C7 1491   5.304   4.481   9.730  0.4974 -1.0415  1.1038
   21CHL1   H7A 1492   5.382   4.414   9.688 -0.8601 -0.1495 -3.3330
   21CHL1   H7B 1493   5.214   4.456   9.669  1.2558 -1.3624  0.0944
   21CHL1    C8 1494   5.334   4.623   9.657 -0.1861  0.1740 -0.2314
   21CHL1    H8 1495   5.441   4.644   9.677 -0.6689  2.8019 -0.0463
   21CHL1   C14 1496   5.303   4.626   9.510 -0.0353 -0.8413 -0.4635
   21CHL1   H14 1497   5.192   4.621   9.508 -0.1468 -2.5803  2.9900
   21CHL1   C15 1498   5.346   4.510   9.417 -0.1482  0.2762 -0.7683
   21CHL1  H15A 1499   5.446   4.470   9.440 -0.3967  0.6041  0.9936
   21CHL1  H15B 1500   5.287   4.417   9.433  0.1942  0.0055 -1.0765
   21CHL1   C16 1501   5.353   4.573   9.277  0.2562 -0.9455  0.3398
   21CHL1  H16A 1502   5.447   4.549   9.224  2.2578 -0.7350  3.5694
   21CHL1  H16B 1503   5.266   4.529   9.223  1.1243 -1.4136 -0.7126
   21CHL1   C17 1504   5.319   4.722   9.288 -0.5718 -1.1724 -0.3645
   21CHL1   H17 1505   5.209   4.728   9.270 -0.9452  2.0745  1.9962
   21CHL1   C13 1506   5.344   4.758   9.441  0.3986  0.2921 -0.0438
   21CHL1   C18 1507   5.494   4.782   9.465 -0.8471 -0.5065 -0.0872
   21CHL1  H18A 1508   5.522   4.880   9.421  1.8512 -1.2609 -0.2349
   21CHL1  H18B 1509   5.518   4.789   9.573 -0.5987  1.1549 -0.2356
   21CHL1  H18C 1510   5.549   4.703   9.409  3.6834  2.3283 -0.0985
   21CHL1   C12 1511   5.255   4.872   9.499 -0.3601  0.3873 -0.0242
   21CHL1  H12A 1512   5.281   4.971   9.456 -1.2530  0.3453 -0.6699
   21CHL1  H12B 1513   5.152   4.843   9.472 -0.4032 -0.0303  0.5781
   21CHL1   C11 1514   5.257   4.869   9.651 -0.6569 -0.9263 -0.1476
   21CHL1  H11A 1515   5.360   4.906   9.671 -1.1180  1.3029 -1.5162
   21CHL1  H11B 1516   5.179   4.940   9.686 -1.6336 -1.4651 -1.1512
   21CHL1    C9 1517   5.240   4.733   9.720  0.3468  0.0516  0.8434
   21CHL1    H9 1518   5.139   4.706   9.683  0.2810  1.8015 -0.3571
   21CHL1   C10 1519   5.248   4.734   9.879  0.5445 -0.4546  0.7194
   21CHL1   C19 1520   5.375   4.819   9.917 -0.3084 -0.1702 -0.0569
   21CHL1  H19A 1521   5.392   4.827  10.026  3.5155 -0.9080 -0.4699
   21CHL1  H19B 1522   5.470   4.782   9.872  0.1978  1.7761 -0.7081
   21CHL1  H19C 1523   5.384   4.926   9.888  2.9075  0.4566  2.5634
   21CHL1    C1 1524   5.130   4.812   9.933  0.3452 -0.4247  0.0591
   21CHL1   H1A 1525   5.136   4.918   9.900 -1.9646 -0.5768 -1.0360
   21CHL1   H1B 1526   5.036   4.786   9.880  0.2144 -1.5306  0.8043
   21CHL1    C2 1527   5.104   4.818  10.087  0.7958  0.1463  0.3403
   21CHL1   H2A 1528   5.013   4.879  10.104 -0.2646 -1.5839  1.1553
   21CHL1   H2B 1529   5.186   4.881  10.128 -0.4780  2.2188 -0.1781
   21CHL1   C20 1530   5.388   4.811   9.176  0.8308 -0.1588  0.0128
   21CHL1   H20 1531   5.492   4.826   9.212  0.3488 -0.2682  1.5193
   21CHL1   C21 1532   5.322   4.947   9.168  0.6112 -0.5588 -0.7805
   21CHL1  H21A 1533   5.354   5.003   9.258 -0.7376 -0.9848 -0.0089
   21CHL1  H21B 1534   5.211   4.936   9.170  0.7695 -2.7758 -1.7529
   21CHL1  H21C 1535   5.334   5.004   9.073 -0.0479 -0.8763 -1.0648
   21CHL1   C22 1536   5.383   4.743   9.030 -0.0064 -0.9815  0.2005
   21CHL1  H22A 1537   5.432   4.814   8.961 -3.4631  0.6013 -0.8410
   21CHL1  H22B 1538   5.450   4.654   9.031  1.0307 -0.2391 -0.4666
   21CHL1   C23 1539   5.242   4.699   8.983  0.3983 -0.5382  0.6152
   21CHL1  H23A 1540   5.216   4.603   9.032 -2.1554  0.1118  0.6461
   21CHL1  H23B 1541   5.165   4.769   9.022  2.1064 -0.3482  4.1097
   21CHL1   C24 1542   5.228   4.671   8.837 -0.1880 -0.1408 -0.0418
   21CHL1  H24A 1543   5.225   4.764   8.775 -1.3551 -0.2297 -0.1501
   21CHL1  H24B 1544   5.305   4.596   8.809  2.0793  1.9226  0.3580
   21CHL1   C25 1545   5.087   4.594   8.794  0.3695  0.6830 -1.1561
   21CHL1   H25 1546   5.084   4.507   8.863  2.7801  1.0560 -0.4805
   21CHL1   C26 1547   4.969   4.676   8.827  0.3446  0.2552 -0.6048
   21CHL1  H26A 1548   4.876   4.623   8.797  0.0452 -0.4754  1.4549
   21CHL1  H26B 1549   4.950   4.703   8.933 -1.7329 -0.8009 -0.6637
   21CHL1  H26C 1550   4.973   4.769   8.767 -2.4047  0.5208 -0.4881
   21CHL1   C27 1551   5.097   4.556   8.648  0.2104 -0.4292 -0.1269
   21CHL1  H27A 1552   5.133   4.650   8.600  1.0235 -0.1022  1.0654
   21CHL1  H27B 1553   5.159   4.466   8.631  2.4359  1.6434 -4.6735
   21CHL1  H27C 1554   4.993   4.537   8.613  0.2393  0.4817 -0.7410
   22CHL1    C3 1555   4.937   6.233  10.134 -0.1296 -0.4900 -0.3686
   22CHL1    H3 1556   5.016   6.311  10.141 -0.7968  0.3670 -1.8265
   22CHL1    O3 1557   4.885   6.221  10.266 -0.6293  0.5251  0.1983
   22CHL1   H3' 1558   4.961   6.205  10.323 -1.2408 -1.9806  0.4010
   22CHL1    C4 1559   4.818   6.282  10.056  0.5286 -0.1667 -0.2725
   22CHL1   H4A 1560   4.735   6.212  10.076  2.3990 -2.2087  0.7900
   22CHL1   H4B 1561   4.788   6.383  10.091 -1.0897 -0.6197 -0.2899
   22CHL1    C5 1562   4.837   6.287   9.905 -0.4325  0.4389 -0.7653
   22CHL1    C6 1563   4.828   6.406   9.840  0.0173 -0.8386  0.1447
   22CHL1    H6 1564   4.779   6.485   9.899  2.6549 -0.6869  2.3379
   22CHL1    C7 1565   4.843   6.416   9.696  0.4683 -0.5626 -0.1785
   22CHL1   H7A 1566   4.756   6.477   9.664 -0.2553 -1.1839  0.5563
   22CHL1   H7B 1567   4.933   6.466   9.656 -0.6888  0.3442 -1.7746
   22CHL1    C8 1568   4.842   6.276   9.626 -0.0968 -0.5957 -0.4719
   22CHL1    H8 1569   4.738   6.236   9.625 -0.6444  0.7403 -0.4032
   22CHL1   C14 1570   4.889   6.289   9.484  0.6016  0.4984 -0.1105
   22CHL1   H14 1571   4.993   6.327   9.489  0.2861  1.6279 -1.4109
   22CHL1   C15 1572   4.827   6.397   9.400  0.5154  0.3028  0.2438
   22CHL1  H15A 1573   4.717   6.396   9.408  0.5122 -0.9194  0.2442
   22CHL1  H15B 1574   4.865   6.496   9.434  2.3352  0.3971 -1.8461
   22CHL1   C16 1575   4.879   6.369   9.260 -0.5072 -0.9377 -0.4824
   22CHL1  H16A 1576   4.783   6.369   9.203 -0.8147 -1.6833  0.0183
   22CHL1  H16B 1577   4.937   6.450   9.211  0.4730 -2.1730 -1.4102
   22CHL1   C17 1578   4.938   6.226   9.262 -0.0323 -0.5711  1.0623
   22CHL1   H17 1579   5.047   6.242   9.269 -0.3540  1.2444  2.8899
   22CHL1   C13 1580   4.897   6.161   9.396 -0.4462 -0.1451 -0.4913
   22CHL1   C18 1581   4.755   6.111   9.375  0.3870  0.9698  0.3748
   22CHL1  H18A 1582   4.758   6.009   9.330  1.6582  0.9277  0.5028
   22CHL1  H18B 1583   4.715   6.095   9.477  0.8666  1.0901  0.5834
   22CHL1  H18C 1584   4.689   6.180   9.319 -0.5014  0.9519  1.3754
   22CHL1   C12 1585   4.990   6.057   9.465  0.3080 -0.0808  0.4316
   22CHL1  H12A 1586   4.995   5.956   9.421  0.1852  0.8434 -1.8311
   22CHL1  H12B 1587   5.094   6.096   9.471  0.2881  0.5285 -2.0402
   22CHL1   C11 1588   4.953   6.038   9.614 -0.6797  0.2272  0.3080
   22CHL1  H11A 1589   4.851   5.995   9.609 -1.0598  1.2262 -1.0050
   22CHL1  H11B 1590   5.030   5.969   9.657  0.8906  2.4464  1.2757
   22CHL1    C9 1591   4.923   6.173   9.698 -0.4981  0.3791  0.0707
   22CHL1    H9 1592   5.028   6.208   9.701 -0.5582  0.7865 -1.5359
   22CHL1   C10 1593   4.891   6.152   9.853 -0.3797  0.0780  0.1945
   22CHL1   C19 1594   4.777   6.050   9.850  0.8181  0.1727 -0.2488
   22CHL1  H19A 1595   4.704   6.073   9.769 -0.8312  1.2704  1.4753
   22CHL1  H19B 1596   4.817   5.949   9.829 -1.4645 -0.9063  0.3113
   22CHL1  H19C 1597   4.711   6.054   9.939  1.5210  4.1443  0.2686
   22CHL1    C1 1598   5.016   6.096   9.942  1.1219  0.3364  0.4875
   22CHL1   H1A 1599   5.051   5.998   9.903  2.6438  0.8284  0.5632
   22CHL1   H1B 1600   5.099   6.167   9.922  0.1690  1.4084  0.2215
   22CHL1    C2 1601   4.988   6.095  10.087  0.2815  0.3185 -0.3403
   22CHL1   H2A 1602   5.075   6.064  10.149 -2.6260 -2.1378  2.8768
   22CHL1   H2B 1603   4.911   6.021  10.119  0.0502  0.9530  0.6376
   22CHL1   C20 1604   4.921   6.144   9.131  0.5387  0.6993  0.3106
   22CHL1   H20 1605   4.811   6.129   9.133  0.0778  2.9099 -2.1551
   22CHL1   C21 1606   4.996   6.003   9.136  0.0603 -0.1511  0.1053
   22CHL1  H21A 1607   4.947   5.941   9.215 -1.2129  0.6631 -0.0212
   22CHL1  H21B 1608   5.104   6.024   9.151  0.2133 -1.0419  0.3517
   22CHL1  H21C 1609   4.972   5.951   9.041 -3.5606  0.9532  0.2513
   22CHL1   C22 1610   4.958   6.219   9.009  0.5232  0.0066 -0.2571
   22CHL1  H22A 1611   4.975   6.328   9.026 -0.0276  0.3700 -1.8724
   22CHL1  H22B 1612   5.060   6.180   8.991  1.3531  1.7718  0.4187
   22CHL1   C23 1613   4.872   6.205   8.881 -0.5565 -0.4930 -0.3918
   22CHL1  H23A 1614   4.928   6.235   8.790 -1.3659  0.2036 -0.6763
   22CHL1  H23B 1615   4.840   6.099   8.878 -1.3400 -0.3040  0.6134
   22CHL1   C24 1616   4.743   6.289   8.886  0.1212 -0.2162 -0.0248
   22CHL1  H24A 1617   4.676   6.254   8.805 -1.9454 -0.5582  1.7175
   22CHL1  H24B 1618   4.689   6.272   8.982 -2.9532  1.1837 -1.3770
   22CHL1   C25 1619   4.754   6.442   8.874 -0.1514 -0.7176 -0.0421
   22CHL1   H25 1620   4.842   6.482   8.928  1.3785 -3.1450 -0.5976
   22CHL1   C26 1621   4.775   6.491   8.732  0.4039  0.2929 -0.5202
   22CHL1  H26A 1622   4.764   6.602   8.734  1.1338  0.4052 -1.7378
   22CHL1  H26B 1623   4.880   6.469   8.703  0.1680 -0.7203 -0.6454
   22CHL1  H26C 1624   4.699   6.445   8.666  0.7936  0.6432 -1.2182
   22CHL1   C27 1625   4.627   6.506   8.935  0.1147 -0.0796  0.3398
   22CHL1  H27A 1626   4.622   6.616   8.920 -2.3725 -0.0122  1.2460
   22CHL1  H27B 1627   4.542   6.462   8.879  0.4908  1.1831 -1.3201
   22CHL1  H27C 1628   4.616   6.478   9.042 -0.2521 -0.9519  0.0780
   23CHL1    C3 1629   4.274   6.297  10.186  0.2186 -0.6653 -0.5763
   23CHL1    H3 1630   4.164   6.312  10.181  0.0962 -0.7660  1.2438
   23CHL1    O3 1631   4.328   6.277  10.315 -0.3851  0.5259 -0.1279
   23CHL1   H3' 1632   4.424   6.264  10.313 -0.3869  0.0503  1.4981
   23CHL1    C4 1633   4.302   6.166  10.110 -0.3971 -1.0197  0.1513
   23CHL1   H4A 1634   4.410   6.141  10.123 -0.7638 -2.4171  0.6807
   23CHL1   H4B 1635   4.240   6.086  10.156 -1.6418  0.2614  0.7928
   23CHL1    C5 1636   4.273   6.177   9.965  0.3987  0.0580  0.4148
   23CHL1    C6 1637   4.198   6.085   9.899  0.5011  0.3819 -0.4702
   23CHL1    H6 1638   4.158   5.993   9.946  0.1479  0.4243 -0.6838
   23CHL1    C7 1639   4.167   6.088   9.756 -0.2362 -0.6370  0.7961
   23CHL1   H7A 1640   4.176   5.987   9.712 -1.7302 -0.9016  1.0399
   23CHL1   H7B 1641   4.066   6.131   9.739 -0.3268 -1.1308  0.0335
   23CHL1    C8 1642   4.258   6.189   9.666 -0.4627 -0.0777 -0.4532
   23CHL1    H8 1643   4.355   6.134   9.670 -0.4112  0.0604  0.9850
   23CHL1   C14 1644   4.207   6.218   9.526 -0.4336  0.1446  0.1859
   23CHL1   H14 1645   4.110   6.269   9.543 -1.7847 -1.8718 -0.9598
   23CHL1   C15 1646   4.162   6.103   9.436  0.1867 -0.4106  0.9240
   23CHL1  H15A 1647   4.239   6.023   9.442 -0.6831 -1.3544 -0.1659
   23CHL1  H15B 1648   4.064   6.068   9.474 -0.9254  0.4469 -1.0221
   23CHL1   C16 1649   4.160   6.156   9.295  0.2153  0.2288 -0.4458
   23CHL1  H16A 1650   4.232   6.104   9.228 -0.4471  0.2861 -1.2134
   23CHL1  H16B 1651   4.059   6.167   9.250 -1.1964 -2.9174  1.5816
   23CHL1   C17 1652   4.211   6.302   9.303  0.1238  0.2188 -0.2915
   23CHL1   H17 1653   4.124   6.369   9.315 -1.7555 -2.3448  1.7099
   23CHL1   C13 1654   4.290   6.316   9.438  0.4968  0.2578 -0.1229
   23CHL1   C18 1655   4.427   6.256   9.417  0.0796  0.1078 -0.2736
   23CHL1  H18A 1656   4.474   6.234   9.516 -2.5438  3.7641  2.0390
   23CHL1  H18B 1657   4.432   6.162   9.357  0.1992  1.0938 -1.8515
   23CHL1  H18C 1658   4.491   6.334   9.371  1.6303 -0.1008  1.3987
   23CHL1   C12 1659   4.305   6.453   9.517  0.1708  0.0266 -0.7147
   23CHL1  H12A 1660   4.382   6.508   9.459  3.5587 -1.3060  2.1178
   23CHL1  H12B 1661   4.208   6.506   9.513  0.3919  0.4647 -0.4450
   23CHL1   C11 1662   4.355   6.426   9.661  0.2160 -0.6328  0.6522
   23CHL1  H11A 1663   4.462   6.398   9.646  0.0909 -0.7049 -0.1657
   23CHL1  H11B 1664   4.362   6.525   9.710 -1.1044 -0.4665  0.5222
   23CHL1    C9 1665   4.273   6.321   9.744 -0.5298  0.0841  0.7970
   23CHL1    H9 1666   4.167   6.354   9.746 -0.0587  1.6742  1.7889
   23CHL1   C10 1667   4.326   6.302   9.887 -1.2370  0.0028  0.0869
   23CHL1   C19 1668   4.480   6.290   9.873  0.2025  0.5526 -0.1067
   23CHL1  H19A 1669   4.534   6.383   9.843  0.1300  0.9287  0.8950
   23CHL1  H19B 1670   4.528   6.263   9.969 -0.7191  0.1148  0.2453
   23CHL1  H19C 1671   4.516   6.206   9.810 -1.0284 -0.6600  0.7583
   23CHL1    C1 1672   4.295   6.428   9.976  0.0281 -0.4025  0.3186
   23CHL1   H1A 1673   4.343   6.513   9.923 -2.0357  0.7744  0.2517
   23CHL1   H1B 1674   4.187   6.451   9.967  0.6317  3.1903  0.9049
   23CHL1    C2 1675   4.342   6.423  10.125  0.2839 -0.0178  0.4054
   23CHL1   H2A 1676   4.302   6.522  10.157  1.0911  0.8941 -1.2526
   23CHL1   H2B 1677   4.452   6.411  10.133  0.2264 -1.0761 -0.1976
   23CHL1   C20 1678   4.285   6.353   9.168  0.2486  0.1322  0.3187
   23CHL1   H20 1679   4.378   6.295   9.155  0.0243 -0.3890  0.9686
   23CHL1   C21 1680   4.326   6.504   9.177  0.1492  0.0305 -0.5932
   23CHL1  H21A 1681   4.421   6.509   9.235  1.4028 -0.7818 -2.4645
   23CHL1  H21B 1682   4.251   6.569   9.226  0.6706  1.1228 -1.1989
   23CHL1  H21C 1683   4.336   6.550   9.076 -1.3384  0.9797 -0.3308
   23CHL1   C22 1684   4.193   6.325   9.041 -0.1667 -0.1387  0.4458
   23CHL1  H22A 1685   4.167   6.217   9.051  0.4892 -0.6245 -2.3573
   23CHL1  H22B 1686   4.105   6.390   9.059  0.1729  0.1787  1.0002
   23CHL1   C23 1687   4.249   6.371   8.916 -0.8713  0.2500  0.4119
   23CHL1  H23A 1688   4.252   6.482   8.907 -0.3067  0.1672 -0.6185
   23CHL1  H23B 1689   4.357   6.345   8.910 -0.8533 -0.2191  2.1936
   23CHL1   C24 1690   4.176   6.316   8.793 -0.0255  0.1348  0.1065
   23CHL1  H24A 1691   4.172   6.205   8.790  0.5761  0.0806  0.9727
   23CHL1  H24B 1692   4.070   6.349   8.795  0.0119  0.8177 -3.1267
   23CHL1   C25 1693   4.218   6.382   8.663  0.4186  0.2342 -0.2482
   23CHL1   H25 1694   4.154   6.338   8.584  0.1969 -1.6185  0.9151
   23CHL1   C26 1695   4.176   6.530   8.656  0.5226 -0.5157  0.9985
   23CHL1  H26A 1696   4.066   6.538   8.650  0.6117 -0.2306 -0.7069
   23CHL1  H26B 1697   4.219   6.597   8.734 -1.5731  0.5231  1.3442
   23CHL1  H26C 1698   4.214   6.564   8.557 -0.4429 -1.0608  0.4305
   23CHL1   C27 1699   4.370   6.361   8.626 -0.0612  0.1385 -0.2882
   23CHL1  H27A 1700   4.375   6.251   8.617 -0.4551  0.2037 -1.4665
   23CHL1  H27B 1701   4.393   6.410   8.529  2.0545 -0.9303 -0.3826
   23CHL1  H27C 1702   4.448   6.416   8.683  0.5061 -1.5045  0.5791
   24CHL1    C3 1703   3.944   5.646  10.009 -0.1304 -0.1443 -0.3746
   24CHL1    H3 1704   4.019   5.728  10.011 -1.2191  0.8794 -0.2865
   24CHL1    O3 1705   3.932   5.618  10.148 -0.5245  0.5052  0.2451
   24CHL1   H3' 1706   3.952   5.705  10.184  0.8327  0.1908  0.2819
   24CHL1    C4 1707   3.819   5.717   9.967  0.4380 -0.3158 -0.7847
   24CHL1   H4A 1708   3.728   5.655   9.986 -2.2528  3.3132 -0.8177
   24CHL1   H4B 1709   3.791   5.798  10.037 -1.3767  0.2522 -2.1027
   24CHL1    C5 1710   3.821   5.756   9.818 -0.3090 -0.1454  0.5588
   24CHL1    C6 1711   3.787   5.884   9.769  0.1205  0.8969 -0.0108
   24CHL1    H6 1712   3.760   5.961   9.843 -1.4287  0.7438 -0.3776
   24CHL1    C7 1713   3.794   5.927   9.622  0.7321 -0.1169 -0.1638
   24CHL1   H7A 1714   3.709   5.991   9.590  1.6771  0.8639 -0.7619
   24CHL1   H7B 1715   3.874   6.002   9.606  1.2411 -0.6439 -0.1123
   24CHL1    C8 1716   3.807   5.813   9.526  0.1620  0.3104 -0.4567
   24CHL1    H8 1717   3.705   5.776   9.501  0.4826 -1.1764  0.3713
   24CHL1   C14 1718   3.858   5.866   9.394  0.2786  0.4378 -0.5770
   24CHL1   H14 1719   3.957   5.907   9.423  0.3953 -1.3874  1.9034
   24CHL1   C15 1720   3.776   5.984   9.332  0.4611  0.8820  0.1365
   24CHL1  H15A 1721   3.669   5.956   9.341  0.9324 -1.2051 -0.2882
   24CHL1  H15B 1722   3.784   6.081   9.387  0.0202  0.3741  1.1190
   24CHL1   C16 1723   3.815   5.985   9.183 -0.5280  0.1435  0.3421
   24CHL1  H16A 1724   3.730   5.959   9.117 -0.3574 -1.1384  0.5883
   24CHL1  H16B 1725   3.868   6.079   9.157  1.0798 -0.5574  0.9672
   24CHL1   C17 1726   3.911   5.853   9.161 -0.4871  0.6784  0.3001
   24CHL1   H17 1727   4.012   5.892   9.186  0.1480 -1.0847  0.6220
   24CHL1   C13 1728   3.870   5.764   9.285 -0.3079  0.6607  0.5224
   24CHL1   C18 1729   3.733   5.693   9.254 -0.0956 -0.1300 -0.2500
   24CHL1  H18A 1730   3.693   5.653   9.349 -0.8139 -0.9610 -0.8785
   24CHL1  H18B 1731   3.658   5.768   9.221 -1.7606 -0.4635  2.4771
   24CHL1  H18C 1732   3.737   5.598   9.195 -2.1786 -1.2434  1.2688
   24CHL1   C12 1733   3.972   5.664   9.332 -0.7692  0.2247  0.0969
   24CHL1  H12A 1734   3.989   5.579   9.263 -1.5188  1.1533 -1.2853
   24CHL1  H12B 1735   4.070   5.715   9.345  1.5338 -2.8050 -3.4494
   24CHL1   C11 1736   3.927   5.598   9.466  0.8064  0.2700  0.0386
   24CHL1  H11A 1737   3.838   5.541   9.431  1.4204 -0.5930 -0.1326
   24CHL1  H11B 1738   4.009   5.531   9.498 -1.4211 -2.6476  0.0291
   24CHL1    C9 1739   3.897   5.701   9.579  0.2431 -0.4943 -0.1174
   24CHL1    H9 1740   3.997   5.747   9.583  1.1491 -1.8610 -3.4744
   24CHL1   C10 1741   3.868   5.641   9.720 -0.6596  0.5210 -0.0458
   24CHL1   C19 1742   3.754   5.547   9.707 -0.0522  0.2599  0.2462
   24CHL1  H19A 1743   3.706   5.522   9.804  0.0755  1.2438  0.5851
   24CHL1  H19B 1744   3.680   5.597   9.640 -2.3336 -0.2426  2.2179
   24CHL1  H19C 1745   3.784   5.447   9.671  1.7538  0.7381  0.3493
   24CHL1    C1 1746   3.984   5.559   9.771 -0.0774  0.3936 -0.7068
   24CHL1   H1A 1747   4.002   5.460   9.722 -0.0403 -0.3781  0.8140
   24CHL1   H1B 1748   4.078   5.617   9.756  0.3360  0.3960  1.5880
   24CHL1    C2 1749   3.973   5.527   9.924  0.4111 -0.4817 -0.6090
   24CHL1   H2A 1750   4.073   5.484   9.947 -0.4690 -1.8721  0.8263
   24CHL1   H2B 1751   3.901   5.444   9.940  0.3201 -0.3813 -0.4965
   24CHL1   C20 1752   3.910   5.793   9.012 -0.1757  0.3084  0.2281
   24CHL1   H20 1753   3.805   5.787   8.977  0.0914 -0.6762 -0.4544
   24CHL1   C21 1754   3.981   5.658   9.001 -0.2370 -0.7270  0.0654
   24CHL1  H21A 1755   4.086   5.667   9.039  0.0884  0.7115 -1.0991
   24CHL1  H21B 1756   3.992   5.626   8.895 -1.1076  0.4150 -0.3793
   24CHL1  H21C 1757   3.927   5.577   9.055 -2.3474  0.8713  0.4599
   24CHL1   C22 1758   3.974   5.894   8.919  0.2031  0.9065  0.1782
   24CHL1  H22A 1759   3.940   5.999   8.936 -0.9843  1.1175 -2.8146
   24CHL1  H22B 1760   4.083   5.890   8.942  0.1065 -0.9475  0.4411
   24CHL1   C23 1761   3.947   5.874   8.766 -0.0263  0.1259  0.0825
   24CHL1  H23A 1762   3.964   5.769   8.736 -1.3715 -0.5446  1.4702
   24CHL1  H23B 1763   3.836   5.882   8.763 -0.0802 -0.7322 -1.8352
   24CHL1   C24 1764   4.015   5.987   8.688 -0.3103 -0.3580 -0.2051
   24CHL1  H24A 1765   3.970   6.079   8.730  0.9759 -0.3654  1.2806
   24CHL1  H24B 1766   4.121   5.985   8.724 -0.4477 -0.9501  0.1930
   24CHL1   C25 1767   4.007   5.981   8.538 -0.3100 -0.0275  0.2350
   24CHL1   H25 1768   3.898   5.979   8.513 -0.3041 -0.9183  0.2421
   24CHL1   C26 1769   4.060   6.113   8.474 -0.2836  0.3959 -0.1850
   24CHL1  H26A 1770   4.027   6.206   8.524 -1.5512 -1.0323  1.7881
   24CHL1  H26B 1771   4.170   6.112   8.493 -0.1962  1.0424 -0.6468
   24CHL1  H26C 1772   4.043   6.108   8.365 -2.2728 -1.8746  0.1476
   24CHL1   C27 1773   4.083   5.862   8.480  0.1566  0.6974  0.4513
   24CHL1  H27A 1774   4.188   5.890   8.501  0.0907  1.8807 -0.6564
   24CHL1  H27B 1775   4.052   5.762   8.517 -0.5858  1.0395  0.7895
   24CHL1  H27C 1776   4.063   5.865   8.371  0.5678  0.3607  0.3650
   25CHL1    C3 1777   4.458   0.552  10.207  0.2113  1.0592  0.1122
   25CHL1    H3 1778   4.566   0.530  10.202 -0.6291 -4.3113 -4.4895
   25CHL1    O3 1779   4.408   0.551  10.344 -0.1097  0.0672 -0.1507
   25CHL1   H3' 1780   4.431   0.466  10.383  0.2589  0.0282 -0.4525
   25CHL1    C4 1781   4.409   0.673  10.133 -0.0257 -0.1221  0.5367
   25CHL1   H4A 1782   4.298   0.680  10.130 -0.0677 -0.5973  0.9401
   25CHL1   H4B 1783   4.440   0.771  10.174 -2.7347  1.0690 -0.0227
   25CHL1    C5 1784   4.451   0.675   9.982  0.0434 -0.4782  0.2147
   25CHL1    C6 1785   4.531   0.763   9.928  0.2904  0.3609 -0.3271
   25CHL1    H6 1786   4.573   0.835  10.000  1.5749 -0.6303 -0.0448
   25CHL1    C7 1787   4.578   0.766   9.790 -0.1260  0.3272 -0.4453
   25CHL1   H7A 1788   4.581   0.867   9.744  1.8827  1.2113  1.4340
   25CHL1   H7B 1789   4.678   0.719   9.785 -0.3713 -0.6888  2.3606
   25CHL1    C8 1790   4.491   0.678   9.699 -0.2276 -0.1070  0.4153
   25CHL1    H8 1791   4.395   0.722   9.666 -0.5905 -3.0914 -3.2482
   25CHL1   C14 1792   4.570   0.651   9.574 -0.6081 -0.2427  0.4127
   25CHL1   H14 1793   4.662   0.590   9.595  0.2087  0.8604  0.0992
   25CHL1   C15 1794   4.622   0.777   9.504 -0.1862 -0.2250  0.3638
   25CHL1  H15A 1795   4.537   0.847   9.517 -0.5562 -0.7843  1.0455
   25CHL1  H15B 1796   4.718   0.813   9.548 -0.8097  0.9461  0.8040
   25CHL1   C16 1797   4.647   0.730   9.359 -0.2681  0.8777  0.0803
   25CHL1  H16A 1798   4.595   0.800   9.290  0.2694  1.3047  0.0936
   25CHL1  H16B 1799   4.758   0.734   9.351 -0.0715  2.7035  2.3907
   25CHL1   C17 1800   4.595   0.583   9.348  0.1257  0.5502  0.4235
   25CHL1   H17 1801   4.681   0.515   9.363  0.4946  0.8870 -0.1400
   25CHL1   C13 1802   4.493   0.572   9.469 -0.1760  0.8847  0.0141
   25CHL1   C18 1803   4.366   0.651   9.424  1.0725 -0.1225 -0.1585
   25CHL1  H18A 1804   4.395   0.741   9.366 -0.4197  1.5794  1.5544
   25CHL1  H18B 1805   4.311   0.585   9.354 -1.7034  2.5722 -0.7468
   25CHL1  H18C 1806   4.296   0.677   9.506  0.4022 -0.9035 -0.4685
   25CHL1   C12 1807   4.465   0.436   9.534 -0.5840 -0.0051 -0.2829
   25CHL1  H12A 1808   4.403   0.372   9.467 -0.4902  1.1524 -1.5087
   25CHL1  H12B 1809   4.562   0.382   9.529 -0.8605 -0.3931 -2.8746
   25CHL1   C11 1810   4.397   0.437   9.672 -0.7020 -0.2266 -1.1089
   25CHL1  H11A 1811   4.287   0.453   9.665 -1.0250  0.7769  3.5059
   25CHL1  H11B 1812   4.402   0.338   9.721  1.8673 -0.0724 -0.9360
   25CHL1    C9 1813   4.464   0.539   9.768  0.1410 -0.4115  0.2210
   25CHL1    H9 1814   4.570   0.506   9.780  0.4112  0.4574  0.3539
   25CHL1   C10 1815   4.396   0.555   9.902  0.3534 -0.4005 -0.1541
   25CHL1   C19 1816   4.244   0.565   9.884  0.5090  0.0383 -0.2196
   25CHL1  H19A 1817   4.198   0.605   9.976  0.9153  0.7980 -0.3340
   25CHL1  H19B 1818   4.222   0.626   9.794  0.7517 -1.3539 -1.2610
   25CHL1  H19C 1819   4.199   0.464   9.870  0.4901 -0.0599  0.5348
   25CHL1    C1 1820   4.427   0.431   9.992 -0.7427  0.2673 -0.3302
   25CHL1   H1A 1821   4.377   0.340   9.951  1.0394 -0.3677 -1.1933
   25CHL1   H1B 1822   4.537   0.415   9.992 -0.6758  0.6876  0.2760
   25CHL1    C2 1823   4.387   0.438  10.141 -1.2256 -0.2889  0.6965
   25CHL1   H2A 1824   4.420   0.343  10.188  0.5006 -0.0353  0.0769
   25CHL1   H2B 1825   4.276   0.446  10.137 -1.2542 -0.5256 -3.2574
   25CHL1   C20 1826   4.555   0.542   9.208 -0.2399  0.2342  0.5159
   25CHL1   H20 1827   4.460   0.600   9.193 -1.2594 -1.5215 -0.1185
   25CHL1   C21 1828   4.506   0.391   9.196  0.4826 -1.0501  0.2535
   25CHL1  H21A 1829   4.510   0.358   9.090 -1.4977 -1.5281  0.2899
   25CHL1  H21B 1830   4.398   0.393   9.223  0.1427 -1.0739 -1.0069
   25CHL1  H21C 1831   4.561   0.329   9.270 -0.4203 -1.3447  0.6902
   25CHL1   C22 1832   4.653   0.581   9.101  0.2461  0.2063 -0.1333
   25CHL1  H22A 1833   4.713   0.671   9.127 -1.1775  1.3076 -0.5314
   25CHL1  H22B 1834   4.729   0.502   9.081 -0.6326 -0.5233 -0.6420
   25CHL1   C23 1835   4.584   0.601   8.970 -0.1832 -0.2067  0.9689
   25CHL1  H23A 1836   4.527   0.510   8.941  0.0189  0.2623 -1.1231
   25CHL1  H23B 1837   4.515   0.687   8.984  1.0422  0.7308  1.4835
   25CHL1   C24 1838   4.668   0.625   8.839  0.0594  0.0878 -0.2592
   25CHL1  H24A 1839   4.723   0.718   8.860  0.9214 -0.8902  2.1688
   25CHL1  H24B 1840   4.740   0.543   8.821  2.7525  2.4445 -0.8114
   25CHL1   C25 1841   4.586   0.625   8.709 -0.5512 -0.5787 -0.3293
   25CHL1   H25 1842   4.541   0.523   8.704 -1.5001 -0.4050  2.8510
   25CHL1   C26 1843   4.477   0.722   8.695  0.0236  0.3660 -0.2875
   25CHL1  H26A 1844   4.417   0.699   8.605 -0.2501  1.9129 -0.5363
   25CHL1  H26B 1845   4.404   0.707   8.778  0.4892  1.3380  0.3193
   25CHL1  H26C 1846   4.509   0.829   8.689  2.5250 -0.1123  2.3315
   25CHL1   C27 1847   4.684   0.645   8.593 -0.3395 -0.0331  0.8317
   25CHL1  H27A 1848   4.633   0.656   8.495 -0.8883  1.9815  1.2901
   25CHL1  H27B 1849   4.744   0.738   8.606 -0.4256  0.0223  0.8319
   25CHL1  H27C 1850   4.761   0.566   8.578  1.6721  2.1632 -1.5124
   26CHL1    C3 1851   6.636   4.874  10.065 -0.3204 -0.1824  0.8963
   26CHL1    H3 1852   6.539   4.900  10.019  0.2232  1.3229  0.5371
   26CHL1    O3 1853   6.620   4.857  10.205 -0.2089 -0.3440 -0.0970
   26CHL1   H3' 1854   6.698   4.817  10.244 -1.0358  0.4111  2.5447
   26CHL1    C4 1855   6.694   4.736  10.024 -0.5285 -0.4740 -0.1441
   26CHL1   H4A 1856   6.792   4.718  10.073  0.5828  1.2683 -1.6189
   26CHL1   H4B 1857   6.611   4.665  10.045 -2.8228  1.6453 -1.5732
   26CHL1    C5 1858   6.722   4.742   9.871  0.2104 -0.5412  0.1446
   26CHL1    C6 1859   6.669   4.645   9.795 -0.7080  0.0743  0.6699
   26CHL1    H6 1860   6.607   4.566   9.839 -0.6661  0.5131  1.5487
   26CHL1    C7 1861   6.695   4.642   9.644 -0.3135 -0.0171  0.1418
   26CHL1   H7A 1862   6.717   4.537   9.617  1.6054 -0.3340  2.5222
   26CHL1   H7B 1863   6.603   4.664   9.586 -1.1594 -1.7231  0.7649
   26CHL1    C8 1864   6.812   4.736   9.597  0.2262  0.3343  0.7578
   26CHL1    H8 1865   6.905   4.677   9.606 -0.5122 -0.6478  2.3806
   26CHL1   C14 1866   6.803   4.759   9.447  0.6709 -0.0440  0.6848
   26CHL1   H14 1867   6.706   4.813   9.436  0.6151 -0.3516 -0.5678
   26CHL1   C15 1868   6.786   4.639   9.347  0.4026  0.3054  0.1016
   26CHL1  H15A 1869   6.862   4.564   9.377  0.7896  0.7890  0.3408
   26CHL1  H15B 1870   6.684   4.597   9.360  1.2832 -2.3269 -0.7999
   26CHL1   C16 1871   6.827   4.697   9.210  0.9809 -0.3137  0.7638
   26CHL1  H16A 1872   6.916   4.641   9.173  1.3195  0.6763  0.0170
   26CHL1  H16B 1873   6.747   4.702   9.133  1.1917  1.0335  0.6071
   26CHL1   C17 1874   6.873   4.845   9.247 -0.5248 -1.3644 -0.0931
   26CHL1   H17 1875   6.784   4.909   9.230  0.8881  0.1403 -2.3920
   26CHL1   C13 1876   6.910   4.848   9.392 -0.1028  0.8741  0.1992
   26CHL1   C18 1877   7.050   4.784   9.411  0.4868  0.3373  0.3752
   26CHL1  H18A 1878   7.135   4.854   9.399  2.4108 -1.3916  2.9539
   26CHL1  H18B 1879   7.070   4.747   9.513  1.8522 -1.7838 -0.6019
   26CHL1  H18C 1880   7.061   4.700   9.339  3.4713  1.7051 -0.9322
   26CHL1   C12 1881   6.898   4.985   9.465  0.1333 -0.3030  0.2214
   26CHL1  H12A 1882   6.977   5.055   9.432 -0.2594 -0.4152 -0.9997
   26CHL1  H12B 1883   6.797   5.026   9.443 -0.4961 -2.1180 -0.4746
   26CHL1   C11 1884   6.898   4.971   9.616  0.1030  0.4956  0.0624
   26CHL1  H11A 1885   7.004   4.946   9.641 -0.1944 -1.5266 -0.4559
   26CHL1  H11B 1886   6.868   5.073   9.647  3.0326  2.2453 -2.2217
   26CHL1    C9 1887   6.806   4.871   9.670 -0.3804 -0.2254  0.8313
   26CHL1    H9 1888   6.704   4.903   9.639  0.4407  0.6093 -1.1635
   26CHL1   C10 1889   6.815   4.861   9.824 -0.0025  0.5842  0.7349
   26CHL1   C19 1890   6.957   4.822   9.873 -0.1345 -0.0910  0.5414
   26CHL1  H19A 1891   6.981   4.726   9.823 -0.8006 -0.2232  0.4683
   26CHL1  H19B 1892   7.035   4.900   9.863  0.1144 -0.4089  0.0024
   26CHL1  H19C 1893   6.954   4.788   9.979  0.8115 -1.4602  0.1602
   26CHL1    C1 1894   6.769   4.997   9.887 -0.2048  0.0413 -0.6490
   26CHL1   H1A 1895   6.847   5.075   9.876  1.8271 -1.8939 -0.7014
   26CHL1   H1B 1896   6.676   5.028   9.835 -0.6781  0.5257  0.4421
   26CHL1    C2 1897   6.742   4.990  10.037  0.5597  0.8296 -0.4050
   26CHL1   H2A 1898   6.705   5.084  10.083  0.6941  0.8916 -0.4227
   26CHL1   H2B 1899   6.833   4.969  10.097  0.8920 -0.1980 -1.2423
   26CHL1   C20 1900   6.981   4.908   9.159  0.2714  0.5346 -0.3750
   26CHL1   H20 1901   7.077   4.909   9.214  0.0809  0.2989 -0.0318
   26CHL1   C21 1902   6.935   5.060   9.139  0.1469 -0.2517  0.6186
   26CHL1  H21A 1903   6.936   5.112   9.238 -1.7625  0.9907  0.0453
   26CHL1  H21B 1904   6.837   5.073   9.088  0.0800  2.4568  1.2874
   26CHL1  H21C 1905   7.018   5.099   9.076  1.1048 -1.1224  1.2990
   26CHL1   C22 1906   7.023   4.833   9.029  0.7523 -0.7633 -0.1630
   26CHL1  H22A 1907   7.059   4.731   9.052  1.1884 -0.6093 -0.1520
   26CHL1  H22B 1908   6.928   4.822   8.972  2.3312  0.0003 -3.1343
   26CHL1   C23 1909   7.127   4.907   8.949  0.0109  0.0682  0.1028
   26CHL1  H23A 1910   7.076   4.992   8.897  0.1055 -0.3231 -0.6494
   26CHL1  H23B 1911   7.206   4.950   9.014 -0.6730  0.4529  0.6943
   26CHL1   C24 1912   7.190   4.833   8.830  0.0028 -1.0404  0.1293
   26CHL1  H24A 1913   7.098   4.824   8.768  0.3020  0.9853 -0.6977
   26CHL1  H24B 1914   7.265   4.893   8.774 -1.0277  1.7726  1.5754
   26CHL1   C25 1915   7.242   4.689   8.853 -0.7936 -0.1502  0.2569
   26CHL1   H25 1916   7.163   4.630   8.904  0.3235  0.9367  3.5613
   26CHL1   C26 1917   7.274   4.610   8.726 -0.2735 -0.5103 -0.3329
   26CHL1  H26A 1918   7.356   4.669   8.679  0.6056 -0.1854  1.5118
   26CHL1  H26B 1919   7.294   4.506   8.760  0.6016  0.4674  2.3946
   26CHL1  H26C 1920   7.179   4.602   8.670  0.7072 -1.6740 -1.9120
   26CHL1   C27 1921   7.367   4.689   8.941  0.7430  0.1046 -0.0600
   26CHL1  H27A 1922   7.458   4.735   8.895  0.9673 -0.3628 -0.0910
   26CHL1  H27B 1923   7.340   4.748   9.031 -2.6000 -1.7582  0.3066
   26CHL1  H27C 1924   7.396   4.586   8.971 -0.8510 -0.2945  0.2081
   27CHL1    C3 1925   4.109   1.661  10.346  0.0841  0.2321 -0.0968
   27CHL1    H3 1926   4.141   1.767  10.345 -0.3848  0.4231  1.9055
   27CHL1    O3 1927   4.064   1.624  10.479  0.4507 -0.2227 -0.3156
   27CHL1   H3' 1928   4.002   1.553  10.463 -0.4475  0.6920 -1.0071
   27CHL1    C4 1929   3.995   1.647  10.246 -0.2893 -0.5374 -0.1884
   27CHL1   H4A 1930   3.957   1.543  10.259 -2.6404  0.4088  1.3300
   27CHL1   H4B 1931   3.908   1.707  10.280 -1.2929 -1.7475 -0.5609
   27CHL1    C5 1932   4.044   1.688  10.110 -0.0531  0.4642  0.1161
   27CHL1    C6 1933   3.990   1.784  10.039  0.1655 -0.2726 -0.2812
   27CHL1    H6 1934   3.913   1.849  10.084  0.6996  0.0598  0.1487
   27CHL1    C7 1935   4.016   1.813   9.890 -0.9273  0.1706 -0.2002
   27CHL1   H7A 1936   3.922   1.811   9.830 -0.4541 -1.5664 -0.9524
   27CHL1   H7B 1937   4.071   1.908   9.872  0.3503 -0.4486  0.3644
   27CHL1    C8 1938   4.112   1.704   9.830 -0.0670 -0.5149 -0.7444
   27CHL1    H8 1939   4.049   1.613   9.819 -1.5196  0.4097 -0.3700
   27CHL1   C14 1940   4.165   1.744   9.693 -0.1419 -0.4782 -0.0458
   27CHL1   H14 1941   4.224   1.837   9.707  0.4086 -0.9269  0.6484
   27CHL1   C15 1942   4.053   1.780   9.599 -0.0506 -0.7763 -0.0610
   27CHL1  H15A 1943   3.969   1.709   9.611 -0.2321 -1.2942 -3.5080
   27CHL1  H15B 1944   4.017   1.882   9.627  2.5848 -0.7422  4.0670
   27CHL1   C16 1945   4.131   1.765   9.466 -0.0366 -0.3645 -0.8359
   27CHL1  H16A 1946   4.072   1.699   9.398 -0.5405  1.5328 -2.3134
   27CHL1  H16B 1947   4.153   1.860   9.413 -1.1492  0.5406  0.2607
   27CHL1   C17 1948   4.273   1.717   9.497 -0.4235  0.1548  0.1974
   27CHL1   H17 1949   4.333   1.809   9.519 -0.7980  0.5633 -0.4512
   27CHL1   C13 1950   4.256   1.645   9.629 -0.0857  0.6636 -0.1959
   27CHL1   C18 1951   4.182   1.517   9.608 -0.5239  0.5339  0.5213
   27CHL1  H18A 1952   4.079   1.528   9.568  0.3496  2.2937 -1.3963
   27CHL1  H18B 1953   4.233   1.449   9.536 -1.3287  2.8361 -2.4169
   27CHL1  H18C 1954   4.158   1.476   9.709 -2.4081  0.0105 -0.1036
   27CHL1   C12 1955   4.373   1.639   9.722  0.1076 -0.3748 -0.0405
   27CHL1  H12A 1956   4.442   1.557   9.691  0.3328 -0.3458  0.3830
   27CHL1  H12B 1957   4.412   1.743   9.720 -2.2240  0.5504 -1.0577
   27CHL1   C11 1958   4.331   1.586   9.861  0.0831 -0.8236 -0.6083
   27CHL1  H11A 1959   4.305   1.479   9.841  0.0951 -0.8869 -0.2848
   27CHL1  H11B 1960   4.417   1.585   9.931  0.1113  2.6233 -0.4521
   27CHL1    C9 1961   4.221   1.666   9.935 -0.1024 -0.0520  0.4525
   27CHL1    H9 1962   4.272   1.760   9.966  0.8554 -0.6063  0.5845
   27CHL1   C10 1963   4.171   1.606  10.063  0.2770  0.4154 -0.2211
   27CHL1   C19 1964   4.151   1.456  10.028 -0.7119 -0.5921  0.0549
   27CHL1  H19A 1965   4.243   1.397  10.009  0.4565 -0.0191  3.3628
   27CHL1  H19B 1966   4.103   1.405  10.114 -0.7442 -1.3467 -0.4041
   27CHL1  H19C 1967   4.076   1.454   9.946  0.2084  1.3064 -0.9133
   27CHL1    C1 1968   4.275   1.598  10.177 -0.1560  0.0918  0.6662
   27CHL1   H1A 1969   4.347   1.519  10.146  2.3011  1.5752  2.2512
   27CHL1   H1B 1970   4.337   1.688  10.193  1.4823 -0.9000  0.1074
   27CHL1    C2 1971   4.219   1.564  10.316  0.5368  0.0683 -0.2205
   27CHL1   H2A 1972   4.306   1.569  10.384  0.7295 -3.5850  0.0338
   27CHL1   H2B 1973   4.189   1.457  10.324  2.9731 -0.7437 -1.0510
   27CHL1   C20 1974   4.337   1.644   9.381  0.5210 -0.5231  0.0061
   27CHL1   H20 1975   4.304   1.538   9.381  1.1798 -0.7357 -0.1053
   27CHL1   C21 1976   4.488   1.640   9.400 -0.3509 -0.3948  0.4030
   27CHL1  H21A 1977   4.536   1.550   9.356  0.9427  0.7285 -0.5426
   27CHL1  H21B 1978   4.516   1.653   9.507 -0.2398  2.1854  0.1335
   27CHL1  H21C 1979   4.536   1.731   9.358 -3.6655  2.1103  1.5380
   27CHL1   C22 1980   4.301   1.709   9.248 -0.4957 -0.5403  0.0458
   27CHL1  H22A 1981   4.192   1.704   9.225 -0.3959 -1.1736 -0.3166
   27CHL1  H22B 1982   4.335   1.815   9.245 -1.3028 -0.2916 -0.9949
   27CHL1   C23 1983   4.353   1.640   9.121 -0.6449  0.6383 -0.0264
   27CHL1  H23A 1984   4.463   1.624   9.132 -0.3114  2.5540 -0.1436
   27CHL1  H23B 1985   4.292   1.548   9.110 -1.1490  0.8892  0.5617
   27CHL1   C24 1986   4.351   1.735   9.005 -0.1812 -0.2854 -0.3388
   27CHL1  H24A 1987   4.246   1.751   8.972  0.0742  1.8799 -0.2509
   27CHL1  H24B 1988   4.400   1.823   9.052  0.9054 -1.9161  1.7942
   27CHL1   C25 1989   4.428   1.684   8.883 -0.3201 -0.0919 -0.0410
   27CHL1   H25 1990   4.531   1.655   8.911 -0.0947 -0.6780 -1.3863
   27CHL1   C26 1991   4.373   1.548   8.820  0.1503 -0.2268 -0.1328
   27CHL1  H26A 1992   4.343   1.484   8.906  0.1390  3.7354  3.1552
   27CHL1  H26B 1993   4.279   1.565   8.764 -1.4578  0.0715  2.4935
   27CHL1  H26C 1994   4.454   1.505   8.757 -0.5664 -1.9831  0.0978
   27CHL1   C27 1995   4.423   1.792   8.767 -0.2323 -0.3679  0.8015
   27CHL1  H27A 1996   4.453   1.893   8.802 -1.6057  0.9485 -1.5469
   27CHL1  H27B 1997   4.485   1.760   8.680 -1.5175  0.6116 -0.5229
   27CHL1  H27C 1998   4.319   1.797   8.728  0.4356 -0.8916 -1.1720
   28CHL1    C3 1999   5.526   0.126  10.013 -0.4957 -0.2107 -0.2183
   28CHL1    H3 2000   5.447   0.049   9.996 -0.8597 -0.2427  1.4462
   28CHL1    O3 2001   5.552   0.155  10.151  0.1191  0.4248  0.1765
   28CHL1   H3' 2002   5.630   0.210  10.148 -0.1040  0.7011 -1.3652
   28CHL1    C4 2003   5.662   0.088   9.948  0.3753  1.0479 -0.2711
   28CHL1   H4A 2004   5.740   0.164   9.967  1.6199 -0.2962  0.2048
   28CHL1   H4B 2005   5.709  -0.000   9.997  0.6812  1.9882  1.1864
   28CHL1    C5 2006   5.653   0.061   9.802 -0.3748 -0.0708 -0.0112
   28CHL1    C6 2007   5.677  -0.060   9.756  0.2098  0.1264  0.1692
   28CHL1    H6 2008   5.725  -0.138   9.817 -2.9961 -2.2444 -0.0852
   28CHL1    C7 2009   5.677  -0.089   9.612 -0.4342  0.2159 -0.4399
   28CHL1   H7A 2010   5.766  -0.149   9.583 -1.1192 -2.2421  2.0752
   28CHL1   H7B 2011   5.587  -0.151   9.592 -0.7651  1.1939 -2.0605
   28CHL1    C8 2012   5.657   0.038   9.520 -0.1992 -0.5247  0.0566
   28CHL1    H8 2013   5.754   0.092   9.507  0.4224 -1.3288  1.1473
   28CHL1   C14 2014   5.612  -0.001   9.380  0.4110  0.2479 -0.0802
   28CHL1   H14 2015   5.518  -0.060   9.390 -1.1772  2.6509 -0.0422
   28CHL1   C15 2016   5.708  -0.103   9.305  0.2690 -0.0560  0.2122
   28CHL1  H15A 2017   5.812  -0.072   9.327  0.8242 -1.6360 -0.1049
   28CHL1  H15B 2018   5.689  -0.207   9.337  0.9271 -0.1833  0.1851
   28CHL1   C16 2019   5.669  -0.082   9.158 -0.4873 -0.1998 -0.3891
   28CHL1  H16A 2020   5.762  -0.055   9.105 -0.0478 -1.9856 -0.5828
   28CHL1  H16B 2021   5.630  -0.176   9.113  2.3947 -0.9970 -1.3974
   28CHL1   C17 2022   5.564   0.033   9.147  0.0185 -0.0709  0.0970
   28CHL1   H17 2023   5.464  -0.014   9.159 -0.8377  1.0933 -1.8638
   28CHL1   C13 2024   5.578   0.110   9.280  0.1086 -0.0873  0.1704
   28CHL1   C18 2025   5.709   0.188   9.256  0.2954  0.6647 -1.1123
   28CHL1  H18A 2026   5.694   0.284   9.202 -0.1799  1.6003  0.6095
   28CHL1  H18B 2027   5.752   0.215   9.354 -1.0406 -0.1814 -0.2662
   28CHL1  H18C 2028   5.793   0.130   9.211  0.7825 -0.0823  0.6719
   28CHL1   C12 2029   5.466   0.198   9.334  0.0177 -0.0489  0.2161
   28CHL1  H12A 2030   5.436   0.288   9.276 -2.3188  1.6064  3.6195
   28CHL1  H12B 2031   5.381   0.127   9.333  0.8475 -1.4762  5.3303
   28CHL1   C11 2032   5.498   0.239   9.479 -0.1317 -0.9561  0.4995
   28CHL1  H11A 2033   5.577   0.317   9.471  0.5645 -1.6729  0.1249
   28CHL1  H11B 2034   5.408   0.290   9.520  1.3237  0.3473  2.2554
   28CHL1    C9 2035   5.551   0.130   9.574  0.5522 -0.7154  0.1900
   28CHL1    H9 2036   5.462   0.066   9.590  0.8298 -1.0793  0.2933
   28CHL1   C10 2037   5.585   0.176   9.721 -0.0453 -0.0421 -0.3795
   28CHL1   C19 2038   5.692   0.285   9.715 -0.0317 -0.0878  0.0681
   28CHL1  H19A 2039   5.709   0.317   9.820  1.4177  1.7869 -0.6747
   28CHL1  H19B 2040   5.790   0.260   9.670 -0.4351 -2.2692  0.2867
   28CHL1  H19C 2041   5.647   0.371   9.661  0.1063 -0.7119 -1.0581
   28CHL1    C1 2042   5.460   0.227   9.792 -0.1059 -0.1580  0.2616
   28CHL1   H1A 2043   5.433   0.307   9.720  1.7631  0.7557  0.5079
   28CHL1   H1B 2044   5.397   0.136   9.786  2.2691 -1.8719 -0.4470
   28CHL1    C2 2045   5.468   0.251   9.944  0.3645  0.6079 -0.1314
   28CHL1   H2A 2046   5.366   0.271   9.982 -0.0051 -1.0724 -0.1592
   28CHL1   H2B 2047   5.538   0.336   9.956  0.7269  0.3260 -0.2253
   28CHL1   C20 2048   5.568   0.110   9.013 -0.5609  1.1751  0.3133
   28CHL1   H20 2049   5.649   0.185   9.001  1.3349 -0.8152 -0.0015
   28CHL1   C21 2050   5.433   0.178   9.007 -0.1006 -0.5598 -0.1075
   28CHL1  H21A 2051   5.431   0.227   8.907  0.2751 -0.6750 -0.1697
   28CHL1  H21B 2052   5.420   0.264   9.076 -0.8163 -1.5182  0.9868
   28CHL1  H21C 2053   5.353   0.102   9.016  0.6498 -1.6838 -2.1882
   28CHL1   C22 2054   5.590   0.013   8.890  0.2811 -0.2469  0.7149
   28CHL1  H22A 2055   5.692  -0.027   8.906  0.5147 -0.2346 -0.6173
   28CHL1  H22B 2056   5.514  -0.068   8.882 -0.0587 -0.1358  2.4591
   28CHL1   C23 2057   5.600   0.079   8.752  0.6860  0.1242 -0.2571
   28CHL1  H23A 2058   5.503   0.130   8.733  0.4332 -0.6186 -1.0288
   28CHL1  H23B 2059   5.676   0.161   8.749 -0.8339  1.6082 -3.2596
   28CHL1   C24 2060   5.645  -0.019   8.645 -0.5279  0.3065 -0.5621
   28CHL1  H24A 2061   5.746  -0.066   8.651 -0.8960 -0.5496 -0.8747
   28CHL1  H24B 2062   5.587  -0.109   8.677 -0.8270  1.4752  2.5383
   28CHL1   C25 2063   5.600   0.011   8.495 -0.5609 -0.0835  0.2016
   28CHL1   H25 2064   5.497   0.052   8.498  1.3423  5.4834  2.2716
   28CHL1   C26 2065   5.697   0.115   8.429 -0.2428  0.0532 -0.7445
   28CHL1  H26A 2066   5.696   0.210   8.487  1.4282  0.7045 -1.7024
   28CHL1  H26B 2067   5.803   0.082   8.429 -0.1850  0.2249  0.3939
   28CHL1  H26C 2068   5.666   0.143   8.326  0.2541  2.4425 -0.2968
   28CHL1   C27 2069   5.604  -0.121   8.414 -0.2656 -0.0580 -0.5220
   28CHL1  H27A 2070   5.616  -0.115   8.304  0.0161 -1.0565 -0.5488
   28CHL1  H27B 2071   5.691  -0.178   8.452 -1.9703 -0.8321  2.5902
   28CHL1  H27C 2072   5.508  -0.173   8.434 -1.0916  0.9350 -1.7351
   29CHL1    C3 2073   3.696   3.967   6.535 -0.7509 -0.1969 -0.0650
   29CHL1    H3 2074   3.589   3.948   6.555 -0.7155 -0.6676 -0.3052
   29CHL1    O3 2075   3.730   3.945   6.401  0.0822 -0.8250  0.1929
   29CHL1   H3' 2076   3.825   3.950   6.414 -0.0093 -0.1421  0.6721
   29CHL1    C4 2077   3.747   4.105   6.589  0.2008 -0.0674 -0.2020
   29CHL1   H4A 2078   3.848   4.125   6.548  0.4424  1.2090  0.9676
   29CHL1   H4B 2079   3.676   4.175   6.541  0.1781 -0.3420 -0.5759
   29CHL1    C5 2080   3.750   4.117   6.743 -0.3255  0.7153  0.0493
   29CHL1    C6 2081   3.684   4.219   6.814  0.2698 -0.5099 -0.3614
   29CHL1    H6 2082   3.632   4.296   6.755  2.2552  0.3551 -1.0810
   29CHL1    C7 2083   3.685   4.236   6.961 -0.7262 -0.5749 -0.4002
   29CHL1   H7A 2084   3.711   4.341   6.986  2.3295 -0.5785 -2.8945
   29CHL1   H7B 2085   3.585   4.212   7.002 -0.3340  1.7688  2.2653
   29CHL1    C8 2086   3.792   4.141   7.027 -0.5874  0.6504 -0.0244
   29CHL1    H8 2087   3.894   4.179   7.003 -0.2371 -0.8791 -1.0891
   29CHL1   C14 2088   3.775   4.146   7.177 -0.1225 -0.2937 -0.2075
   29CHL1   H14 2089   3.670   4.127   7.207 -0.8057  1.4173 -1.4231
   29CHL1   C15 2090   3.789   4.282   7.236  0.1850 -0.1698  0.2857
   29CHL1  H15A 2091   3.873   4.350   7.209  0.2479 -0.1721  0.4715
   29CHL1  H15B 2092   3.695   4.339   7.220 -0.8453 -1.1137  2.5697
   29CHL1   C16 2093   3.788   4.249   7.389 -0.8768  0.3678  0.0300
   29CHL1  H16A 2094   3.879   4.290   7.438 -1.4720  0.4346  1.1143
   29CHL1  H16B 2095   3.702   4.289   7.447  0.7386  0.7748  2.2747
   29CHL1   C17 2096   3.802   4.094   7.395 -0.1467 -0.2687 -0.2113
   29CHL1   H17 2097   3.697   4.060   7.409 -0.1915  0.2276  0.7020
   29CHL1   C13 2098   3.856   4.052   7.256  0.5843 -0.2102  0.4086
   29CHL1   C18 2099   4.008   4.073   7.246 -0.0061 -0.4270  0.0779
   29CHL1  H18A 2100   4.032   4.061   7.138 -1.6252  1.1452 -0.5215
   29CHL1  H18B 2101   4.052   4.161   7.297  0.5180 -0.5490 -0.1548
   29CHL1  H18C 2102   4.067   3.988   7.285  0.5282 -0.0420  0.1160
   29CHL1   C12 2103   3.808   3.911   7.204  0.1567 -0.3855  0.4819
   29CHL1  H12A 2104   3.850   3.825   7.261  0.8922  1.0131  2.1739
   29CHL1  H12B 2105   3.698   3.908   7.219  0.2771  0.3111  1.6454
   29CHL1   C11 2106   3.849   3.894   7.057 -0.1573 -0.6020 -0.2008
   29CHL1  H11A 2107   3.959   3.901   7.044 -0.3617 -0.0670 -1.7828
   29CHL1  H11B 2108   3.834   3.789   7.022 -0.4990  0.0214 -1.9721
   29CHL1    C9 2109   3.774   3.999   6.973 -0.1211 -0.0130  0.1260
   29CHL1    H9 2110   3.668   3.968   6.982 -0.3812  0.5408 -0.8431
   29CHL1   C10 2111   3.816   3.997   6.823  0.6309  0.2711  0.2644
   29CHL1   C19 2112   3.966   4.009   6.803  0.0858  0.1315  0.6104
   29CHL1  H19A 2113   4.001   4.100   6.855 -0.4609  0.6627  0.0768
   29CHL1  H19B 2114   4.009   3.921   6.854 -0.7812 -1.7221 -1.6729
   29CHL1  H19C 2115   3.999   4.005   6.697  0.7744 -0.5524  0.8390
   29CHL1    C1 2116   3.754   3.869   6.759 -0.3540 -0.0808  0.1471
   29CHL1   H1A 2117   3.802   3.783   6.811 -0.3769  1.0185  2.0914
   29CHL1   H1B 2118   3.645   3.869   6.780 -0.7187 -3.1497 -1.3330
   29CHL1    C2 2119   3.774   3.858   6.606 -0.1033  0.0120  0.2960
   29CHL1   H2A 2120   3.747   3.755   6.572  0.4845  0.1390 -0.6177
   29CHL1   H2B 2121   3.884   3.860   6.587  0.2464 -0.2766  2.1334
   29CHL1   C20 2122   3.888   4.046   7.516 -0.4602  0.0032  0.3040
   29CHL1   H20 2123   3.993   4.079   7.501 -0.0157 -2.1351 -1.8367
   29CHL1   C21 2124   3.890   3.892   7.512  0.0604  1.0560  0.5324
   29CHL1  H21A 2125   3.789   3.862   7.479 -0.7487 -0.1979  3.7849
   29CHL1  H21B 2126   3.905   3.838   7.608  0.9716 -2.0609 -1.2271
   29CHL1  H21C 2127   3.964   3.853   7.439 -1.4575 -0.4807 -0.2438
   29CHL1   C22 2128   3.823   4.106   7.647 -0.2139  0.8498  0.4243
   29CHL1  H22A 2129   3.844   4.215   7.635 -2.3073  1.2663  0.0944
   29CHL1  H22B 2130   3.713   4.093   7.640  0.1001 -1.1797 -3.3381
   29CHL1   C23 2131   3.890   4.065   7.783  0.4975  0.2912 -0.0106
   29CHL1  H23A 2132   3.863   3.959   7.804  1.7154  0.0546  0.4621
   29CHL1  H23B 2133   4.001   4.065   7.772  0.4781 -0.9916 -0.3331
   29CHL1   C24 2134   3.850   4.163   7.899  0.9253 -0.2560  0.4382
   29CHL1  H24A 2135   3.868   4.264   7.855 -0.9920 -0.7716 -1.7295
   29CHL1  H24B 2136   3.739   4.159   7.901  0.9174 -1.7258 -0.8606
   29CHL1   C25 2137   3.912   4.134   8.027  0.0082  0.5673  0.0916
   29CHL1   H25 2138   4.012   4.181   8.015  0.3103  0.0735  0.6433
   29CHL1   C26 2139   3.836   4.212   8.138  0.5126 -0.2784  0.6705
   29CHL1  H26A 2140   3.867   4.194   8.243 -1.0761  0.6742  1.3467
   29CHL1  H26B 2141   3.845   4.322   8.124  4.4267 -0.6946 -1.6770
   29CHL1  H26C 2142   3.730   4.180   8.130  0.9825 -2.5697  2.6208
   29CHL1   C27 2143   3.927   3.987   8.064  0.8500 -0.3682 -0.4938
   29CHL1  H27A 2144   3.824   3.948   8.077  0.2940  0.6419 -1.6496
   29CHL1  H27B 2145   3.985   3.925   7.992  0.5405 -1.1908 -0.0432
   29CHL1  H27C 2146   3.973   3.994   8.165 -2.4868  3.9705  1.0176
   30CHL1    C3 2147   3.737   1.976   6.951  0.6327  0.4501  0.6770
   30CHL1    H3 2148   3.642   2.017   6.992  1.7759  3.4336  0.5576
   30CHL1    O3 2149   3.726   1.956   6.810 -0.2903  0.0491  0.2415
   30CHL1   H3' 2150   3.813   1.934   6.774 -0.6516  0.7820 -1.1391
   30CHL1    C4 2151   3.850   2.061   6.991 -1.7019  0.5811  0.0456
   30CHL1   H4A 2152   3.933   2.004   6.945 -3.1666 -1.2286 -0.5078
   30CHL1   H4B 2153   3.841   2.162   6.946 -0.8349  0.1732 -1.0739
   30CHL1    C5 2154   3.865   2.068   7.141 -1.3559  1.0869 -0.1907
   30CHL1    C6 2155   3.860   2.185   7.208 -0.4795 -0.2831 -0.4853
   30CHL1    H6 2156   3.853   2.278   7.149 -1.4633  0.6360  1.0132
   30CHL1    C7 2157   3.867   2.196   7.356 -0.3276  0.6613  0.2813
   30CHL1   H7A 2158   3.918   2.288   7.394  0.6709  0.1413  0.2227
   30CHL1   H7B 2159   3.759   2.203   7.382 -0.0067 -1.4292  2.5627
   30CHL1    C8 2160   3.921   2.066   7.426 -0.2881  0.0383  0.3313
   30CHL1    H8 2161   4.030   2.060   7.408 -0.6302  0.9079 -2.4307
   30CHL1   C14 2162   3.888   2.066   7.573 -0.6537  0.0956 -0.0810
   30CHL1   H14 2163   3.778   2.062   7.582 -0.6242 -0.3493  0.0821
   30CHL1   C15 2164   3.932   2.189   7.651  0.3106 -0.3031 -0.3138
   30CHL1  H15A 2165   4.035   2.225   7.632 -0.4308  1.5345 -1.1620
   30CHL1  H15B 2166   3.873   2.283   7.643  0.7242  0.2448  2.2450
   30CHL1   C16 2167   3.920   2.157   7.800 -0.2114 -0.6961 -0.4376
   30CHL1  H16A 2168   4.011   2.184   7.857  0.2060  1.4112 -1.9931
   30CHL1  H16B 2169   3.830   2.199   7.851  0.0739  0.2324 -0.6927
   30CHL1   C17 2170   3.914   1.999   7.792  0.7041  0.6497  0.4174
   30CHL1   H17 2171   3.804   1.982   7.798 -0.1423  2.6236 -4.6894
   30CHL1   C13 2172   3.940   1.949   7.646 -0.8856 -0.5268 -0.3716
   30CHL1   C18 2173   4.096   1.944   7.626  0.4319  1.0222  0.1048
   30CHL1  H18A 2174   4.155   2.013   7.689  2.0226 -0.8169  0.7438
   30CHL1  H18B 2175   4.124   1.847   7.674 -0.2928  0.4331 -0.6296
   30CHL1  H18C 2176   4.138   1.939   7.524 -2.1363  0.0945 -0.9995
   30CHL1   C12 2177   3.866   1.827   7.592  0.7686 -0.1425  0.1949
   30CHL1  H12A 2178   3.902   1.732   7.636 -0.3096 -0.0632  1.3192
   30CHL1  H12B 2179   3.758   1.833   7.619  0.1531  2.1459 -2.3215
   30CHL1   C11 2180   3.876   1.819   7.446 -0.2580 -0.1541 -0.1692
   30CHL1  H11A 2181   3.986   1.806   7.434 -0.1692  1.3101 -1.2219
   30CHL1  H11B 2182   3.816   1.737   7.400 -0.4692 -0.8422  1.2679
   30CHL1    C9 2183   3.849   1.945   7.368 -0.3031 -0.6192 -0.4708
   30CHL1    H9 2184   3.741   1.970   7.380 -0.2296 -0.4398 -0.1672
   30CHL1   C10 2185   3.875   1.929   7.217 -0.5026  0.0057  0.2654
   30CHL1   C19 2186   4.019   1.865   7.193 -0.2379  0.2212 -0.5570
   30CHL1  H19A 2187   4.050   1.852   7.087  0.8141  0.5003 -0.2942
   30CHL1  H19B 2188   4.093   1.930   7.245 -2.0669  0.8345  1.4083
   30CHL1  H19C 2189   4.028   1.763   7.234  1.0877  1.0450  1.3451
   30CHL1    C1 2190   3.762   1.845   7.163 -0.0132  0.4753  0.3989
   30CHL1   H1A 2191   3.774   1.743   7.205 -1.5126  0.7427  1.5980
   30CHL1   H1B 2192   3.665   1.887   7.196 -0.2085  0.2307  0.1432
   30CHL1    C2 2193   3.758   1.838   7.008 -0.0007  0.0400 -0.5609
   30CHL1   H2A 2194   3.688   1.759   6.971  0.1308 -0.0742 -0.5647
   30CHL1   H2B 2195   3.856   1.799   6.973 -0.4008 -1.4094 -0.1500
   30CHL1   C20 2196   3.973   1.929   7.908  0.1765  0.5893 -1.0285
   30CHL1   H20 2197   4.080   1.955   7.914  0.5782 -1.1826  3.6980
   30CHL1   C21 2198   3.942   1.778   7.907 -0.8135  0.8360  0.1494
   30CHL1  H21A 2199   4.004   1.753   7.819 -3.5120  2.7697 -2.5099
   30CHL1  H21B 2200   3.837   1.751   7.883 -0.9008  0.8312  0.5290
   30CHL1  H21C 2201   3.967   1.719   7.998  0.2420 -0.3418 -0.8700
   30CHL1   C22 2202   3.914   1.983   8.047 -0.3332  0.4263 -0.5180
   30CHL1  H22A 2203   3.928   2.093   8.046  0.3416  0.3466 -2.2373
   30CHL1  H22B 2204   3.805   1.962   8.061 -0.4386  2.3419  2.5456
   30CHL1   C23 2205   3.994   1.934   8.171 -0.1037  0.2462  0.6630
   30CHL1  H23A 2206   3.961   2.002   8.253 -1.1663  0.0702  0.3932
   30CHL1  H23B 2207   3.949   1.836   8.199 -3.1361  1.0579 -0.9571
   30CHL1   C24 2208   4.142   1.942   8.157  0.2508  0.1545 -0.0329
   30CHL1  H24A 2209   4.172   1.852   8.098 -0.0803 -0.5999  0.9108
   30CHL1  H24B 2210   4.169   2.034   8.101  2.1157  0.2296  0.9210
   30CHL1   C25 2211   4.206   1.939   8.298 -0.4232  1.2156 -0.3063
   30CHL1   H25 2212   4.158   1.852   8.348 -0.6670 -0.0482 -2.5709
   30CHL1   C26 2213   4.359   1.927   8.281 -0.3246 -0.6944 -0.0204
   30CHL1  H26A 2214   4.387   1.843   8.214  0.2405  0.8288 -1.7612
   30CHL1  H26B 2215   4.391   2.023   8.237 -1.3559 -0.3115  0.0284
   30CHL1  H26C 2216   4.414   1.924   8.377  1.1997 -0.6592 -0.8673
   30CHL1   C27 2217   4.175   2.061   8.374  1.0347 -0.2877 -0.0937
   30CHL1  H27A 2218   4.237   2.062   8.466 -1.2132 -0.7196  1.5085
   30CHL1  H27B 2219   4.199   2.152   8.315  0.1809  1.5974  2.2802
   30CHL1  H27C 2220   4.067   2.075   8.395  0.1804 -2.8574 -2.2329
   31CHL1    C3 2221   4.546   4.789   6.885  0.0308 -0.3571  0.0294
   31CHL1    H3 2222   4.504   4.890   6.907  1.4149  1.2149 -3.6936
   31CHL1    O3 2223   4.542   4.767   6.748 -0.4821 -0.0325  0.3747
   31CHL1   H3' 2224   4.449   4.778   6.725 -0.0083 -1.2684 -2.6606
   31CHL1    C4 2225   4.691   4.801   6.937  0.4138  0.0953 -0.5322
   31CHL1   H4A 2226   4.743   4.705   6.913  1.2268  0.3048  0.3280
   31CHL1   H4B 2227   4.740   4.886   6.885  1.3192  1.2848  2.1209
   31CHL1    C5 2228   4.692   4.816   7.086  1.2351  0.6211  0.6615
   31CHL1    C6 2229   4.738   4.925   7.144  0.2614 -0.1515  1.2845
   31CHL1    H6 2230   4.783   4.999   7.076  0.3121 -2.8889 -1.9087
   31CHL1    C7 2231   4.747   4.951   7.293 -0.4078  0.8443 -0.2230
   31CHL1   H7A 2232   4.845   4.994   7.323 -0.8504  2.1718 -0.5982
   31CHL1   H7B 2233   4.668   5.022   7.328 -1.6267  0.3404 -1.8112
   31CHL1    C8 2234   4.718   4.818   7.366  0.5036 -0.5585  0.5438
   31CHL1    H8 2235   4.809   4.754   7.360  2.0349  1.6985 -2.0663
   31CHL1   C14 2236   4.690   4.847   7.513  0.3085 -0.5360 -0.4769
   31CHL1   H14 2237   4.603   4.913   7.532  0.3963 -1.0493  2.1286
   31CHL1   C15 2238   4.791   4.929   7.589 -0.2006 -0.0603 -0.2397
   31CHL1  H15A 2239   4.898   4.901   7.577  0.0408  0.7274  0.0048
   31CHL1  H15B 2240   4.782   5.037   7.564  0.3661  0.0695  0.1163
   31CHL1   C16 2241   4.767   4.907   7.732 -0.1035  0.6663 -0.5642
   31CHL1  H16A 2242   4.853   4.864   7.787  0.0438  2.4134  0.6435
   31CHL1  H16B 2243   4.753   5.011   7.769  1.7468  0.4419  0.8738
   31CHL1   C17 2244   4.647   4.812   7.737 -0.5874 -0.4738 -0.1709
   31CHL1   H17 2245   4.557   4.874   7.720  0.4111  1.0630 -0.0459
   31CHL1   C13 2246   4.657   4.729   7.602  0.1436 -0.0231 -0.3753
   31CHL1   C18 2247   4.769   4.626   7.590 -0.2744 -0.1249 -0.3750
   31CHL1  H18A 2248   4.858   4.667   7.643 -0.8616  0.0746  0.4824
   31CHL1  H18B 2249   4.733   4.532   7.637 -0.8123  0.5952  0.7040
   31CHL1  H18C 2250   4.788   4.601   7.484  0.2571  1.9063 -0.8091
   31CHL1   C12 2251   4.514   4.680   7.553  0.2135 -0.3197  0.1323
   31CHL1  H12A 2252   4.485   4.588   7.608 -2.1435 -0.2631 -0.9053
   31CHL1  H12B 2253   4.438   4.758   7.577 -0.3307 -0.9518  0.4834
   31CHL1   C11 2254   4.519   4.644   7.403 -0.0943  0.3631 -0.0929
   31CHL1  H11A 2255   4.581   4.552   7.408  0.4498  0.7827  1.9760
   31CHL1  H11B 2256   4.422   4.609   7.362 -1.3129 -0.3715  3.0898
   31CHL1    C9 2257   4.595   4.750   7.316  0.7083 -0.8768  0.7292
   31CHL1    H9 2258   4.510   4.820   7.307 -1.9788 -3.8839  0.7288
   31CHL1   C10 2259   4.617   4.702   7.163  0.5255  0.3449 -0.2253
   31CHL1   C19 2260   4.680   4.561   7.159 -0.2637 -0.2388  0.0458
   31CHL1  H19A 2261   4.622   4.484   7.213 -0.7610 -0.1268 -0.3304
   31CHL1  H19B 2262   4.697   4.532   7.053  1.5613 -1.0818  0.5296
   31CHL1  H19C 2263   4.785   4.563   7.196 -0.4230  0.0219  0.4917
   31CHL1    C1 2264   4.479   4.685   7.098  0.4963  0.2164  0.6315
   31CHL1   H1A 2265   4.441   4.592   7.146 -1.1888  2.1977  3.4441
   31CHL1   H1B 2266   4.411   4.764   7.136 -0.5535 -1.8891  3.4648
   31CHL1    C2 2267   4.464   4.673   6.949 -0.8522  0.5738  0.1849
   31CHL1   H2A 2268   4.358   4.676   6.916 -1.4070  0.1225  1.8852
   31CHL1   H2B 2269   4.505   4.576   6.914  1.3134  0.8841  1.6872
   31CHL1   C20 2270   4.628   4.725   7.863 -0.0745  0.1878  0.6961
   31CHL1   H20 2271   4.659   4.621   7.841 -2.2869 -0.1295 -1.2779
   31CHL1   C21 2272   4.475   4.714   7.898  0.5274 -0.0303 -0.2376
   31CHL1  H21A 2273   4.450   4.645   7.981 -4.1140  0.8862 -0.6075
   31CHL1  H21B 2274   4.406   4.691   7.814  0.0505 -0.2540  0.2127
   31CHL1  H21C 2275   4.436   4.812   7.934  0.7973  0.1900 -0.5422
   31CHL1   C22 2276   4.715   4.769   7.985  0.5167  0.1131  0.3183
   31CHL1  H22A 2277   4.821   4.736   7.972 -0.2210 -2.8489  1.1325
   31CHL1  H22B 2278   4.715   4.879   8.001  2.0423  0.0284  1.0740
   31CHL1   C23 2279   4.682   4.708   8.121  0.4037 -0.3951  0.9062
   31CHL1  H23A 2280   4.580   4.744   8.150  0.0823 -0.5180 -0.0232
   31CHL1  H23B 2281   4.678   4.598   8.109 -0.1954 -0.3924  1.0221
   31CHL1   C24 2282   4.778   4.764   8.231 -0.5057  0.0765 -1.0596
   31CHL1  H24A 2283   4.885   4.748   8.207 -0.5174 -0.5469 -0.7183
   31CHL1  H24B 2284   4.761   4.873   8.232  2.1564  0.5673  0.8497
   31CHL1   C25 2285   4.744   4.699   8.363  0.1424 -0.3811  0.0030
   31CHL1   H25 2286   4.634   4.706   8.373  0.1922  1.0088 -0.2193
   31CHL1   C26 2287   4.802   4.562   8.387 -0.6480  0.4606 -1.0273
   31CHL1  H26A 2288   4.913   4.566   8.373 -0.4500 -1.5519 -0.3337
   31CHL1  H26B 2289   4.791   4.537   8.495 -0.3461  0.0345 -1.0919
   31CHL1  H26C 2290   4.747   4.487   8.327  0.4436 -2.6107  1.5316
   31CHL1   C27 2291   4.782   4.798   8.475 -0.9742  0.0959  0.1755
   31CHL1  H27A 2292   4.874   4.850   8.441  0.5847 -1.3293  2.0080
   31CHL1  H27B 2293   4.797   4.754   8.576 -2.2613 -0.5403  0.1002
   31CHL1  H27C 2294   4.705   4.877   8.494  0.4057  0.8746  3.2442
   32CHL1    C3 2295   4.877   2.611   6.956  0.0368  0.2279 -0.1053
   32CHL1    H3 2296   4.985   2.619   6.979  0.2086 -2.1753  0.1722
   32CHL1    O3 2297   4.846   2.646   6.824 -0.3246  0.1733  0.1323
   32CHL1   H3' 2298   4.917   2.603   6.775 -0.4907  1.3237 -1.1492
   32CHL1    C4 2299   4.840   2.458   6.978 -0.1988 -0.6368 -0.5197
   32CHL1   H4A 2300   4.737   2.433   6.944 -0.0707 -1.6934 -0.1608
   32CHL1   H4B 2301   4.908   2.397   6.915  0.4222  0.7924 -1.2874
   32CHL1    C5 2302   4.867   2.418   7.119 -0.4327  0.0493  0.7619
   32CHL1    C6 2303   4.941   2.312   7.145  0.0934 -0.4151  0.3424
   32CHL1    H6 2304   4.983   2.250   7.065 -1.2262 -0.9164  0.0146
   32CHL1    C7 2305   4.969   2.270   7.283 -0.5442  0.3054  0.0653
   32CHL1   H7A 2306   4.965   2.160   7.286 -2.3503  0.3726  1.5871
   32CHL1   H7B 2307   5.076   2.292   7.307  0.8612 -0.8127 -4.2258
   32CHL1    C8 2308   4.881   2.333   7.393  0.1288  0.1797  0.8180
   32CHL1    H8 2309   4.779   2.288   7.398  0.2626 -0.0146  1.8764
   32CHL1   C14 2310   4.942   2.308   7.528 -0.8218 -0.7997 -0.2891
   32CHL1   H14 2311   5.037   2.366   7.533 -0.6833 -0.8723 -1.5983
   32CHL1   C15 2312   4.993   2.168   7.564  0.0797 -0.0776 -0.0490
   32CHL1  H15A 2313   4.922   2.102   7.509 -0.1231  0.2964 -0.2375
   32CHL1  H15B 2314   5.094   2.154   7.519 -1.1326 -1.5522 -2.5083
   32CHL1   C16 2315   4.978   2.160   7.720 -0.4484 -0.4629  0.0157
   32CHL1  H16A 2316   4.909   2.074   7.738  2.6409 -2.6246  2.8426
   32CHL1  H16B 2317   5.081   2.135   7.753  0.4550  0.7274 -1.7480
   32CHL1   C17 2318   4.941   2.300   7.763 -0.1659  0.9580 -0.0137
   32CHL1   H17 2319   5.038   2.356   7.757  0.0453  0.7359  1.0455
   32CHL1   C13 2320   4.855   2.356   7.645  0.5648 -0.0885  0.0232
   32CHL1   C18 2321   4.718   2.278   7.641  0.1397 -0.2516 -0.3186
   32CHL1  H18A 2322   4.724   2.168   7.653  0.4128 -0.1930  0.1120
   32CHL1  H18B 2323   4.661   2.301   7.733  0.1526 -1.2856 -0.0489
   32CHL1  H18C 2324   4.654   2.313   7.557 -2.0135  0.5295  1.5392
   32CHL1   C12 2325   4.844   2.508   7.632 -0.0722  0.5142 -0.0826
   32CHL1  H12A 2326   4.786   2.552   7.716  1.0701  1.0277  0.4472
   32CHL1  H12B 2327   4.950   2.538   7.638  0.3292  0.1219 -3.3589
   32CHL1   C11 2328   4.792   2.544   7.494 -0.1984 -0.6457  0.8662
   32CHL1  H11A 2329   4.684   2.522   7.488 -0.5185  1.0021 -0.2902
   32CHL1  H11B 2330   4.795   2.655   7.487  0.9421 -0.7313 -0.6973
   32CHL1    C9 2331   4.863   2.476   7.372 -0.3114 -0.4197 -0.0505
   32CHL1    H9 2332   4.966   2.517   7.366 -0.5706  0.2695  0.1551
   32CHL1   C10 2333   4.808   2.507   7.231  0.4766  0.4653  0.0920
   32CHL1   C19 2334   4.656   2.477   7.221  0.4579 -0.0730 -0.9749
   32CHL1  H19A 2335   4.619   2.482   7.116  3.3054  0.2489 -2.0531
   32CHL1  H19B 2336   4.635   2.372   7.251  1.4319  0.3043  1.1389
   32CHL1  H19C 2337   4.599   2.555   7.276  1.2556  0.8026 -1.3713
   32CHL1    C1 2338   4.827   2.656   7.195 -0.0800 -0.3257 -0.6654
   32CHL1   H1A 2339   4.765   2.718   7.263  2.5954  1.9741 -0.1612
   32CHL1   H1B 2340   4.933   2.674   7.222  0.3449 -0.2097 -2.3116
   32CHL1    C2 2341   4.799   2.694   7.049  0.6665  0.0393  0.2865
   32CHL1   H2A 2342   4.815   2.803   7.034  1.3577 -0.1250 -0.1991
   32CHL1   H2B 2343   4.692   2.667   7.037  0.5429  0.3321  0.7123
   32CHL1   C20 2344   4.893   2.307   7.910 -0.8119  0.2349  0.4059
   32CHL1   H20 2345   4.800   2.246   7.908 -1.4083  1.1369 -0.4379
   32CHL1   C21 2346   4.871   2.448   7.971 -0.0193 -0.1871 -0.1230
   32CHL1  H21A 2347   4.870   2.443   8.082  0.3760 -1.7618 -0.1588
   32CHL1  H21B 2348   4.772   2.486   7.938 -0.3362  2.0025  2.9332
   32CHL1  H21C 2349   4.948   2.521   7.939  1.8717 -1.9667  0.1690
   32CHL1   C22 2350   4.994   2.224   8.002  0.8151  0.4983 -0.4956
   32CHL1  H22A 2351   5.039   2.131   7.963  0.1789 -0.6175  1.3141
   32CHL1  H22B 2352   5.072   2.295   8.037  1.9749 -0.0568 -1.8753
   32CHL1   C23 2353   4.923   2.173   8.131 -0.3757  0.6175  0.2741
   32CHL1  H23A 2354   4.892   2.266   8.184 -0.2053  0.6429  0.3313
   32CHL1  H23B 2355   4.824   2.124   8.115  1.1674 -2.5213 -0.5288
   32CHL1   C24 2356   5.028   2.092   8.216  1.0155 -0.2266 -0.2394
   32CHL1  H24A 2357   5.117   2.158   8.224  0.9605 -0.1290 -0.4452
   32CHL1  H24B 2358   4.997   2.081   8.322  0.0109  0.3833 -0.4597
   32CHL1   C25 2359   5.089   1.964   8.172  0.7770  0.1309  0.5279
   32CHL1   H25 2360   5.143   1.992   8.079 -0.4785  4.6753  0.9068
   32CHL1   C26 2361   5.190   1.895   8.269 -0.7349 -0.0776  0.3639
   32CHL1  H26A 2362   5.262   1.974   8.298 -2.5176  0.6205  3.2921
   32CHL1  H26B 2363   5.137   1.866   8.363 -1.3579  0.9074  0.3233
   32CHL1  H26C 2364   5.235   1.807   8.218  0.4993  0.9851 -0.4446
   32CHL1   C27 2365   4.977   1.862   8.135 -0.2307  0.0458 -0.1808
   32CHL1  H27A 2366   4.936   1.830   8.233 -1.6521  2.3405  0.0499
   32CHL1  H27B 2367   4.892   1.888   8.068  0.7118  0.2330 -1.3427
   32CHL1  H27C 2368   5.016   1.770   8.086  1.6331  0.5586  0.2417
   33CHL1    C3 2369   5.986   1.248   6.741 -0.0501 -0.1964  0.3304
   33CHL1    H3 2370   5.883   1.280   6.767 -0.4340  0.3968 -1.7359
   33CHL1    O3 2371   6.016   1.292   6.606 -0.1723 -0.1119  0.8536
   33CHL1   H3' 2372   6.106   1.259   6.611  0.6241  1.9432  1.2062
   33CHL1    C4 2373   6.079   1.316   6.834 -0.7780  0.6414 -0.5449
   33CHL1   H4A 2374   6.184   1.291   6.808 -1.0561  0.1251 -1.1873
   33CHL1   H4B 2375   6.058   1.425   6.830 -3.1081  0.3291  1.0610
   33CHL1    C5 2376   6.068   1.263   6.978  0.1925 -0.0935  0.4044
   33CHL1    C6 2377   6.055   1.333   7.087 -1.2328 -0.2495 -0.2053
   33CHL1    H6 2378   6.052   1.443   7.079 -1.3027 -0.0179  2.3702
   33CHL1    C7 2379   6.067   1.290   7.226 -0.1141  0.0439  0.2842
   33CHL1   H7A 2380   6.119   1.357   7.297  0.5157  1.7190 -1.6652
   33CHL1   H7B 2381   5.964   1.280   7.267  0.0659 -1.6706  0.3846
   33CHL1    C8 2382   6.125   1.149   7.241 -0.0691 -0.4165 -0.1065
   33CHL1    H8 2383   6.234   1.143   7.220 -0.1028 -2.8228  0.0747
   33CHL1   C14 2384   6.099   1.101   7.376  0.8448  0.2056 -0.5511
   33CHL1   H14 2385   5.990   1.083   7.377  0.5700  1.7351 -0.4327
   33CHL1   C15 2386   6.125   1.192   7.502  0.0653 -0.2441 -0.3823
   33CHL1  H15A 2387   6.230   1.229   7.499  0.0143  0.0574  0.9393
   33CHL1  H15B 2388   6.056   1.279   7.512  0.6050  0.0796  0.6521
   33CHL1   C16 2389   6.104   1.095   7.618  0.4459 -0.0126  0.0143
   33CHL1  H16A 2390   6.170   1.106   7.707  0.5108  1.6348 -0.1969
   33CHL1  H16B 2391   6.002   1.111   7.658 -0.0283  0.7475 -1.4370
   33CHL1   C17 2392   6.097   0.952   7.555 -0.2266 -1.0069 -0.5467
   33CHL1   H17 2393   5.989   0.927   7.542 -1.3192  1.7634  2.0125
   33CHL1   C13 2394   6.154   0.964   7.410  0.1098 -0.3620  0.3820
   33CHL1   C18 2395   6.306   0.961   7.402  0.6674  0.1741  0.3858
   33CHL1  H18A 2396   6.345   0.988   7.302  0.4119 -0.4080  0.1208
   33CHL1  H18B 2397   6.348   1.031   7.478  0.1950  1.0531 -0.1451
   33CHL1  H18C 2398   6.351   0.865   7.434  2.4980  1.7509  2.9013
   33CHL1   C12 2399   6.087   0.864   7.312 -0.8258 -1.0263  0.5117
   33CHL1  H12A 2400   6.127   0.761   7.326 -1.6506 -1.9584 -3.0575
   33CHL1  H12B 2401   5.977   0.860   7.326 -0.8446 -0.8498  0.4182
   33CHL1   C11 2402   6.108   0.910   7.163 -0.0491  0.3120 -0.0982
   33CHL1  H11A 2403   6.218   0.898   7.153  0.0954  1.5025 -0.0743
   33CHL1  H11B 2404   6.055   0.842   7.094  0.6284  0.9428 -1.2791
   33CHL1    C9 2405   6.058   1.057   7.133 -0.4850 -0.4072  0.5071
   33CHL1    H9 2406   5.950   1.050   7.157 -0.5932 -1.6880 -0.2630
   33CHL1   C10 2407   6.084   1.111   6.992 -0.0998 -0.5084  0.5238
   33CHL1   C19 2408   6.225   1.060   6.942  0.6101 -0.0094 -0.0690
   33CHL1  H19A 2409   6.303   1.082   7.018  0.4301 -0.5272  0.2649
   33CHL1  H19B 2410   6.229   0.950   6.928  2.9271 -0.3278  2.4084
   33CHL1  H19C 2411   6.249   1.109   6.845 -0.1536  2.4067  0.8876
   33CHL1    C1 2412   5.976   1.048   6.902  0.1942 -0.5047 -0.2324
   33CHL1   H1A 2413   5.991   0.938   6.909  0.7750 -0.4400 -0.3852
   33CHL1   H1B 2414   5.872   1.068   6.937  0.2810  0.3696 -0.4659
   33CHL1    C2 2415   5.988   1.090   6.751 -0.4859 -0.1365 -0.4015
   33CHL1   H2A 2416   5.907   1.046   6.689 -0.9530  0.3730 -0.1607
   33CHL1   H2B 2417   6.088   1.061   6.714 -0.7817  0.2835 -1.5806
   33CHL1   C20 2418   6.151   0.847   7.656  0.0499 -0.2246  0.6684
   33CHL1   H20 2419   6.259   0.874   7.656  0.1804 -0.6525 -0.8193
   33CHL1   C21 2420   6.117   0.708   7.595  0.2198 -0.9041  0.0695
   33CHL1  H21A 2421   6.141   0.630   7.670  0.4552 -1.6352 -0.7455
   33CHL1  H21B 2422   6.182   0.692   7.506 -1.2246 -0.2552 -1.1559
   33CHL1  H21C 2423   6.010   0.702   7.564  0.3451  0.8269 -0.8547
   33CHL1   C22 2424   6.081   0.843   7.795  0.1660 -0.6136 -0.0383
   33CHL1  H22A 2425   6.038   0.944   7.815  1.2863  0.1603 -1.3530
   33CHL1  H22B 2426   5.998   0.769   7.796  0.0193 -0.4659 -0.8329
   33CHL1   C23 2427   6.185   0.821   7.905  0.0607  0.0585 -0.5193
   33CHL1  H23A 2428   6.245   0.732   7.875  1.4131  1.0449 -0.8104
   33CHL1  H23B 2429   6.263   0.899   7.909  1.2729 -1.0472 -1.5218
   33CHL1   C24 2430   6.118   0.796   8.039 -0.4293 -0.0776  0.0014
   33CHL1  H24A 2431   6.061   0.884   8.075 -0.8016 -0.4066  0.2309
   33CHL1  H24B 2432   6.043   0.716   8.023 -1.7223  1.3077 -1.1405
   33CHL1   C25 2433   6.223   0.767   8.148 -0.4127 -0.0405 -0.0596
   33CHL1   H25 2434   6.287   0.685   8.108 -0.6427 -0.2620  0.0254
   33CHL1   C26 2435   6.302   0.893   8.180  0.3596 -0.5482 -0.7986
   33CHL1  H26A 2436   6.225   0.963   8.218  2.9532  1.2506  1.5250
   33CHL1  H26B 2437   6.374   0.875   8.263 -1.1702 -0.1236  0.6726
   33CHL1  H26C 2438   6.350   0.927   8.086 -1.3834 -1.4167 -2.0663
   33CHL1   C27 2439   6.147   0.723   8.276 -0.2350  0.0998 -0.5879
   33CHL1  H27A 2440   6.100   0.624   8.260  0.2556 -0.1504 -0.4938
   33CHL1  H27B 2441   6.224   0.720   8.355 -1.5652  0.0266  0.7361
   33CHL1  H27C 2442   6.067   0.796   8.298  0.6257  1.0854 -0.6323
   34CHL1    C3 2443   6.726   2.482   6.911 -0.5814 -0.0664 -0.3280
   34CHL1    H3 2444   6.629   2.535   6.925 -0.6711  0.1766 -1.6715
   34CHL1    O3 2445   6.744   2.462   6.775  0.1118  0.0806  0.2667
   34CHL1   H3' 2446   6.821   2.404   6.775  0.4409  0.4990  1.3135
   34CHL1    C4 2447   6.837   2.569   6.975 -0.4260  0.0438 -0.5032
   34CHL1   H4A 2448   6.936   2.519   6.974 -0.1987  0.3663  1.4631
   34CHL1   H4B 2449   6.839   2.664   6.918  0.6719 -0.2290 -0.9362
   34CHL1    C5 2450   6.810   2.589   7.117  0.7559 -0.2530 -0.4231
   34CHL1    C6 2451   6.787   2.711   7.166  0.2238  0.4572 -0.4277
   34CHL1    H6 2452   6.798   2.797   7.098 -0.6102  0.7670 -0.1713
   34CHL1    C7 2453   6.774   2.735   7.318 -0.0004  0.6682 -0.2179
   34CHL1   H7A 2454   6.842   2.819   7.345 -0.4604  1.3149 -1.0156
   34CHL1   H7B 2455   6.672   2.764   7.351  0.1331 -0.9408  1.8340
   34CHL1    C8 2456   6.808   2.618   7.409  0.6238  0.1609  0.8434
   34CHL1    H8 2457   6.918   2.607   7.398  0.4023 -0.4660 -1.0294
   34CHL1   C14 2458   6.756   2.627   7.556 -0.3927 -0.1346  0.0748
   34CHL1   H14 2459   6.646   2.631   7.541 -0.6146  0.4889  1.7148
   34CHL1   C15 2460   6.788   2.751   7.637  0.2279 -0.6078  0.7186
   34CHL1  H15A 2461   6.896   2.771   7.623  0.0154  0.8329  1.0137
   34CHL1  H15B 2462   6.743   2.838   7.585  1.4263  0.3032  1.1582
   34CHL1   C16 2463   6.741   2.721   7.780  0.3112  0.2297  0.5256
   34CHL1  H16A 2464   6.827   2.760   7.838  0.0051  2.1147 -0.1955
   34CHL1  H16B 2465   6.655   2.783   7.815 -1.6913 -1.3176 -1.3758
   34CHL1   C17 2466   6.713   2.571   7.783  0.7226  0.7236 -0.2432
   34CHL1   H17 2467   6.605   2.566   7.760  0.8278  2.4165 -1.3044
   34CHL1   C13 2468   6.776   2.516   7.650  0.6271  0.3653 -0.6876
   34CHL1   C18 2469   6.926   2.492   7.693  0.4239  0.6294 -0.1762
   34CHL1  H18A 2470   6.939   2.405   7.762 -0.9740  0.6935  0.2096
   34CHL1  H18B 2471   6.992   2.472   7.606  0.5531  1.4776 -0.2794
   34CHL1  H18C 2472   6.969   2.577   7.750 -0.1419  0.3156  0.7470
   34CHL1   C12 2473   6.712   2.394   7.579  0.0643 -0.3472 -0.2587
   34CHL1  H12A 2474   6.720   2.303   7.643 -1.0276  1.9006  3.3661
   34CHL1  H12B 2475   6.605   2.414   7.559 -0.2386 -0.4151  1.1853
   34CHL1   C11 2476   6.779   2.371   7.449 -0.1721  0.4840  0.6882
   34CHL1  H11A 2477   6.888   2.361   7.467 -0.2794  2.0689  2.5324
   34CHL1  H11B 2478   6.751   2.275   7.401  1.7930 -1.0398  2.4279
   34CHL1    C9 2479   6.754   2.487   7.347 -0.2487 -0.6310 -0.2918
   34CHL1    H9 2480   6.644   2.499   7.342 -0.2134 -0.0486  0.2050
   34CHL1   C10 2481   6.796   2.456   7.206 -0.8402 -1.0300  0.2610
   34CHL1   C19 2482   6.926   2.390   7.214  0.7251 -0.1148 -0.2705
   34CHL1  H19A 2483   6.975   2.367   7.117  0.4356 -0.2852 -0.3780
   34CHL1  H19B 2484   6.999   2.439   7.282  0.0379 -0.1726  0.5251
   34CHL1  H19C 2485   6.919   2.294   7.269  1.7326 -1.4912 -2.4017
   34CHL1    C1 2486   6.696   2.367   7.129 -0.0479 -0.6626  1.0716
   34CHL1   H1A 2487   6.692   2.267   7.178 -1.2560 -1.9424 -1.4738
   34CHL1   H1B 2488   6.597   2.416   7.143  0.1448  0.2729 -0.6775
   34CHL1    C2 2489   6.725   2.346   6.985  0.1078 -0.0709  0.7438
   34CHL1   H2A 2490   6.656   2.275   6.934 -0.0977  0.3643  0.4123
   34CHL1   H2B 2491   6.830   2.313   6.970  0.5831  1.5696  0.2594
   34CHL1   C20 2492   6.737   2.497   7.920  0.1370 -0.2202  0.4128
   34CHL1   H20 2493   6.842   2.507   7.954  0.8074  0.3196 -1.6644
   34CHL1   C21 2494   6.693   2.345   7.919  0.8690 -0.1358 -0.1262
   34CHL1  H21A 2495   6.692   2.293   8.017 -1.4832 -1.1934 -0.6411
   34CHL1  H21B 2496   6.758   2.291   7.848 -0.5945  2.3784 -3.6676
   34CHL1  H21C 2497   6.592   2.323   7.877  0.7221 -0.4388  0.3752
   34CHL1   C22 2498   6.655   2.563   8.032 -0.0192  0.5912  0.3731
   34CHL1  H22A 2499   6.552   2.584   7.997  0.3318  2.6217  0.4431
   34CHL1  H22B 2500   6.653   2.483   8.109  0.6372  0.2015 -0.0021
   34CHL1   C23 2501   6.729   2.680   8.096  0.2063 -0.7561  0.4618
   34CHL1  H23A 2502   6.836   2.658   8.116  0.5580  1.4251  1.3231
   34CHL1  H23B 2503   6.733   2.767   8.026 -0.7748 -0.2853  0.9791
   34CHL1   C24 2504   6.653   2.735   8.218  0.1733  0.3673 -0.0305
   34CHL1  H24A 2505   6.672   2.844   8.228 -1.2239  0.8706 -2.1806
   34CHL1  H24B 2506   6.544   2.712   8.218  0.5433 -1.5317  0.9402
   34CHL1   C25 2507   6.722   2.665   8.344  1.1490 -0.0788 -0.7052
   34CHL1   H25 2508   6.760   2.569   8.304  1.4141 -0.9677  1.5028
   34CHL1   C26 2509   6.833   2.757   8.396  0.2954  0.4844 -0.2361
   34CHL1  H26A 2510   6.895   2.710   8.474  1.8464  1.9189 -0.5477
   34CHL1  H26B 2511   6.910   2.768   8.317  0.7891  0.6927  0.2663
   34CHL1  H26C 2512   6.797   2.857   8.431 -1.1722  1.3978 -3.8891
   34CHL1   C27 2513   6.622   2.629   8.460  0.2106 -0.4700 -0.7039
   34CHL1  H27A 2514   6.533   2.569   8.430 -0.8301 -0.1090  1.4879
   34CHL1  H27B 2515   6.673   2.571   8.540  0.0662  0.9321  0.4384
   34CHL1  H27C 2516   6.577   2.719   8.507  0.0028 -1.4259  1.0349
   35CHL1    C3 2517   3.129   2.732   7.056 -0.0319  0.6622  0.3369
   35CHL1    H3 2518   3.104   2.624   7.067  0.7196  0.1903 -2.0925
   35CHL1    O3 2519   3.157   2.762   6.913 -0.1201 -0.4693 -0.0185
   35CHL1   H3' 2520   3.162   2.857   6.917 -1.9735 -0.2695 -1.0957
   35CHL1    C4 2521   3.006   2.808   7.093 -0.2319  0.1491 -0.1173
   35CHL1   H4A 2522   3.018   2.913   7.059  0.9381  0.4845  1.2379
   35CHL1   H4B 2523   2.926   2.768   7.027 -0.6221 -0.4432  0.6876
   35CHL1    C5 2524   2.972   2.809   7.240 -0.5844 -0.2460 -0.3073
   35CHL1    C6 2525   2.861   2.756   7.290 -0.1922 -0.2861  0.3489
   35CHL1    H6 2526   2.784   2.706   7.230  1.6374 -3.9214  0.7452
   35CHL1    C7 2527   2.823   2.772   7.432  0.1820 -0.3311  0.7763
   35CHL1   H7A 2528   2.717   2.803   7.437 -0.4028 -2.0918  0.1835
   35CHL1   H7B 2529   2.822   2.676   7.488 -0.0521 -1.1620 -0.6051
   35CHL1    C8 2530   2.900   2.869   7.518 -0.1877 -0.0254  0.2582
   35CHL1    H8 2531   2.867   2.975   7.516  1.2289  0.4538 -2.2356
   35CHL1   C14 2532   2.894   2.826   7.667 -0.2310 -0.7575  0.0400
   35CHL1   H14 2533   2.928   2.721   7.677 -2.3032 -1.2217  5.3834
   35CHL1   C15 2534   2.754   2.821   7.734 -0.1017 -0.5343  0.8222
   35CHL1  H15A 2535   2.683   2.901   7.705 -0.6783 -0.4300  2.4276
   35CHL1  H15B 2536   2.713   2.719   7.720  1.7588 -1.0648 -1.3272
   35CHL1   C16 2537   2.778   2.833   7.885  0.3229  0.6401  0.7849
   35CHL1  H16A 2538   2.728   2.926   7.919 -1.1238  0.4852 -0.7785
   35CHL1  H16B 2539   2.751   2.743   7.945  1.0618  2.0868  3.4647
   35CHL1   C17 2540   2.938   2.850   7.906 -0.3137 -0.4014  0.2346
   35CHL1   H17 2541   2.980   2.749   7.927 -1.4366 -0.4678  2.5381
   35CHL1   C13 2542   2.990   2.904   7.767  0.3248 -0.3784  0.2546
   35CHL1   C18 2543   2.958   3.055   7.767  0.4508  0.5972  0.5366
   35CHL1  H18A 2544   2.852   3.078   7.789  0.6278  1.2004  0.7753
   35CHL1  H18B 2545   3.024   3.098   7.845  2.0025  0.4093 -0.6307
   35CHL1  H18C 2546   2.980   3.101   7.668  4.2229 -1.7678  0.1014
   35CHL1   C12 2547   3.128   2.872   7.722  0.0992 -0.3798 -0.4444
   35CHL1  H12A 2548   3.210   2.916   7.783  1.5071  0.6829 -2.9645
   35CHL1  H12B 2549   3.145   2.763   7.739  0.3609 -0.1305  1.0101
   35CHL1   C11 2550   3.149   2.908   7.576  0.0782  0.5153 -0.0950
   35CHL1  H11A 2551   3.148   3.019   7.575 -0.1542  0.5394  1.1935
   35CHL1  H11B 2552   3.255   2.893   7.548  0.4066 -0.4010  1.5349
   35CHL1    C9 2553   3.052   2.844   7.480  0.0623  0.8550  0.7064
   35CHL1    H9 2554   3.069   2.735   7.494  1.1639  0.1354 -4.1411
   35CHL1   C10 2555   3.093   2.871   7.327  0.4411 -0.2152 -0.2049
   35CHL1   C19 2556   3.109   3.025   7.311  0.1234 -0.1732  0.4729
   35CHL1  H19A 2557   3.185   3.071   7.378 -0.1166  0.5590  0.2435
   35CHL1  H19B 2558   3.125   3.051   7.204 -1.4793 -0.0620  0.2291
   35CHL1  H19C 2559   3.018   3.083   7.337 -1.0835 -2.0829  0.7002
   35CHL1    C1 2560   3.222   2.797   7.290 -0.3409  0.4067  0.7731
   35CHL1   H1A 2561   3.315   2.848   7.322  0.8060  1.3578 -3.4450
   35CHL1   H1B 2562   3.213   2.690   7.319 -1.7250 -0.2570 -1.8157
   35CHL1    C2 2563   3.252   2.782   7.134  0.4276  0.6009 -0.2018
   35CHL1   H2A 2564   3.330   2.706   7.111 -0.4625 -0.4643  0.2261
   35CHL1   H2B 2565   3.273   2.877   7.080 -0.5816  0.0874 -1.5657
   35CHL1   C20 2566   2.970   2.925   8.033 -0.3963 -0.5348 -0.0329
   35CHL1   H20 2567   2.925   3.027   8.031  1.3821  0.2931 -1.5781
   35CHL1   C21 2568   3.122   2.935   8.043  0.1701  0.0227  0.5099
   35CHL1  H21A 2569   3.171   3.017   7.988  2.1477 -0.3883  1.5692
   35CHL1  H21B 2570   3.165   2.838   8.010  0.2733 -0.3287  1.6237
   35CHL1  H21C 2571   3.155   2.958   8.147  0.0953 -0.6359  0.6888
   35CHL1   C22 2572   2.917   2.845   8.158 -0.0098 -0.5336 -0.1849
   35CHL1  H22A 2573   2.807   2.832   8.149 -0.3792  0.6740  1.8690
   35CHL1  H22B 2574   2.953   2.741   8.170  0.1754 -0.3125  1.4014
   35CHL1   C23 2575   2.944   2.914   8.294 -0.6629  0.0292 -0.5985
   35CHL1  H23A 2576   3.051   2.940   8.311 -0.8835  0.8729 -0.4614
   35CHL1  H23B 2577   2.901   3.016   8.297 -1.3443 -0.2105  3.4929
   35CHL1   C24 2578   2.875   2.839   8.415 -0.3058  0.1563 -0.0786
   35CHL1  H24A 2579   2.776   2.828   8.366 -1.3150  0.9876  1.6796
   35CHL1  H24B 2580   2.924   2.740   8.416  0.9268  0.6803 -2.0564
   35CHL1   C25 2581   2.867   2.919   8.546  0.3002 -0.1820  0.3576
   35CHL1   H25 2582   2.820   2.850   8.620 -1.8998 -0.5854 -1.3305
   35CHL1   C26 2583   3.001   2.977   8.594  0.6329  0.1417  0.7274
   35CHL1  H26A 2584   3.056   3.013   8.504  1.6169  1.2739  1.7580
   35CHL1  H26B 2585   2.994   3.055   8.672 -0.7081  0.2258  0.5532
   35CHL1  H26C 2586   3.058   2.898   8.647 -1.8314 -1.1547  1.5961
   35CHL1   C27 2587   2.760   3.031   8.517 -0.4603  0.1677 -0.2719
   35CHL1  H27A 2588   2.661   2.980   8.514 -0.2228 -0.2824 -3.2088
   35CHL1  H27B 2589   2.762   3.086   8.421  1.6883 -0.3185 -0.5631
   35CHL1  H27C 2590   2.759   3.110   8.596  2.8195 -0.3424  0.4315
   36CHL1    C3 2591   1.690   1.346   6.788  0.0369  0.0384  0.0865
   36CHL1    H3 2592   1.784   1.404   6.788  0.6695 -0.8452 -2.3550
   36CHL1    O3 2593   1.647   1.347   6.651 -0.0932 -0.2915  0.1208
   36CHL1   H3' 2594   1.653   1.255   6.626 -0.7124  0.2916 -2.4922
   36CHL1    C4 2595   1.706   1.200   6.841 -0.3581  0.3079 -0.6576
   36CHL1   H4A 2596   1.616   1.135   6.832  1.1820 -2.2300  0.9217
   36CHL1   H4B 2597   1.784   1.146   6.783 -0.6654 -0.4775 -0.3524
   36CHL1    C5 2598   1.738   1.200   6.992 -1.5016 -0.5570  0.9752
   36CHL1    C6 2599   1.862   1.152   7.033  0.0183 -0.1674 -0.0295
   36CHL1    H6 2600   1.924   1.097   6.961  0.4955  1.7190 -1.1347
   36CHL1    C7 2601   1.898   1.148   7.173  0.3005 -0.3494 -0.0141
   36CHL1   H7A 2602   1.944   1.050   7.198  0.5529 -0.0943  0.5295
   36CHL1   H7B 2603   1.973   1.228   7.191 -0.3541  0.0793  0.8910
   36CHL1    C8 2604   1.777   1.163   7.263  0.0856 -0.1408  0.3069
   36CHL1    H8 2605   1.717   1.069   7.264  0.1931 -0.2091  0.3417
   36CHL1   C14 2606   1.832   1.194   7.406  0.2552 -1.3672  0.4516
   36CHL1   H14 2607   1.887   1.290   7.400 -0.2388 -1.0580  0.7933
   36CHL1   C15 2608   1.934   1.098   7.469  0.0219  0.7592  0.3530
   36CHL1  H15A 2609   1.910   0.993   7.445  1.0119  0.6262 -0.1206
   36CHL1  H15B 2610   2.025   1.125   7.410 -0.4006 -0.0936 -0.7201
   36CHL1   C16 2611   1.934   1.139   7.610  0.4936  0.3666 -0.2588
   36CHL1  H16A 2612   1.922   1.047   7.671  1.6555  0.7305  0.5501
   36CHL1  H16B 2613   2.032   1.179   7.642  0.2425  1.1146 -0.4129
   36CHL1   C17 2614   1.827   1.244   7.633 -0.8917  0.1574  0.1068
   36CHL1   H17 2615   1.871   1.345   7.619 -4.5927  2.1361  1.2025
   36CHL1   C13 2616   1.733   1.219   7.520 -0.3008 -0.2515  0.2882
   36CHL1   C18 2617   1.654   1.096   7.539 -0.4969 -0.5525  0.1675
   36CHL1  H18A 2618   1.709   1.010   7.581 -0.6707 -0.3507  0.8251
   36CHL1  H18B 2619   1.593   1.125   7.627 -0.9969  1.0262 -0.6594
   36CHL1  H18C 2620   1.585   1.064   7.458 -2.0566  2.8584 -0.0533
   36CHL1   C12 2621   1.642   1.339   7.484  0.0515 -0.7579  0.6247
   36CHL1  H12A 2622   1.558   1.355   7.555  1.0399 -2.6918  2.3300
   36CHL1  H12B 2623   1.708   1.428   7.474  1.1586 -1.6683 -0.4565
   36CHL1   C11 2624   1.583   1.320   7.338 -0.0368 -0.2718  0.0997
   36CHL1  H11A 2625   1.499   1.247   7.336 -1.6575  1.4843 -2.5111
   36CHL1  H11B 2626   1.537   1.414   7.300  0.2425 -0.6561 -1.2087
   36CHL1    C9 2627   1.687   1.284   7.231 -0.0285 -0.2847 -0.0604
   36CHL1    H9 2628   1.755   1.372   7.234  0.3083 -0.4766 -1.5551
   36CHL1   C10 2629   1.636   1.268   7.084  0.2996 -0.3713  0.2805
   36CHL1   C19 2630   1.506   1.181   7.070  0.2644 -0.1252  0.4115
   36CHL1  H19A 2631   1.526   1.082   7.118  0.9817  0.3538  1.1280
   36CHL1  H19B 2632   1.428   1.239   7.124  0.9766  1.8067 -0.5822
   36CHL1  H19C 2633   1.471   1.156   6.968  1.1172 -2.6885  0.6511
   36CHL1    C1 2634   1.620   1.418   7.017  0.0326  0.0902  1.0673
   36CHL1   H1A 2635   1.545   1.482   7.069 -0.4156 -0.0958  0.6597
   36CHL1   H1B 2636   1.716   1.472   7.025 -0.7801  1.9292 -0.6236
   36CHL1    C2 2637   1.590   1.426   6.865 -0.9347 -0.0891 -0.5372
   36CHL1   H2A 2638   1.586   1.531   6.831 -1.4892 -0.6973 -2.4910
   36CHL1   H2B 2639   1.492   1.378   6.843 -0.6024 -0.9209 -0.2491
   36CHL1   C20 2640   1.779   1.242   7.780 -0.4831  0.3389  0.5256
   36CHL1   H20 2641   1.727   1.146   7.797 -1.1339  0.3327 -1.2991
   36CHL1   C21 2642   1.676   1.354   7.806  0.5755 -0.4016 -0.4540
   36CHL1  H21A 2643   1.642   1.369   7.911  0.1403  0.5434 -0.7233
   36CHL1  H21B 2644   1.585   1.348   7.742  0.8034 -0.8607 -0.7438
   36CHL1  H21C 2645   1.718   1.454   7.782  0.5180  0.0570  1.2359
   36CHL1   C22 2646   1.900   1.244   7.879 -0.2688 -0.3192 -0.2676
   36CHL1  H22A 2647   1.981   1.169   7.863 -0.9073 -0.8052 -1.3545
   36CHL1  H22B 2648   1.951   1.341   7.861 -1.0754 -0.0721 -1.3404
   36CHL1   C23 2649   1.857   1.229   8.027  0.0222 -0.3458  1.1412
   36CHL1  H23A 2650   1.785   1.308   8.058  0.9432  1.4857 -1.0181
   36CHL1  H23B 2651   1.803   1.132   8.032 -0.5145 -0.0289  1.5720
   36CHL1   C24 2652   1.981   1.222   8.123 -0.0477  0.7888 -0.1245
   36CHL1  H24A 2653   2.042   1.132   8.103  0.4967  0.9752  0.6546
   36CHL1  H24B 2654   2.038   1.317   8.110 -1.2380  1.4552 -0.6880
   36CHL1   C25 2655   1.941   1.201   8.269 -0.0051 -0.0641 -0.0220
   36CHL1   H25 2656   1.861   1.125   8.271  0.9154 -1.0966 -0.8765
   36CHL1   C26 2657   2.054   1.145   8.360 -0.1177  0.4007  0.5773
   36CHL1  H26A 2658   2.003   1.126   8.457 -1.2436  0.5830  0.0393
   36CHL1  H26B 2659   2.102   1.059   8.309 -0.9930  2.1253 -3.5804
   36CHL1  H26C 2660   2.132   1.223   8.373  0.5688 -0.4704  1.8967
   36CHL1   C27 2661   1.889   1.340   8.330 -0.1143  0.3978  0.2369
   36CHL1  H27A 2662   1.967   1.419   8.340  0.4174  0.1246 -1.4214
   36CHL1  H27B 2663   1.811   1.383   8.263  0.0478 -0.6225 -0.6125
   36CHL1  H27C 2664   1.843   1.323   8.430  0.9310 -0.6712  0.5499
   37CHL1    C3 2665   5.985   4.113   6.646  0.6113 -0.4667 -0.2965
   37CHL1    H3 2666   5.937   4.206   6.685 -0.1793  0.3394 -2.9811
   37CHL1    O3 2667   6.003   4.112   6.505  0.6055 -0.7502  0.0861
   37CHL1   H3' 2668   5.928   4.076   6.457  1.6380  0.0546 -2.2507
   37CHL1    C4 2669   6.135   4.109   6.702 -0.1340 -0.1616  0.1259
   37CHL1   H4A 2670   6.190   4.032   6.644 -0.8504  0.5233 -1.5432
   37CHL1   H4B 2671   6.192   4.197   6.666 -0.7117  1.2101  2.3640
   37CHL1    C5 2672   6.157   4.082   6.850 -0.3403  0.1942 -0.6983
   37CHL1    C6 2673   6.231   4.165   6.930 -0.3409  0.1368  0.5723
   37CHL1    H6 2674   6.279   4.243   6.869 -0.6228 -1.8439 -2.3981
   37CHL1    C7 2675   6.261   4.144   7.077 -0.7981 -0.3746 -0.7815
   37CHL1   H7A 2676   6.370   4.164   7.083 -1.0177  1.0867 -1.1499
   37CHL1   H7B 2677   6.225   4.226   7.143  0.5400 -0.2312 -0.1828
   37CHL1    C8 2678   6.218   4.006   7.119  0.1076 -0.2752  0.1750
   37CHL1    H8 2679   6.306   3.940   7.100  1.2003  1.1017  0.3222
   37CHL1   C14 2680   6.202   4.000   7.273 -0.6653 -0.2242 -0.1015
   37CHL1   H14 2681   6.118   4.071   7.289 -0.3445 -0.0288  0.7827
   37CHL1   C15 2682   6.294   4.088   7.365  0.0423  0.5122  0.5598
   37CHL1  H15A 2683   6.396   4.088   7.322 -1.3177  1.4449 -3.0094
   37CHL1  H15B 2684   6.272   4.197   7.364  0.5729  0.6339  1.6031
   37CHL1   C16 2685   6.279   4.023   7.499 -0.5655  0.5750  0.1418
   37CHL1  H16A 2686   6.371   3.982   7.545 -0.7778  0.1095  0.1494
   37CHL1  H16B 2687   6.249   4.111   7.560 -1.4201  1.9079 -2.0707
   37CHL1   C17 2688   6.170   3.913   7.483 -0.5066 -0.5615  0.2931
   37CHL1   H17 2689   6.076   3.971   7.497 -0.6614 -0.8032  0.2464
   37CHL1   C13 2690   6.183   3.870   7.335  0.3307 -0.1556  0.2963
   37CHL1   C18 2691   6.306   3.779   7.323 -0.6847 -0.1122 -0.3650
   37CHL1  H18A 2692   6.317   3.700   7.401 -0.1084  0.5088  0.1896
   37CHL1  H18B 2693   6.302   3.726   7.225 -2.0521 -0.6132 -0.0578
   37CHL1  H18C 2694   6.397   3.840   7.309  0.3511 -1.6534 -0.6607
   37CHL1   C12 2695   6.056   3.810   7.269 -0.3278 -0.2239 -0.2905
   37CHL1  H12A 2696   6.046   3.704   7.301 -1.7709 -0.3283 -0.9925
   37CHL1  H12B 2697   5.965   3.864   7.304  2.2557  3.5488  1.1538
   37CHL1   C11 2698   6.056   3.812   7.118 -0.2394 -0.4079 -0.4349
   37CHL1  H11A 2699   6.140   3.747   7.085 -0.1900 -0.3509 -0.4209
   37CHL1  H11B 2700   5.962   3.758   7.093  0.7726 -1.7268 -1.5087
   37CHL1    C9 2701   6.087   3.951   7.054  0.1505 -0.7796 -0.0128
   37CHL1    H9 2702   6.006   4.017   7.091  0.6799  0.8112 -1.5285
   37CHL1   C10 2703   6.084   3.959   6.898 -0.4158 -0.0858 -0.1226
   37CHL1   C19 2704   6.151   3.829   6.845  0.2452 -0.7633 -0.3757
   37CHL1  H19A 2705   6.240   3.804   6.908  0.6462  0.3717 -0.4779
   37CHL1  H19B 2706   6.083   3.741   6.852 -1.7264  0.7158 -0.2381
   37CHL1  H19C 2707   6.172   3.840   6.737 -3.7541  0.1363 -1.2104
   37CHL1    C1 2708   5.933   3.960   6.851  1.0747  0.3084 -0.2838
   37CHL1   H1A 2709   5.892   3.862   6.882  2.9772 -0.4125  0.1408
   37CHL1   H1B 2710   5.875   4.043   6.897 -0.4076 -0.2336 -1.1380
   37CHL1    C2 2711   5.918   3.987   6.695 -0.7977  0.5903  0.5303
   37CHL1   H2A 2712   5.810   3.985   6.667 -0.8463 -2.3316  0.5354
   37CHL1   H2B 2713   5.955   3.896   6.643 -0.8768  0.0919  1.3323
   37CHL1   C20 2714   6.164   3.809   7.596  0.2783  0.7752  0.0359
   37CHL1   H20 2715   6.257   3.749   7.587 -0.1300  0.4676 -3.6118
   37CHL1   C21 2716   6.055   3.701   7.577 -0.2566 -0.4663  0.4299
   37CHL1  H21A 2717   6.092   3.627   7.503  1.7266 -0.0241  0.9310
   37CHL1  H21B 2718   5.954   3.745   7.557 -0.8519 -2.8988 -2.7122
   37CHL1  H21C 2719   6.052   3.636   7.667  0.7764  0.9953  1.5843
   37CHL1   C22 2720   6.151   3.871   7.730  0.3732 -0.3648 -0.1488
   37CHL1  H22A 2721   6.210   3.966   7.736 -1.5736  0.8488  0.8082
   37CHL1  H22B 2722   6.048   3.901   7.757  0.4425 -0.7289  0.5439
   37CHL1   C23 2723   6.205   3.793   7.848 -0.0762  0.1681 -0.6579
   37CHL1  H23A 2724   6.148   3.698   7.861 -1.4535  1.1932  1.2974
   37CHL1  H23B 2725   6.313   3.777   7.825  0.0956  1.4250 -0.7607
   37CHL1   C24 2726   6.198   3.881   7.978 -0.3046  0.2528 -0.4818
   37CHL1  H24A 2727   6.253   3.977   7.975 -0.4035  0.3239 -0.1128
   37CHL1  H24B 2728   6.091   3.897   8.004 -0.3943  0.2733 -0.8700
   37CHL1   C25 2729   6.274   3.817   8.106 -0.9379  0.0310 -0.1940
   37CHL1   H25 2730   6.380   3.810   8.074 -0.6248  0.6455  0.6567
   37CHL1   C26 2731   6.264   3.913   8.232  0.8892 -0.0093  0.1922
   37CHL1  H26A 2732   6.289   4.013   8.192  2.8481 -1.1021 -1.4920
   37CHL1  H26B 2733   6.162   3.927   8.274  0.8195  1.2813 -0.3577
   37CHL1  H26C 2734   6.333   3.887   8.315  0.5644  0.1900  0.5279
   37CHL1   C27 2735   6.211   3.683   8.153 -0.8143 -0.1357  0.1497
   37CHL1  H27A 2736   6.211   3.614   8.066 -1.7781 -2.5195  1.9588
   37CHL1  H27B 2737   6.267   3.632   8.234 -1.8650  1.1320  1.7356
   37CHL1  H27C 2738   6.110   3.706   8.191  0.2631  3.9725  1.0260
   38CHL1    C3 2739   2.684   5.165   6.572 -0.8718 -0.2131 -0.2323
   38CHL1    H3 2740   2.590   5.116   6.606  0.6109 -1.4838  2.3258
   38CHL1    O3 2741   2.677   5.162   6.434  0.1300 -0.0166  0.2156
   38CHL1   H3' 2742   2.759   5.208   6.415  0.6704  0.6381  3.5944
   38CHL1    C4 2743   2.689   5.308   6.631 -0.2954 -0.2446 -0.0618
   38CHL1   H4A 2744   2.782   5.347   6.584 -0.5713  1.1465  0.5014
   38CHL1   H4B 2745   2.604   5.360   6.583 -2.3186 -2.8841  0.4150
   38CHL1    C5 2746   2.696   5.311   6.783 -0.1130 -0.9196 -0.0485
   38CHL1    C6 2747   2.600   5.365   6.854  0.0476 -1.2258  0.1944
   38CHL1    H6 2748   2.525   5.417   6.794  0.6667  1.9914  1.9394
   38CHL1    C7 2749   2.598   5.370   7.006 -0.1310  0.7778 -0.4750
   38CHL1   H7A 2750   2.567   5.460   7.063  0.1058 -0.9213  2.5579
   38CHL1   H7B 2751   2.524   5.290   7.031  0.1591  1.6974  4.1642
   38CHL1    C8 2752   2.732   5.333   7.066  0.6389  0.4178 -0.7515
   38CHL1    H8 2753   2.804   5.416   7.047  0.1963  0.7987 -0.8048
   38CHL1   C14 2754   2.714   5.318   7.223  0.8127  0.5179 -0.0001
   38CHL1   H14 2755   2.640   5.237   7.242  2.4686 -0.9307  0.5029
   38CHL1   C15 2756   2.659   5.436   7.301  0.2085  0.1746  0.1208
   38CHL1  H15A 2757   2.717   5.529   7.278  0.9249 -0.5925 -1.3436
   38CHL1  H15B 2758   2.550   5.453   7.289 -0.0521 -1.2464  0.3317
   38CHL1   C16 2759   2.694   5.389   7.445  0.0013 -0.2808  0.5821
   38CHL1  H16A 2760   2.734   5.466   7.515  1.1743  0.4002 -0.7936
   38CHL1  H16B 2761   2.597   5.363   7.493 -0.0142  1.1930  1.4194
   38CHL1   C17 2762   2.783   5.259   7.436  0.0878 -0.7252  0.5029
   38CHL1   H17 2763   2.723   5.165   7.434  0.3792 -0.9023 -0.0873
   38CHL1   C13 2764   2.837   5.271   7.292 -0.6305  0.4967 -0.4235
   38CHL1   C18 2765   2.953   5.377   7.294 -0.5056 -0.1652  0.0195
   38CHL1  H18A 2766   2.918   5.470   7.343  1.2438  0.7133 -0.3140
   38CHL1  H18B 2767   3.045   5.332   7.338 -0.9893 -0.5744  0.6239
   38CHL1  H18C 2768   2.979   5.402   7.189  1.2286 -1.8373 -0.0214
   38CHL1   C12 2769   2.877   5.133   7.222 -0.4700  0.1771 -0.4815
   38CHL1  H12A 2770   2.964   5.089   7.275 -0.8389  0.0025 -0.0211
   38CHL1  H12B 2771   2.788   5.069   7.236 -1.2004  1.3821  0.5675
   38CHL1   C11 2772   2.902   5.153   7.074 -0.4040  0.1346 -0.6812
   38CHL1  H11A 2773   2.990   5.220   7.062  0.1373 -0.3137  0.6508
   38CHL1  H11B 2774   2.915   5.058   7.019 -0.5198  1.4046 -3.0149
   38CHL1    C9 2775   2.782   5.210   6.999 -0.1222  0.5594 -0.9529
   38CHL1    H9 2776   2.706   5.130   7.002 -0.4062  0.8507 -0.4227
   38CHL1   C10 2777   2.809   5.228   6.848 -0.3054  0.2487 -0.3911
   38CHL1   C19 2778   2.942   5.299   6.816  0.3485  0.5041 -0.7181
   38CHL1  H19A 2779   2.949   5.346   6.716  1.4041  2.9019  0.3952
   38CHL1  H19B 2780   2.951   5.376   6.896 -3.5901  0.6422 -0.1796
   38CHL1  H19C 2781   3.024   5.225   6.806 -0.6334 -0.5771 -0.9005
   38CHL1    C1 2782   2.810   5.091   6.775 -0.2386  0.2004 -0.2926
   38CHL1   H1A 2783   2.905   5.034   6.784  0.1383  1.0876  2.5753
   38CHL1   H1B 2784   2.735   5.026   6.826  1.9960 -0.4614  2.4076
   38CHL1    C2 2785   2.802   5.090   6.616 -0.4338 -0.6007 -0.3324
   38CHL1   H2A 2786   2.816   4.985   6.583  0.3474 -0.8790  0.7934
   38CHL1   H2B 2787   2.888   5.153   6.584 -1.2080  1.9617  2.2087
   38CHL1   C20 2788   2.876   5.245   7.556 -0.4133  0.3772  1.1973
   38CHL1   H20 2789   2.951   5.326   7.565 -0.9188  1.1566 -0.9827
   38CHL1   C21 2790   2.962   5.113   7.534 -0.5232 -0.6235  0.5003
   38CHL1  H21A 2791   2.996   5.082   7.636  1.9443 -1.3379 -0.4579
   38CHL1  H21B 2792   3.048   5.137   7.468  0.1149  1.1034  1.8799
   38CHL1  H21C 2793   2.892   5.041   7.486 -0.3979 -0.1293 -0.4416
   38CHL1   C22 2794   2.791   5.233   7.683  0.2752 -0.2840  0.4727
   38CHL1  H22A 2795   2.716   5.315   7.688  1.2025  0.5245  1.6663
   38CHL1  H22B 2796   2.731   5.140   7.672 -1.0899  0.8071 -2.5032
   38CHL1   C23 2797   2.879   5.243   7.803 -0.1085 -0.2892 -0.3527
   38CHL1  H23A 2798   2.936   5.152   7.833  1.5466  0.5600 -0.8501
   38CHL1  H23B 2799   2.937   5.337   7.801 -0.7316  0.0921 -1.0137
   38CHL1   C24 2800   2.799   5.262   7.938 -0.1503 -0.6512  0.2525
   38CHL1  H24A 2801   2.767   5.367   7.955 -1.1637 -1.2626  2.5300
   38CHL1  H24B 2802   2.710   5.195   7.935 -1.0536  0.5566 -1.5240
   38CHL1   C25 2803   2.879   5.237   8.059  0.3607  0.6998  0.0024
   38CHL1   H25 2804   2.977   5.284   8.036 -0.0812  0.2428 -3.2079
   38CHL1   C26 2805   2.823   5.305   8.180  0.6125  0.7929  0.2724
   38CHL1  H26A 2806   2.889   5.304   8.269  1.9686 -0.1739 -0.6952
   38CHL1  H26B 2807   2.790   5.410   8.162  1.1832  0.8259 -0.6601
   38CHL1  H26C 2808   2.735   5.243   8.209  2.1003 -1.1781  0.7720
   38CHL1   C27 2809   2.905   5.084   8.090  0.3399 -0.6252  0.1757
   38CHL1  H27A 2810   2.804   5.039   8.102  0.8411 -1.5021  1.3506
   38CHL1  H27B 2811   2.948   5.045   7.996 -0.2992 -1.3861  0.1883
   38CHL1  H27C 2812   2.981   5.063   8.168  0.4544 -3.0346 -0.5086
   39CHL1    C3 2813   2.788   3.336   6.883  0.0997 -0.1265 -0.3618
   39CHL1    H3 2814   2.896   3.312   6.874 -0.3034 -1.7032 -1.5728
   39CHL1    O3 2815   2.733   3.294   6.758 -0.2722 -0.4957  0.2324
   39CHL1   H3' 2816   2.745   3.199   6.771  1.6108 -0.2671  0.4342
   39CHL1    C4 2817   2.724   3.263   6.998 -0.0448  0.0291  0.2547
   39CHL1   H4A 2818   2.615   3.258   6.975  0.4486  0.7315 -2.6548
   39CHL1   H4B 2819   2.766   3.160   7.001 -3.0325 -1.3542 -1.1189
   39CHL1    C5 2820   2.740   3.319   7.141 -0.1098  0.6725 -1.2872
   39CHL1    C6 2821   2.790   3.235   7.238 -0.0262  0.2321 -0.3745
   39CHL1    H6 2822   2.780   3.130   7.206 -1.9094 -0.0716  1.0486
   39CHL1    C7 2823   2.825   3.281   7.373 -0.4094 -0.6544 -0.6248
   39CHL1   H7A 2824   2.787   3.210   7.449  1.3614 -1.6603 -0.6296
   39CHL1   H7B 2825   2.934   3.286   7.392 -0.4966 -1.3707  0.1043
   39CHL1    C8 2826   2.778   3.433   7.404  0.9307  0.1488  0.3862
   39CHL1    H8 2827   2.671   3.418   7.430  0.4626  3.6585  0.8820
   39CHL1   C14 2828   2.860   3.486   7.521 -0.5633  0.6647 -0.0815
   39CHL1   H14 2829   2.961   3.499   7.478 -0.0391 -1.2370  0.4945
   39CHL1   C15 2830   2.872   3.399   7.646 -0.3417 -0.2468 -0.8018
   39CHL1  H15A 2831   2.773   3.355   7.670  0.1252 -1.4242 -0.9480
   39CHL1  H15B 2832   2.942   3.313   7.636  3.3277  2.3658  0.3572
   39CHL1   C16 2833   2.917   3.503   7.752 -0.5675 -0.3155  0.4575
   39CHL1  H16A 2834   2.853   3.500   7.843 -2.7656  3.1099 -0.7933
   39CHL1  H16B 2835   3.025   3.485   7.772 -0.2615 -0.3075 -1.1037
   39CHL1   C17 2836   2.910   3.642   7.687  0.8641 -0.2183  0.1600
   39CHL1   H17 2837   3.010   3.668   7.648  1.0008  2.2300  1.9260
   39CHL1   C13 2838   2.812   3.624   7.569 -0.1606  0.1302  0.0132
   39CHL1   C18 2839   2.672   3.611   7.630 -0.4117  0.1607 -0.5327
   39CHL1  H18A 2840   2.672   3.559   7.729  1.9316 -1.3837 -1.2594
   39CHL1  H18B 2841   2.647   3.718   7.643 -0.5930 -0.0133  0.6918
   39CHL1  H18C 2842   2.592   3.563   7.569 -1.6039  1.5009 -0.0685
   39CHL1   C12 2843   2.816   3.720   7.455 -0.4552 -0.2607 -0.2994
   39CHL1  H12A 2844   2.770   3.819   7.474  2.7132  1.4498 -0.9163
   39CHL1  H12B 2845   2.919   3.754   7.432 -0.3626 -0.2222  0.1723
   39CHL1   C11 2846   2.749   3.673   7.329 -0.5193  0.2076  0.0001
   39CHL1  H11A 2847   2.643   3.667   7.362 -1.0259 -1.3264 -1.7553
   39CHL1  H11B 2848   2.778   3.737   7.243  1.6605  0.2740  0.7270
   39CHL1    C9 2849   2.794   3.525   7.292 -0.0828  0.1578  0.4984
   39CHL1    H9 2850   2.902   3.524   7.267 -0.4423 -1.6592 -1.2227
   39CHL1   C10 2851   2.729   3.470   7.160 -0.2127  0.6511 -0.3560
   39CHL1   C19 2852   2.582   3.515   7.158 -0.3727 -0.4027  0.1336
   39CHL1  H19A 2853   2.537   3.482   7.254 -0.5009  3.0393  1.4041
   39CHL1  H19B 2854   2.568   3.626   7.153  0.6898 -0.2596  0.0429
   39CHL1  H19C 2855   2.522   3.480   7.072  1.2825 -0.8505 -0.8820
   39CHL1    C1 2856   2.812   3.539   7.046 -0.2130 -0.1061 -0.0908
   39CHL1   H1A 2857   2.806   3.650   7.045  2.0760  0.0725 -1.7281
   39CHL1   H1B 2858   2.919   3.513   7.062 -0.0738  0.5975  0.1697
   39CHL1    C2 2859   2.779   3.491   6.898 -0.7969  0.2403 -0.8088
   39CHL1   H2A 2860   2.844   3.540   6.823  0.4241  0.4429  0.3345
   39CHL1   H2B 2861   2.674   3.521   6.876 -0.9404  0.9357  0.6788
   39CHL1   C20 2862   2.875   3.751   7.797 -0.2323  0.9328  0.0706
   39CHL1   H20 2863   2.772   3.737   7.836 -1.3307  3.0488 -1.7979
   39CHL1   C21 2864   2.857   3.887   7.733 -0.2137 -0.0768  0.4666
   39CHL1  H21A 2865   2.948   3.908   7.673 -0.2685  0.8112  0.6910
   39CHL1  H21B 2866   2.841   3.972   7.802 -0.5405  0.3778 -0.1611
   39CHL1  H21C 2867   2.778   3.890   7.655  2.3957 -0.4623 -2.3443
   39CHL1   C22 2868   2.977   3.753   7.914  0.5702  0.3358  0.4422
   39CHL1  H22A 2869   2.991   3.650   7.952  1.3355  0.2511 -0.0524
   39CHL1  H22B 2870   3.070   3.794   7.870 -0.8619  1.3234 -1.8511
   39CHL1   C23 2871   2.931   3.832   8.030  0.1761 -0.1124 -0.4469
   39CHL1  H23A 2872   2.931   3.938   7.996  1.9299 -0.4285 -1.5844
   39CHL1  H23B 2873   2.828   3.805   8.059 -0.0466  2.3296  1.4278
   39CHL1   C24 2874   3.011   3.805   8.160 -0.1970  0.1273 -0.0200
   39CHL1  H24A 2875   2.991   3.705   8.204  1.7354  1.1367  3.5851
   39CHL1  H24B 2876   3.121   3.801   8.147  0.1084 -1.7949  2.3180
   39CHL1   C25 2877   2.985   3.894   8.279 -0.4374  0.7361  0.3379
   39CHL1   H25 2878   3.046   3.859   8.365  1.9446  1.0463 -1.1386
   39CHL1   C26 2879   3.039   4.039   8.256 -0.0921  1.1937 -0.3524
   39CHL1  H26A 2880   3.125   4.033   8.186  0.7162  0.6568  0.6481
   39CHL1  H26B 2881   2.959   4.092   8.200 -1.8755 -0.2657  0.7110
   39CHL1  H26C 2882   3.057   4.102   8.346  0.1689  1.0043 -0.2689
   39CHL1   C27 2883   2.841   3.898   8.323  0.5176  0.6327 -0.3932
   39CHL1  H27A 2884   2.778   3.806   8.331 -0.8861  1.6791  1.3418
   39CHL1  H27B 2885   2.833   3.947   8.422 -0.7512  0.3608 -0.3440
   39CHL1  H27C 2886   2.780   3.946   8.243  0.0109 -0.2639 -0.5694
   40CHL1    C3 2887   0.279   2.706   6.728 -0.4295 -0.1885  0.7454
   40CHL1    H3 2888   0.176   2.692   6.764 -0.6492 -1.5584 -0.3465
   40CHL1    O3 2889   0.255   2.767   6.600 -0.0777 -0.2098 -0.2531
   40CHL1   H3' 2890   0.338   2.813   6.584  0.2411 -0.0458  1.6496
   40CHL1    C4 2891   0.335   2.815   6.828  0.2778  1.1395  0.0632
   40CHL1   H4A 2892   0.427   2.847   6.775  1.6337 -1.3962  0.7303
   40CHL1   H4B 2893   0.274   2.908   6.823 -2.3510 -0.5396 -0.7057
   40CHL1    C5 2894   0.362   2.759   6.970  0.5125 -0.4586  0.7580
   40CHL1    C6 2895   0.304   2.817   7.073 -0.2321  0.7881 -0.9742
   40CHL1    H6 2896   0.227   2.895   7.060 -0.4741  0.4825 -1.3962
   40CHL1    C7 2897   0.330   2.784   7.213 -0.2903  0.3562  0.1610
   40CHL1   H7A 2898   0.347   2.876   7.272  0.6415 -0.4843  1.2511
   40CHL1   H7B 2899   0.240   2.733   7.254 -0.0559  0.5864  0.9844
   40CHL1    C8 2900   0.455   2.702   7.230 -0.0700  0.0699  0.3172
   40CHL1    H8 2901   0.536   2.777   7.223 -1.8272  2.1075  0.7866
   40CHL1   C14 2902   0.457   2.632   7.365  0.6350 -0.1793  0.1363
   40CHL1   H14 2903   0.372   2.564   7.383  0.5487 -0.1876 -0.2953
   40CHL1   C15 2904   0.454   2.722   7.484  0.1171  1.0413  0.5594
   40CHL1  H15A 2905   0.502   2.821   7.470 -1.6490  1.9178  0.4144
   40CHL1  H15B 2906   0.354   2.750   7.522  0.1282  1.1440  0.5127
   40CHL1   C16 2907   0.512   2.640   7.601  0.6115 -0.1492 -0.0362
   40CHL1  H16A 2908   0.596   2.696   7.648  1.4794 -1.1634 -0.3560
   40CHL1  H16B 2909   0.432   2.619   7.676 -2.5645  2.6677 -2.3355
   40CHL1   C17 2910   0.552   2.500   7.538  0.0963  0.0034  0.1785
   40CHL1   H17 2911   0.461   2.437   7.542 -1.3213  1.8626 -1.1969
   40CHL1   C13 2912   0.573   2.536   7.390  0.2870  0.2464 -0.7940
   40CHL1   C18 2913   0.703   2.619   7.369 -0.3068  0.2189  0.8148
   40CHL1  H18A 2914   0.792   2.553   7.377 -0.0679  0.1289 -1.9051
   40CHL1  H18B 2915   0.718   2.662   7.268 -2.6383  1.0073  0.7419
   40CHL1  H18C 2916   0.723   2.699   7.443  2.2240 -0.6519  1.1512
   40CHL1   C12 2917   0.563   2.421   7.284  0.0838  0.1917  0.4327
   40CHL1  H12A 2918   0.645   2.347   7.294  0.8572  0.8679 -0.6702
   40CHL1  H12B 2919   0.466   2.366   7.289  1.0214 -1.4524  1.4888
   40CHL1   C11 2920   0.568   2.484   7.138  0.4939  0.5590 -0.2647
   40CHL1  H11A 2921   0.672   2.512   7.110 -0.3826  3.3972 -1.0211
   40CHL1  H11B 2922   0.543   2.402   7.068 -0.2808  2.1054 -1.8767
   40CHL1    C9 2923   0.460   2.592   7.120 -0.8278 -0.6587  0.6898
   40CHL1    H9 2924   0.367   2.535   7.141 -0.6102 -0.2107  3.1680
   40CHL1   C10 2925   0.466   2.648   6.974 -0.2716  0.0009  0.0863
   40CHL1   C19 2926   0.609   2.685   6.943 -0.0054  0.0392 -0.5941
   40CHL1  H19A 2927   0.662   2.726   7.032  0.7342  1.6825 -1.7386
   40CHL1  H19B 2928   0.656   2.588   6.916 -2.4918 -1.7115  0.9717
   40CHL1  H19C 2929   0.627   2.752   6.856 -0.2691  2.1254  0.8802
   40CHL1    C1 2930   0.411   2.535   6.879  0.1659 -0.1683 -0.5548
   40CHL1   H1A 2931   0.485   2.453   6.864 -0.7146 -1.0357 -0.2684
   40CHL1   H1B 2932   0.315   2.495   6.918  0.8117 -1.4700 -0.2416
   40CHL1    C2 2933   0.374   2.580   6.731 -0.6605  0.1701  0.2836
   40CHL1   H2A 2934   0.330   2.503   6.664 -0.5357 -0.4797  0.9378
   40CHL1   H2B 2935   0.469   2.613   6.683  0.3809 -1.1102  1.3909
   40CHL1   C20 2936   0.669   2.445   7.623  0.9098  0.1869 -0.2906
   40CHL1   H20 2937   0.742   2.529   7.633  0.0706  0.6838  2.3232
   40CHL1   C21 2938   0.749   2.327   7.560 -0.0475 -0.2379  0.7865
   40CHL1  H21A 2939   0.682   2.244   7.528  1.3187 -0.7708 -0.8965
   40CHL1  H21B 2940   0.819   2.287   7.636 -0.8784 -2.2973  0.5487
   40CHL1  H21C 2941   0.807   2.363   7.472 -1.6432  0.1459 -0.1519
   40CHL1   C22 2942   0.645   2.416   7.769 -0.7411 -0.5450  0.2826
   40CHL1  H22A 2943   0.742   2.423   7.822  0.3410 -3.2895 -1.1549
   40CHL1  H22B 2944   0.574   2.489   7.814  0.1620 -0.0150  0.8809
   40CHL1   C23 2945   0.582   2.273   7.789 -0.7115 -0.4303 -0.5913
   40CHL1  H23A 2946   0.488   2.275   7.730 -1.6595  1.1472  0.8725
   40CHL1  H23B 2947   0.647   2.190   7.754 -0.5185 -0.5275 -0.0098
   40CHL1   C24 2948   0.554   2.221   7.933  0.1313  0.0497 -0.1090
   40CHL1  H24A 2949   0.519   2.116   7.928 -0.5179  0.0597  2.4605
   40CHL1  H24B 2950   0.641   2.233   8.002 -0.2973 -3.5181  1.2683
   40CHL1   C25 2951   0.447   2.297   8.012  0.3538 -0.0140  0.2035
   40CHL1   H25 2952   0.400   2.218   8.075 -0.1410  1.6429  2.0260
   40CHL1   C26 2953   0.504   2.401   8.100  0.1518  0.4483  0.2369
   40CHL1  H26A 2954   0.528   2.344   8.192 -1.3170  1.9680  1.6219
   40CHL1  H26B 2955   0.588   2.460   8.056  0.1832  1.5023  1.6645
   40CHL1  H26C 2956   0.426   2.473   8.133 -0.5086 -0.1938  0.1103
   40CHL1   C27 2957   0.337   2.339   7.920  0.5149  0.2908 -0.4250
   40CHL1  H27A 2958   0.247   2.368   7.978  1.0747  0.4968  0.3515
   40CHL1  H27B 2959   0.379   2.415   7.850  3.2888 -1.1616 -0.4979
   40CHL1  H27C 2960   0.305   2.252   7.858  2.4075 -0.2870 -0.6485
   41CHL1    C3 2961   5.401   3.974   6.767  0.1666  0.3542 -0.0514
   41CHL1    H3 2962   5.324   3.894   6.759  1.6442 -0.9524 -2.3758
   41CHL1    O3 2963   5.392   4.054   6.654 -0.2725  0.0847  0.0116
   41CHL1   H3' 2964   5.426   4.003   6.580  1.4058 -0.9673  1.4376
   41CHL1    C4 2965   5.378   4.062   6.887 -0.1182 -0.2144 -0.7776
   41CHL1   H4A 2966   5.446   4.150   6.884 -0.4001 -0.0125 -2.4023
   41CHL1   H4B 2967   5.281   4.112   6.868 -1.9201 -3.6775 -1.4206
   41CHL1    C5 2968   5.374   3.990   7.025 -0.1631  1.2679  0.4560
   41CHL1    C6 2969   5.267   3.998   7.107  0.1528  0.6402  0.4694
   41CHL1    H6 2970   5.175   4.054   7.087  0.8974  1.7314  0.0268
   41CHL1    C7 2971   5.272   3.928   7.238  0.4470  0.5172 -0.3701
   41CHL1   H7A 2972   5.230   3.984   7.324 -1.9822 -1.0870 -0.4256
   41CHL1   H7B 2973   5.208   3.838   7.229  1.6115 -0.5418  1.3410
   41CHL1    C8 2974   5.412   3.896   7.284 -0.6503  0.1416  0.3410
   41CHL1    H8 2975   5.466   3.991   7.302 -2.1308  0.7004  2.2449
   41CHL1   C14 2976   5.413   3.824   7.417 -0.2598 -0.0585  0.0596
   41CHL1   H14 2977   5.351   3.733   7.398 -2.3531  1.4029 -0.4835
   41CHL1   C15 2978   5.335   3.883   7.538 -0.5297 -0.3463 -0.0217
   41CHL1  H15A 2979   5.365   3.990   7.541  1.4597 -0.8775  1.1907
   41CHL1  H15B 2980   5.226   3.885   7.561 -1.0019  1.1123 -2.1264
   41CHL1   C16 2981   5.400   3.813   7.659 -0.2292  0.0071 -0.3045
   41CHL1  H16A 2982   5.429   3.898   7.725  1.1066  0.0823 -0.9550
   41CHL1  H16B 2983   5.331   3.736   7.699  1.2133 -0.9601  0.4298
   41CHL1   C17 2984   5.517   3.729   7.599 -0.1239  0.2306  0.5940
   41CHL1   H17 2985   5.472   3.630   7.573 -1.5334  1.5219 -2.3918
   41CHL1   C13 2986   5.557   3.794   7.467  0.2547  0.1581  0.5690
   41CHL1   C18 2987   5.645   3.922   7.487  0.3018  0.2825 -0.5625
   41CHL1  H18A 2988   5.615   3.987   7.572  0.3712 -0.0603 -0.2744
   41CHL1  H18B 2989   5.752   3.901   7.510  0.5254  1.7381 -0.1888
   41CHL1  H18C 2990   5.652   3.976   7.390 -0.4469 -2.7084 -2.4266
   41CHL1   C12 2991   5.630   3.705   7.368  0.0227 -0.5316  0.1432
   41CHL1  H12A 2992   5.736   3.693   7.398  0.2734 -0.4629 -0.6713
   41CHL1  H12B 2993   5.569   3.614   7.353 -0.0375 -0.2469 -1.6589
   41CHL1   C11 2994   5.633   3.775   7.223  0.5305  0.3563  0.5630
   41CHL1  H11A 2995   5.708   3.856   7.230  0.1003  0.6416  2.6773
   41CHL1  H11B 2996   5.669   3.700   7.150 -1.0240  0.7909 -0.7134
   41CHL1    C9 2997   5.497   3.825   7.175 -0.0754 -0.1537 -0.2900
   41CHL1    H9 2998   5.439   3.737   7.139  1.4140 -1.8241  1.2117
   41CHL1   C10 2999   5.504   3.915   7.050 -0.0092  0.2265  0.0113
   41CHL1   C19 3000   5.613   4.024   7.070  0.2397 -0.1216 -0.7378
   41CHL1  H19A 3001   5.603   4.077   7.167 -2.9407 -2.3921  0.3694
   41CHL1  H19B 3002   5.716   3.982   7.069 -0.2854 -1.6549  1.4732
   41CHL1  H19C 3003   5.611   4.095   6.985 -3.0076  1.2866  0.3512
   41CHL1    C1 3004   5.530   3.826   6.922 -0.4271  0.5029 -0.2256
   41CHL1   H1A 3005   5.634   3.786   6.933  0.0602  1.3828 -1.4494
   41CHL1   H1B 3006   5.461   3.740   6.911 -0.4687  0.3296  1.2379
   41CHL1    C2 3007   5.541   3.908   6.789  0.2814  0.8735  0.4350
   41CHL1   H2A 3008   5.563   3.853   6.695 -0.5972  1.1817  0.0376
   41CHL1   H2B 3009   5.612   3.993   6.799 -0.2297  1.3189  0.3394
   41CHL1   C20 3010   5.638   3.697   7.692  0.2180 -0.8865 -0.1980
   41CHL1   H20 3011   5.732   3.731   7.644 -0.2034  1.3633  0.4308
   41CHL1   C21 3012   5.637   3.542   7.707 -0.2543 -0.1473 -0.7816
   41CHL1  H21A 3013   5.538   3.497   7.731 -1.9215  0.5640 -5.2966
   41CHL1  H21B 3014   5.710   3.512   7.784 -1.2204 -1.0623 -0.2020
   41CHL1  H21C 3015   5.664   3.499   7.608 -1.1334  1.7774 -1.9292
   41CHL1   C22 3016   5.635   3.778   7.826  0.5174  0.0124 -1.0518
   41CHL1  H22A 3017   5.634   3.884   7.794 -1.0632  0.4870  0.4222
   41CHL1  H22B 3018   5.539   3.772   7.881  0.9615  0.9443 -0.1191
   41CHL1   C23 3019   5.750   3.747   7.920 -0.5019 -0.5436  0.2100
   41CHL1  H23A 3020   5.751   3.642   7.956  3.6594 -0.1295  1.8926
   41CHL1  H23B 3021   5.845   3.760   7.864 -1.1882 -1.2171 -1.1561
   41CHL1   C24 3022   5.757   3.837   8.055 -0.1055 -0.0096  0.9799
   41CHL1  H24A 3023   5.847   3.805   8.112 -0.3380  1.0734  2.0046
   41CHL1  H24B 3024   5.772   3.937   8.010 -1.8028  0.5630  1.5955
   41CHL1   C25 3025   5.638   3.848   8.152 -0.0920 -0.2034 -0.2951
   41CHL1   H25 3026   5.543   3.863   8.097  0.3798  0.6873 -0.9162
   41CHL1   C26 3027   5.631   3.724   8.235  0.8143  0.2530  0.6687
   41CHL1  H26A 3028   5.528   3.726   8.278  0.0566  1.0152 -1.1069
   41CHL1  H26B 3029   5.636   3.629   8.178  1.8163 -0.7108  2.2847
   41CHL1  H26C 3030   5.702   3.728   8.320  0.6096  1.3351  0.7980
   41CHL1   C27 3031   5.641   3.973   8.247 -0.0613  0.4980 -0.3049
   41CHL1  H27A 3032   5.625   4.070   8.195  0.8525  0.4834 -0.6430
   41CHL1  H27B 3033   5.554   3.966   8.316 -0.5869 -0.9243 -1.0657
   41CHL1  H27C 3034   5.728   3.956   8.314 -0.0496 -3.7755 -1.1407
   42CHL1    C3 3035   2.036   1.711   6.895  0.4474  0.8329 -0.2066
   42CHL1    H3 3036   2.050   1.821   6.907  2.7695  0.3206  3.2621
   42CHL1    O3 3037   2.028   1.680   6.758  0.4304 -0.0601 -0.1190
   42CHL1   H3' 3038   2.038   1.585   6.753 -0.9295 -0.3161  1.2216
   42CHL1    C4 3039   2.159   1.649   6.972  1.0617  0.3011  0.0861
   42CHL1   H4A 3040   2.155   1.538   6.965  0.9037  0.3821 -1.3783
   42CHL1   H4B 3041   2.252   1.689   6.926  0.6571  0.3413 -0.7020
   42CHL1    C5 3042   2.153   1.700   7.116  0.4996 -0.1913 -0.1865
   42CHL1    C6 3043   2.261   1.765   7.176  0.6461  0.5287  0.8674
   42CHL1    H6 3044   2.354   1.797   7.128  0.6576  2.7935  2.2113
   42CHL1    C7 3045   2.259   1.802   7.322 -0.0146  0.2712  0.2836
   42CHL1   H7A 3046   2.361   1.773   7.354  1.0758  1.0949 -2.1613
   42CHL1   H7B 3047   2.259   1.913   7.328 -0.6331  0.2810  0.1748
   42CHL1    C8 3048   2.151   1.735   7.406 -0.0840  0.9804  0.1020
   42CHL1    H8 3049   2.188   1.632   7.423 -0.9737  0.6791  0.2161
   42CHL1   C14 3050   2.131   1.806   7.539  0.0533 -0.1403  0.1946
   42CHL1   H14 3051   2.079   1.903   7.518  0.0315 -0.5612 -1.9107
   42CHL1   C15 3052   2.259   1.833   7.627  0.2894  0.5203  0.7178
   42CHL1  H15A 3053   2.343   1.761   7.631 -0.0355 -0.0222 -1.1772
   42CHL1  H15B 3054   2.297   1.936   7.605  1.3938  0.2529  1.3349
   42CHL1   C16 3055   2.198   1.851   7.774 -0.2408  0.4607 -0.4838
   42CHL1  H16A 3056   2.248   1.781   7.843 -0.4082 -0.5144 -1.3255
   42CHL1  H16B 3057   2.210   1.954   7.813 -0.2640  0.3668 -0.2292
   42CHL1   C17 3058   2.048   1.815   7.771  0.7720 -0.1076 -0.1199
   42CHL1   H17 3059   1.988   1.905   7.748  0.2546 -1.0726 -2.8713
   42CHL1   C13 3060   2.034   1.734   7.636 -0.3403 -0.2010 -0.1381
   42CHL1   C18 3061   2.090   1.592   7.669  0.1071  0.1050 -0.4224
   42CHL1  H18A 3062   2.112   1.519   7.587  0.5907 -0.0703 -0.1404
   42CHL1  H18B 3063   2.182   1.610   7.729 -1.7056  1.1282  2.2346
   42CHL1  H18C 3064   2.024   1.539   7.741  1.3699  2.5212  2.6893
   42CHL1   C12 3065   1.901   1.743   7.567  0.3849  0.1027 -0.7818
   42CHL1  H12A 3066   1.823   1.695   7.630  1.4865 -1.5485 -0.6210
   42CHL1  H12B 3067   1.869   1.850   7.566 -2.1496 -0.5117  1.9421
   42CHL1   C11 3068   1.901   1.687   7.426 -0.5008  0.2816  0.4897
   42CHL1  H11A 3069   1.900   1.577   7.443 -1.9268 -0.0803 -1.6130
   42CHL1  H11B 3070   1.806   1.706   7.373  0.6551 -0.0912 -1.8515
   42CHL1    C9 3071   2.012   1.729   7.333 -0.0194 -0.3202  0.0325
   42CHL1    H9 3072   2.000   1.836   7.303  3.1245 -0.7313 -3.4860
   42CHL1   C10 3073   2.022   1.666   7.191 -1.1564 -0.2176 -0.2468
   42CHL1   C19 3074   2.034   1.516   7.214 -0.5797  0.0153 -0.1841
   42CHL1  H19A 3075   1.939   1.473   7.253  0.9500 -1.7437  1.8220
   42CHL1  H19B 3076   2.050   1.454   7.123 -0.7022 -1.4524  0.7658
   42CHL1  H19C 3077   2.120   1.492   7.280  0.9992 -1.3995 -2.5657
   42CHL1    C1 3078   1.901   1.700   7.107 -0.0585  0.0130 -0.4843
   42CHL1   H1A 3079   1.808   1.670   7.160  0.6017 -0.6235  0.3448
   42CHL1   H1B 3080   1.888   1.810   7.100 -0.5308 -0.1128 -1.7199
   42CHL1    C2 3081   1.908   1.655   6.962 -1.0940  0.6959 -0.6130
   42CHL1   H2A 3082   1.822   1.705   6.914  0.7209  2.2298 -2.4494
   42CHL1   H2B 3083   1.904   1.544   6.950 -0.1776  0.6479 -0.5476
   42CHL1   C20 3084   2.003   1.758   7.902  0.2474 -0.6819  0.4123
   42CHL1   H20 3085   2.039   1.656   7.927  1.1404 -0.2453  0.9872
   42CHL1   C21 3086   1.853   1.742   7.901  0.3199 -0.7746  0.1770
   42CHL1  H21A 3087   1.817   1.694   7.995 -1.3759  1.7684  0.9382
   42CHL1  H21B 3088   1.820   1.675   7.819  1.3424 -2.3044  0.9510
   42CHL1  H21C 3089   1.793   1.835   7.900 -0.2222 -1.0965  1.1144
   42CHL1   C22 3090   2.036   1.858   8.022  0.1497 -0.1648  0.1616
   42CHL1  H22A 3091   2.143   1.887   8.024  0.7444 -2.1956  0.0345
   42CHL1  H22B 3092   1.979   1.953   8.013  2.8173  1.9993  3.4975
   42CHL1   C23 3093   1.997   1.812   8.163  0.1265 -0.9559 -0.8207
   42CHL1  H23A 3094   2.008   1.891   8.241  1.7501 -0.6889 -1.2792
   42CHL1  H23B 3095   1.887   1.806   8.153  0.1220  0.0447 -1.6047
   42CHL1   C24 3096   2.051   1.671   8.204  0.5450 -0.2168 -0.9928
   42CHL1  H24A 3097   2.003   1.649   8.302 -0.3813 -2.7171 -1.9177
   42CHL1  H24B 3098   2.039   1.583   8.137  3.0247 -1.1804 -0.2704
   42CHL1   C25 3099   2.205   1.674   8.232  0.0649 -0.5696 -0.1610
   42CHL1   H25 3100   2.255   1.679   8.133  1.0914  0.7704  0.3870
   42CHL1   C26 3101   2.263   1.789   8.317 -0.3497 -1.0847 -0.7366
   42CHL1  H26A 3102   2.244   1.886   8.267  2.6537 -0.1530 -0.2735
   42CHL1  H26B 3103   2.229   1.789   8.423 -0.4041 -2.1586 -0.7412
   42CHL1  H26C 3104   2.373   1.775   8.330  0.0005  1.6365 -0.2536
   42CHL1   C27 3105   2.250   1.538   8.290  0.3066 -0.1876  0.4768
   42CHL1  H27A 3106   2.361   1.535   8.284  0.2791  0.9161 -1.4804
   42CHL1  H27B 3107   2.199   1.457   8.234 -4.0672  2.6606 -0.1886
   42CHL1  H27C 3108   2.238   1.530   8.400 -0.0663  0.1930  0.4678
   43CHL1    C3 3109   6.136   5.029   6.675 -0.7114  0.4359  0.4943
   43CHL1    H3 3110   6.178   4.926   6.683 -0.5638  0.6585  4.8826
   43CHL1    O3 3111   6.088   5.055   6.546  0.0346  0.2860  0.8328
   43CHL1   H3' 3112   6.155   5.092   6.488 -1.6621  1.2941 -0.5925
   43CHL1    C4 3113   6.009   5.052   6.769 -0.1969 -0.5449 -0.8820
   43CHL1   H4A 3114   5.983   5.159   6.753 -1.5215 -0.8422 -0.8495
   43CHL1   H4B 3115   5.925   4.993   6.726 -0.7452  0.6639 -1.5242
   43CHL1    C5 3116   6.047   5.017   6.910 -0.0283  0.2496  0.1624
   43CHL1    C6 3117   5.984   4.915   6.973 -0.6100  0.1636  0.4270
   43CHL1    H6 3118   5.898   4.871   6.920  1.2832 -3.5228  0.0736
   43CHL1    C7 3119   6.012   4.878   7.113 -0.1963  0.2437 -0.8774
   43CHL1   H7A 3120   5.920   4.853   7.170  1.1469 -1.0736  0.8340
   43CHL1   H7B 3121   6.076   4.787   7.112  1.9323  1.6485 -0.5309
   43CHL1    C8 3122   6.108   4.985   7.184  0.3153 -0.1686  0.2107
   43CHL1    H8 3123   6.046   5.074   7.206  1.2716  0.5663 -0.0206
   43CHL1   C14 3124   6.152   4.933   7.319 -1.2253  0.1706  0.3518
   43CHL1   H14 3125   6.210   4.842   7.295 -0.4510  0.6805  0.2518
   43CHL1   C15 3126   6.043   4.890   7.418 -0.6632  0.2491  0.0633
   43CHL1  H15A 3127   5.956   4.958   7.432 -1.2758 -0.2340 -1.2149
   43CHL1  H15B 3128   6.004   4.794   7.378 -0.1996  0.5301 -1.0859
   43CHL1   C16 3129   6.120   4.876   7.556  0.4941  0.1163 -0.5121
   43CHL1  H16A 3130   6.075   4.938   7.637 -1.9113  0.0817 -1.7486
   43CHL1  H16B 3131   6.128   4.769   7.586 -2.0485  0.3336  1.3454
   43CHL1   C17 3132   6.260   4.937   7.523  0.7506  0.5560 -0.8239
   43CHL1   H17 3133   6.317   4.846   7.495 -1.2300 -0.9120 -0.2703
   43CHL1   C13 3134   6.250   5.023   7.399 -0.2609 -0.3201 -0.1286
   43CHL1   C18 3135   6.181   5.154   7.443  0.3794  0.1522  0.7790
   43CHL1  H18A 3136   6.083   5.137   7.492 -0.5353 -1.4386 -1.4258
   43CHL1  H18B 3137   6.255   5.205   7.508  1.8695  0.3482 -0.9557
   43CHL1  H18C 3138   6.166   5.216   7.352 -1.2216 -1.1312  0.1136
   43CHL1   C12 3139   6.374   5.034   7.309 -0.8919 -0.1512  0.5591
   43CHL1  H12A 3140   6.447   5.105   7.353 -1.5804  0.5287  0.6459
   43CHL1  H12B 3141   6.420   4.935   7.293 -0.9922 -0.2078  0.6185
   43CHL1   C11 3142   6.339   5.101   7.176 -0.1214  0.1852 -0.1200
   43CHL1  H11A 3143   6.318   5.208   7.195 -0.2642 -0.0456  1.0468
   43CHL1  H11B 3144   6.426   5.095   7.106  0.4952 -0.2724  0.6723
   43CHL1    C9 3145   6.225   5.027   7.098  0.4521  0.0839 -0.7027
   43CHL1    H9 3146   6.261   4.931   7.056  1.0088  0.2268 -0.5627
   43CHL1   C10 3147   6.172   5.095   6.968 -0.0465  0.1489  0.2210
   43CHL1   C19 3148   6.137   5.247   6.991  0.0482  0.9487  0.2109
   43CHL1  H19A 3149   6.060   5.270   7.067  1.1603  0.9046  1.3830
   43CHL1  H19B 3150   6.236   5.294   7.006  2.4671 -3.1891 -1.2043
   43CHL1  H19C 3151   6.096   5.279   6.893 -0.7880  1.0483  0.5807
   43CHL1    C1 3152   6.291   5.085   6.861  0.6201 -0.3267  0.3612
   43CHL1   H1A 3153   6.373   5.151   6.896  0.6460 -0.0095 -0.2686
   43CHL1   H1B 3154   6.329   4.981   6.858 -0.7693 -0.8340 -1.5185
   43CHL1    C2 3155   6.249   5.126   6.713 -0.7222  0.4359  0.4387
   43CHL1   H2A 3156   6.341   5.126   6.650 -1.7485 -0.6963 -1.1056
   43CHL1   H2B 3157   6.212   5.231   6.714 -1.4040  0.2320  2.9933
   43CHL1   C20 3158   6.346   4.989   7.644  0.1191 -0.4964  0.4910
   43CHL1   H20 3159   6.296   5.080   7.684  1.7095  0.5009  0.3067
   43CHL1   C21 3160   6.488   5.021   7.592 -0.3434  0.4612  0.3468
   43CHL1  H21A 3161   6.509   4.935   7.525 -0.8085  1.3897 -1.0316
   43CHL1  H21B 3162   6.561   5.010   7.675 -0.1812 -0.1264  0.1359
   43CHL1  H21C 3163   6.496   5.122   7.548  0.4931  1.2493  2.1898
   43CHL1   C22 3164   6.352   4.896   7.768  0.0274  0.0864  0.5698
   43CHL1  H22A 3165   6.251   4.855   7.784 -1.0775  1.5395 -2.0844
   43CHL1  H22B 3166   6.430   4.818   7.754 -1.4010 -0.9109 -2.6789
   43CHL1   C23 3167   6.406   4.977   7.894 -0.5236 -0.0981  0.1905
   43CHL1  H23A 3168   6.514   5.000   7.886 -0.9390  1.9118 -0.4350
   43CHL1  H23B 3169   6.351   5.074   7.886 -1.1740 -0.5138 -0.5094
   43CHL1   C24 3170   6.387   4.903   8.032 -0.1910  0.8830  0.3442
   43CHL1  H24A 3171   6.277   4.898   8.044 -0.4021  0.0671 -1.5201
   43CHL1  H24B 3172   6.430   4.802   8.013  1.5439  1.1523  2.4538
   43CHL1   C25 3173   6.454   4.986   8.143  0.3828 -0.4198 -0.1065
   43CHL1   H25 3174   6.556   5.003   8.102  1.0043 -0.4419  1.3859
   43CHL1   C26 3175   6.393   5.123   8.156 -0.1009  0.7605 -0.1335
   43CHL1  H26A 3176   6.455   5.171   8.235 -0.6643  2.5729 -0.7284
   43CHL1  H26B 3177   6.390   5.179   8.060 -1.7393 -2.0703 -1.8526
   43CHL1  H26C 3178   6.286   5.107   8.180  0.1373 -1.7008 -0.4722
   43CHL1   C27 3179   6.480   4.907   8.271 -0.0568  1.0251 -0.0346
   43CHL1  H27A 3180   6.571   4.845   8.262  0.8609  1.8130  2.7180
   43CHL1  H27B 3181   6.500   4.978   8.355  1.6459  1.2683 -0.5987
   43CHL1  H27C 3182   6.389   4.853   8.303  0.1106  1.3516  1.0383
   44CHL1    C3 3183   0.064   4.138   6.753 -0.4971  0.3494 -0.3810
   44CHL1    H3 3184  -0.020   4.067   6.744  0.9760 -2.1382  3.1390
   44CHL1    O3 3185   0.118   4.170   6.625  0.1621 -0.7509  0.9093
   44CHL1   H3' 3186   0.192   4.229   6.640 -1.8345  1.6668  2.2595
   44CHL1    C4 3187  -0.003   4.261   6.812  1.0347  0.0264 -1.1491
   44CHL1   H4A 3188   0.057   4.350   6.782  0.3090 -0.0610 -2.9623
   44CHL1   H4B 3189  -0.102   4.275   6.763  1.4072 -0.7181 -2.1456
   44CHL1    C5 3190  -0.021   4.240   6.962  0.7775  0.7363 -0.0010
   44CHL1    C6 3191  -0.139   4.274   7.019  0.0885  0.1225 -0.1852
   44CHL1    H6 3192  -0.214   4.321   6.955 -0.4805 -1.6976 -0.9192
   44CHL1    C7 3193  -0.172   4.258   7.169 -0.5402 -0.2700  0.4821
   44CHL1   H7A 3194  -0.238   4.339   7.205 -0.1848 -0.3616  1.3837
   44CHL1   H7B 3195  -0.224   4.161   7.181  1.0717 -0.9451  2.8431
   44CHL1    C8 3196  -0.044   4.249   7.259  0.4199  1.2209 -0.1647
   44CHL1    H8 3197   0.002   4.350   7.265 -0.0011  1.3680  0.7536
   44CHL1   C14 3198  -0.087   4.207   7.400 -0.9712 -0.4954 -0.6360
   44CHL1   H14 3199  -0.141   4.112   7.377  0.8969 -1.6681 -0.4607
   44CHL1   C15 3200  -0.182   4.297   7.476  0.6221 -0.6088  0.0594
   44CHL1  H15A 3201  -0.157   4.404   7.456 -1.6818 -0.5117 -3.1317
   44CHL1  H15B 3202  -0.283   4.282   7.432  0.5743  1.2731 -0.5625
   44CHL1   C16 3203  -0.168   4.253   7.622  0.0904 -0.1006  0.6756
   44CHL1  H16A 3204  -0.137   4.342   7.681 -3.0144  1.3370  0.3926
   44CHL1  H16B 3205  -0.265   4.213   7.659 -0.1081  0.5556  0.8831
   44CHL1   C17 3206  -0.050   4.151   7.615  0.4096  0.0739 -0.0850
   44CHL1   H17 3207  -0.109   4.058   7.601  1.1252 -0.4045  0.0212
   44CHL1   C13 3208   0.027   4.181   7.489  0.1065  0.7587  0.4763
   44CHL1   C18 3209   0.117   4.306   7.520 -0.3209 -0.0544 -0.3233
   44CHL1  H18A 3210   0.156   4.346   7.424  1.4388  0.7366  0.6878
   44CHL1  H18B 3211   0.060   4.389   7.566  1.7012  0.3363  1.6740
   44CHL1  H18C 3212   0.199   4.275   7.588 -1.2474 -0.2110  0.7455
   44CHL1   C12 3213   0.109   4.066   7.429 -0.4669 -0.1308 -0.5699
   44CHL1  H12A 3214   0.205   4.054   7.484 -0.7644  0.8120  0.1827
   44CHL1  H12B 3215   0.052   3.971   7.435  1.4293 -1.2126  3.1233
   44CHL1   C11 3216   0.157   4.101   7.287 -0.1092 -0.2232 -0.0109
   44CHL1  H11A 3217   0.238   4.177   7.294 -0.0153 -0.2400 -0.8193
   44CHL1  H11B 3218   0.202   4.008   7.245 -0.7408 -0.6530  0.2454
   44CHL1    C9 3219   0.046   4.148   7.193  0.0692  0.3108 -0.2170
   44CHL1    H9 3220  -0.020   4.060   7.179  0.0046  0.6797 -2.6415
   44CHL1   C10 3221   0.094   4.186   7.046 -0.0156  0.3918  0.2081
   44CHL1   C19 3222   0.209   4.285   7.054  0.5732 -0.2299  0.1757
   44CHL1  H19A 3223   0.220   4.329   6.953  1.3560 -0.5889  0.0959
   44CHL1  H19B 3224   0.196   4.378   7.114  0.3280  0.6189 -1.1483
   44CHL1  H19C 3225   0.306   4.235   7.075 -0.5237 -2.1719  0.8958
   44CHL1    C1 3226   0.131   4.049   6.981  0.5466  0.6818 -0.4071
   44CHL1   H1A 3227   0.217   4.011   7.039  1.2091 -0.1639 -1.8949
   44CHL1   H1B 3228   0.052   3.970   6.975  1.2372 -0.0661  0.1611
   44CHL1    C2 3229   0.175   4.071   6.836  0.1634 -0.0545  0.0520
   44CHL1   H2A 3230   0.213   3.981   6.783 -1.5570 -0.7650 -0.0267
   44CHL1   H2B 3231   0.266   4.135   6.843  0.2110 -0.2251  1.2361
   44CHL1   C20 3232   0.013   4.131   7.751 -0.3625 -0.3662 -0.4825
   44CHL1   H20 3233   0.068   4.222   7.782  1.6795 -1.3101 -1.1985
   44CHL1   C21 3234   0.122   4.019   7.743 -0.1380 -0.1004 -0.0583
   44CHL1  H21A 3235   0.216   4.047   7.690 -0.1072  0.4585  0.2789
   44CHL1  H21B 3236   0.088   3.919   7.708 -1.2266 -1.1689  3.5575
   44CHL1  H21C 3237   0.160   3.990   7.844  1.0275  0.4207 -0.3196
   44CHL1   C22 3238  -0.083   4.085   7.870 -0.1963  0.2229  0.3917
   44CHL1  H22A 3239  -0.156   4.168   7.872  0.1167  0.4936  0.7737
   44CHL1  H22B 3240  -0.132   3.988   7.846  3.6256 -1.5661 -1.0902
   44CHL1   C23 3241  -0.028   4.082   8.016 -0.1549  0.8227 -0.5907
   44CHL1  H23A 3242   0.070   4.031   8.023  0.2196  1.7506  1.5581
   44CHL1  H23B 3243   0.001   4.180   8.059 -0.0650  0.0048  1.3124
   44CHL1   C24 3244  -0.126   4.021   8.125 -0.0063 -0.8459  0.3869
   44CHL1  H24A 3245  -0.215   4.086   8.138  0.8380  0.0915  1.8003
   44CHL1  H24B 3246  -0.171   3.929   8.081  0.8930 -0.0066 -2.5019
   44CHL1   C25 3247  -0.063   4.004   8.259 -0.0021 -0.1214 -0.5140
   44CHL1   H25 3248   0.013   4.084   8.275 -0.0818 -0.2298  0.5152
   44CHL1   C26 3249  -0.170   4.009   8.376 -1.0172  0.1019  0.4958
   44CHL1  H26A 3250  -0.107   3.969   8.459  1.7663  1.7769 -0.6457
   44CHL1  H26B 3251  -0.211   4.110   8.395 -1.0568  0.1235  0.2948
   44CHL1  H26C 3252  -0.253   3.941   8.350 -1.3561  0.6975  0.0049
   44CHL1   C27 3253   0.016   3.875   8.281 -0.2228  1.0235 -0.0288
   44CHL1  H27A 3254   0.089   3.884   8.197 -1.0073 -1.5684 -1.1055
   44CHL1  H27B 3255   0.074   3.867   8.375  1.3014 -0.4352 -1.0278
   44CHL1  H27C 3256  -0.045   3.783   8.266  0.5172  0.6823 -1.0791
   45CHL1    C3 3257   1.404   5.115   6.756  0.4891 -0.1807 -0.4887
   45CHL1    H3 3258   1.356   5.212   6.780  1.4795 -0.2518  2.1742
   45CHL1    O3 3259   1.406   5.097   6.621 -0.5555  0.2881 -0.3425
   45CHL1   H3' 3260   1.356   5.015   6.616  0.3730 -0.3077  0.0157
   45CHL1    C4 3261   1.553   5.103   6.807 -0.1831  0.3439 -0.5743
   45CHL1   H4A 3262   1.589   5.004   6.772  0.6733  0.5683 -0.3438
   45CHL1   H4B 3263   1.611   5.175   6.745  1.9047 -1.2266 -0.5418
   45CHL1    C5 3264   1.567   5.125   6.953 -0.2525 -0.5740 -0.0183
   45CHL1    C6 3265   1.638   5.227   7.000  0.0719 -0.8610 -0.0880
   45CHL1    H6 3266   1.703   5.297   6.945 -0.1691  2.1668  3.1365
   45CHL1    C7 3267   1.646   5.259   7.144  0.5982 -0.3666 -0.8925
   45CHL1   H7A 3268   1.749   5.284   7.178  0.3098  0.5012 -0.6315
   45CHL1   H7B 3269   1.583   5.346   7.174 -0.9530 -0.8966 -2.4349
   45CHL1    C8 3270   1.597   5.145   7.238 -1.0284 -0.0082  0.6176
   45CHL1    H8 3271   1.669   5.061   7.234  0.2020  0.7404  3.8315
   45CHL1   C14 3272   1.578   5.193   7.378 -0.6224  0.5235  0.0597
   45CHL1   H14 3273   1.497   5.268   7.384  0.6995  1.9462  0.7925
   45CHL1   C15 3274   1.690   5.270   7.441 -0.6974 -0.0401  0.0464
   45CHL1  H15A 3275   1.787   5.222   7.416  1.5134  3.4794  1.1038
   45CHL1  H15B 3276   1.687   5.376   7.407 -1.3434 -0.7087 -2.1256
   45CHL1   C16 3277   1.655   5.266   7.593  0.1141 -0.4992  0.3299
   45CHL1  H16A 3278   1.746   5.245   7.653  0.5130 -0.0454 -0.0996
   45CHL1  H16B 3279   1.620   5.366   7.626 -0.5797 -0.1968 -1.2066
   45CHL1   C17 3280   1.545   5.165   7.613  0.0149  0.1342  0.4191
   45CHL1   H17 3281   1.449   5.219   7.598 -0.1232 -0.7250 -2.4284
   45CHL1   C13 3282   1.547   5.082   7.483  0.7947 -1.0510 -0.6378
   45CHL1   C18 3283   1.660   4.976   7.494 -0.0203 -0.6933  0.1782
   45CHL1  H18A 3284   1.627   4.891   7.558 -0.7341  0.6406  1.6528
   45CHL1  H18B 3285   1.673   4.928   7.395 -2.3982 -0.8899 -0.0981
   45CHL1  H18C 3286   1.759   5.013   7.527 -0.5572 -1.6536  3.2413
   45CHL1   C12 3287   1.416   5.017   7.441  0.1794  0.0391  1.2668
   45CHL1  H12A 3288   1.389   4.926   7.499 -0.9090  0.0220  0.7647
   45CHL1  H12B 3289   1.342   5.100   7.452  2.0752  1.9704  0.1281
   45CHL1   C11 3290   1.429   4.966   7.292  0.4403 -0.0118  0.2343
   45CHL1  H11A 3291   1.502   4.883   7.293 -0.5090 -0.8661  0.4774
   45CHL1  H11B 3292   1.333   4.927   7.251  0.6190  0.1092 -0.3159
   45CHL1    C9 3293   1.468   5.078   7.187 -0.0142 -0.7143 -0.4162
   45CHL1    H9 3294   1.399   5.165   7.186  0.8979  0.0819  1.2439
   45CHL1   C10 3295   1.477   5.039   7.043  0.6906  0.0912 -0.0778
   45CHL1   C19 3296   1.538   4.905   7.035 -0.4726 -0.3094  0.2707
   45CHL1  H19A 3297   1.631   4.895   7.095 -1.1099  1.4411  1.6347
   45CHL1  H19B 3298   1.466   4.830   7.073 -1.2153  0.7276  0.9520
   45CHL1  H19C 3299   1.561   4.871   6.931  1.5712 -1.7718  1.1221
   45CHL1    C1 3300   1.334   5.024   6.980  0.0048  0.5445  0.4819
   45CHL1   H1A 3301   1.287   4.933   7.023  1.7769 -1.1335 -0.9212
   45CHL1   H1B 3302   1.279   5.111   7.021  1.7981  0.9838  2.1080
   45CHL1    C2 3303   1.320   5.003   6.827  0.7192 -0.1196  0.9227
   45CHL1   H2A 3304   1.216   4.988   6.791  1.6839 -0.4947 -1.9547
   45CHL1   H2B 3305   1.380   4.911   6.810  0.9107  0.2298 -0.3706
   45CHL1   C20 3306   1.545   5.094   7.749  0.1030 -0.3120 -0.4085
   45CHL1   H20 3307   1.628   5.020   7.750 -0.0450 -0.4879 -0.7053
   45CHL1   C21 3308   1.410   5.027   7.779  0.1284 -0.4034 -0.1210
   45CHL1  H21A 3309   1.393   4.939   7.714 -0.2200  0.5390 -1.3404
   45CHL1  H21B 3310   1.323   5.096   7.784  0.1438 -0.3769 -0.2248
   45CHL1  H21C 3311   1.413   4.977   7.879 -1.8486 -1.4366 -0.5357
   45CHL1   C22 3312   1.575   5.189   7.865  0.1869 -0.6003 -0.2170
   45CHL1  H22A 3313   1.674   5.236   7.845  0.7105 -0.5344  2.2038
   45CHL1  H22B 3314   1.493   5.264   7.867 -0.7330 -1.5736 -0.2990
   45CHL1   C23 3315   1.602   5.126   8.006 -0.2899  0.1164 -0.1827
   45CHL1  H23A 3316   1.508   5.111   8.063  0.6891  1.8136  2.0046
   45CHL1  H23B 3317   1.646   5.024   7.993  2.4710  1.3091 -1.0150
   45CHL1   C24 3318   1.701   5.217   8.086  0.0146 -0.1975  0.0431
   45CHL1  H24A 3319   1.800   5.228   8.035 -0.0095  0.3276  0.0958
   45CHL1  H24B 3320   1.659   5.320   8.084  0.4251 -0.0291  0.0265
   45CHL1   C25 3321   1.715   5.172   8.230 -0.0993  0.3240  0.1110
   45CHL1   H25 3322   1.794   5.245   8.257  1.3509 -1.1377 -0.0102
   45CHL1   C26 3323   1.591   5.190   8.312  0.5093  0.7587  0.4506
   45CHL1  H26A 3324   1.565   5.297   8.323 -2.3284  0.2004 -0.1180
   45CHL1  H26B 3325   1.501   5.144   8.265  0.6018 -1.0124  1.8957
   45CHL1  H26C 3326   1.591   5.142   8.413 -2.6992 -0.9893 -0.2507
   45CHL1   C27 3327   1.778   5.032   8.236  0.3720  0.1384  0.2468
   45CHL1  H27A 3328   1.830   5.020   8.334  0.7963 -1.3385 -0.1470
   45CHL1  H27B 3329   1.706   4.948   8.228  0.3902 -0.2643  3.1626
   45CHL1  H27C 3330   1.842   5.024   8.146 -0.3133  0.1980 -0.2502
   46CHL1    C3 3331   1.985   2.259   6.981 -0.3840 -0.1438  0.4850
   46CHL1    H3 3332   2.046   2.349   7.008  0.7405 -0.4017 -1.0507
   46CHL1    O3 3333   2.010   2.230   6.845  1.1292  0.2512  0.1826
   46CHL1   H3' 3334   1.925   2.202   6.812  2.3103 -2.0849 -1.1719
   46CHL1    C4 3335   2.047   2.148   7.064  0.3199 -0.2159  0.2503
   46CHL1   H4A 3336   1.998   2.054   7.032 -2.4434  0.4579  2.1202
   46CHL1   H4B 3337   2.156   2.142   7.041  0.8372  0.5673  2.2115
   46CHL1    C5 3338   2.032   2.184   7.213 -0.3225 -0.3298  0.6464
   46CHL1    C6 3339   2.132   2.195   7.296 -0.4801 -0.0520  0.8006
   46CHL1    H6 3340   2.235   2.176   7.263 -0.7778  0.2248 -0.3064
   46CHL1    C7 3341   2.123   2.218   7.448  0.0700  0.4312  0.6698
   46CHL1   H7A 3342   2.168   2.132   7.503 -1.2298 -1.8137 -1.5339
   46CHL1   H7B 3343   2.170   2.315   7.473  1.1312 -0.0532  0.6548
   46CHL1    C8 3344   1.972   2.211   7.488 -0.3226  0.4079  0.1852
   46CHL1    H8 3345   1.936   2.106   7.492 -1.2031  0.7013  0.2312
   46CHL1   C14 3346   1.958   2.277   7.625  0.2665  0.0843 -0.9546
   46CHL1   H14 3347   1.997   2.381   7.615  0.0422  0.2780  0.0434
   46CHL1   C15 3348   2.048   2.226   7.741  0.2914 -0.2835 -0.3293
   46CHL1  H15A 3349   2.064   2.116   7.742 -1.8327 -0.6434  0.2018
   46CHL1  H15B 3350   2.147   2.273   7.727  0.1546  0.2040  0.2859
   46CHL1   C16 3351   1.982   2.272   7.871 -0.9194  0.3444 -0.3104
   46CHL1  H16A 3352   1.957   2.186   7.938  4.5454  0.8955  3.0764
   46CHL1  H16B 3353   2.047   2.339   7.930 -0.2549  1.4273 -2.1895
   46CHL1   C17 3354   1.847   2.333   7.828 -0.3579  0.2410  0.3528
   46CHL1   H17 3355   1.882   2.434   7.799  3.4479 -0.7293  1.0391
   46CHL1   C13 3356   1.818   2.267   7.688 -0.1711  0.4512  0.2072
   46CHL1   C18 3357   1.779   2.115   7.710 -0.3582 -0.0114  0.1447
   46CHL1  H18A 3358   1.674   2.103   7.745 -0.2811 -0.1167  0.3427
   46CHL1  H18B 3359   1.787   2.057   7.616  1.5932 -2.8271  1.9177
   46CHL1  H18C 3360   1.847   2.064   7.781  1.0774 -0.8225 -1.7223
   46CHL1   C12 3361   1.729   2.345   7.584  0.6015 -0.2280 -0.3374
   46CHL1  H12A 3362   1.624   2.345   7.619  0.4621  2.4601 -0.5369
   46CHL1  H12B 3363   1.771   2.447   7.573  1.8127 -0.7451 -0.6690
   46CHL1   C11 3364   1.725   2.281   7.447 -0.2138  0.2611 -0.0410
   46CHL1  H11A 3365   1.670   2.185   7.453 -1.1712  0.8093  0.1103
   46CHL1  H11B 3366   1.666   2.350   7.384 -1.0774 -0.5766 -0.1821
   46CHL1    C9 3367   1.870   2.277   7.393 -0.1466 -0.2700  0.1699
   46CHL1    H9 3368   1.907   2.382   7.399  3.4527 -1.4699  1.9979
   46CHL1   C10 3369   1.889   2.211   7.259 -0.0972 -0.4447  0.6993
   46CHL1   C19 3370   1.807   2.078   7.261  0.2686 -0.6015 -0.1935
   46CHL1  H19A 3371   1.699   2.097   7.274 -0.1002 -1.4221 -1.8907
   46CHL1  H19B 3372   1.823   2.025   7.165  1.8791 -0.2965 -0.1339
   46CHL1  H19C 3373   1.836   2.001   7.337  0.3094 -1.6620 -1.2515
   46CHL1    C1 3374   1.815   2.310   7.157 -0.1037 -0.0846  0.4231
   46CHL1   H1A 3375   1.705   2.302   7.169 -0.2290 -0.8408 -1.0673
   46CHL1   H1B 3376   1.850   2.413   7.177  1.6069 -0.2814 -1.3152
   46CHL1    C2 3377   1.837   2.277   7.010 -0.6825  0.0501 -0.8172
   46CHL1   H2A 3378   1.805   2.361   6.946  1.7854  1.1684 -0.7221
   46CHL1   H2B 3379   1.780   2.185   6.985  1.1584 -1.3053 -0.2815
   46CHL1   C20 3380   1.736   2.339   7.931 -0.8633 -0.0315  0.1627
   46CHL1   H20 3381   1.707   2.236   7.958 -1.3062  0.4690  1.7053
   46CHL1   C21 3382   1.612   2.413   7.879  0.0469  0.4593  0.0695
   46CHL1  H21A 3383   1.557   2.341   7.814 -2.1800  0.7707  1.5023
   46CHL1  H21B 3384   1.631   2.512   7.833 -0.6761  0.3962 -0.3815
   46CHL1  H21C 3385   1.546   2.422   7.968 -0.7158  0.9023 -0.5275
   46CHL1   C22 3386   1.802   2.403   8.059  0.6724  0.0543  0.1606
   46CHL1  H22A 3387   1.894   2.349   8.090 -0.1877 -1.8991 -0.5003
   46CHL1  H22B 3388   1.835   2.509   8.049  0.8506 -0.0870 -0.8659
   46CHL1   C23 3389   1.720   2.392   8.186  0.2007 -0.0085 -0.5913
   46CHL1  H23A 3390   1.625   2.448   8.169  1.1878  2.8805  2.2348
   46CHL1  H23B 3391   1.699   2.284   8.202 -0.8525  0.3236  0.4399
   46CHL1   C24 3392   1.785   2.460   8.308 -0.3118  0.1131  0.6883
   46CHL1  H24A 3393   1.806   2.567   8.288 -0.5486  0.3778  1.7627
   46CHL1  H24B 3394   1.708   2.469   8.387 -2.6542  0.8234 -1.5715
   46CHL1   C25 3395   1.929   2.395   8.353  0.5153 -0.1922  0.4229
   46CHL1   H25 3396   1.998   2.377   8.268  0.9082 -0.6863  0.8384
   46CHL1   C26 3397   2.000   2.493   8.443 -0.1799  0.1510  0.4093
   46CHL1  H26A 3398   2.025   2.590   8.395  0.8080  1.1699  2.7856
   46CHL1  H26B 3399   1.936   2.528   8.527 -0.2861 -0.7457  0.7114
   46CHL1  H26C 3400   2.087   2.445   8.494 -0.0131  1.0231  0.9744
   46CHL1   C27 3401   1.901   2.265   8.420  0.2225  0.6343 -0.2520
   46CHL1  H27A 3402   1.848   2.277   8.517 -0.1296  0.7396 -0.4538
   46CHL1  H27B 3403   1.839   2.201   8.354 -1.9581  1.5740  0.7939
   46CHL1  H27C 3404   2.003   2.226   8.441  1.0701  2.3597 -0.9789
   47CHL1    C3 3405   5.912   1.678   6.745 -0.1174 -0.5760  0.4147
   47CHL1    H3 3406   5.975   1.588   6.760 -0.3554 -0.6676  0.8711
   47CHL1    O3 3407   5.915   1.723   6.605  0.1600 -0.2972  0.4801
   47CHL1   H3' 3408   5.840   1.783   6.596  0.7941  0.4435 -0.0369
   47CHL1    C4 3409   5.769   1.625   6.783 -0.3218 -0.7784 -0.7414
   47CHL1   H4A 3410   5.698   1.704   6.749  0.4995  0.9720  1.3575
   47CHL1   H4B 3411   5.765   1.538   6.714  0.5532  0.1443 -1.9998
   47CHL1    C5 3412   5.756   1.587   6.928  0.1332 -0.6337  0.5433
   47CHL1    C6 3413   5.699   1.477   6.977  1.2638 -0.1285  0.1597
   47CHL1    H6 3414   5.671   1.398   6.904  1.0307  0.4705 -0.4083
   47CHL1    C7 3415   5.676   1.437   7.121 -0.1595 -0.1508 -0.4687
   47CHL1   H7A 3416   5.572   1.400   7.134 -0.6612  0.6549 -1.9114
   47CHL1   H7B 3417   5.755   1.360   7.140 -2.1282 -2.0328  0.5174
   47CHL1    C8 3418   5.692   1.550   7.216 -0.4506 -0.5222 -0.0255
   47CHL1    H8 3419   5.602   1.615   7.225 -0.6122 -0.8765  1.0713
   47CHL1   C14 3420   5.717   1.495   7.360  0.3329 -0.0120  0.0548
   47CHL1   H14 3421   5.807   1.429   7.356 -0.1380 -0.6301 -0.5529
   47CHL1   C15 3422   5.600   1.403   7.413 -0.9149  0.1410 -0.0403
   47CHL1  H15A 3423   5.499   1.442   7.388 -0.1982  0.2895 -3.0571
   47CHL1  H15B 3424   5.620   1.303   7.370  0.1186 -0.0389  0.8177
   47CHL1   C16 3425   5.619   1.405   7.563 -0.6693  0.3258  0.5813
   47CHL1  H16A 3426   5.530   1.443   7.617  0.0030  2.1629  0.4867
   47CHL1  H16B 3427   5.653   1.311   7.612  2.8562  1.1063 -0.0455
   47CHL1   C17 3428   5.732   1.515   7.595  0.0792 -0.1358 -0.2790
   47CHL1   H17 3429   5.826   1.458   7.581  1.4055  2.0392 -0.7111
   47CHL1   C13 3430   5.738   1.603   7.466  0.7145 -0.3258  0.5389
   47CHL1   C18 3431   5.610   1.699   7.485  0.3805 -0.4159 -0.1805
   47CHL1  H18A 3432   5.588   1.742   7.385  1.6616 -0.1958 -0.3832
   47CHL1  H18B 3433   5.528   1.633   7.519  1.8977 -2.8229 -0.9653
   47CHL1  H18C 3434   5.630   1.781   7.557  1.6588 -1.2209  0.4089
   47CHL1   C12 3435   5.858   1.681   7.431 -0.2166 -0.6946  0.4921
   47CHL1  H12A 3436   5.865   1.766   7.502  2.1123  1.8742 -2.5386
   47CHL1  H12B 3437   5.950   1.619   7.434  0.3922 -0.0032 -1.5440
   47CHL1   C11 3438   5.849   1.747   7.291  0.3276  0.1503  1.0946
   47CHL1  H11A 3439   5.774   1.829   7.296  2.0352  1.9857 -1.1332
   47CHL1  H11B 3440   5.949   1.789   7.265  0.9180 -1.0965  1.2988
   47CHL1    C9 3441   5.816   1.640   7.176 -0.1802  0.1546 -0.3423
   47CHL1    H9 3442   5.899   1.566   7.171 -0.0416  0.2758  0.0712
   47CHL1   C10 3443   5.813   1.696   7.029 -0.2151 -0.3254 -0.1750
   47CHL1   C19 3444   5.729   1.821   7.024  0.4741 -0.0574  0.9323
   47CHL1  H19A 3445   5.772   1.910   7.075  0.6087  0.6415 -0.3726
   47CHL1  H19B 3446   5.702   1.845   6.919  0.0163  1.1146  1.2970
   47CHL1  H19C 3447   5.638   1.807   7.086 -0.6800 -0.1238 -0.7137
   47CHL1    C1 3448   5.962   1.740   6.990  0.3100  0.6240 -0.3912
   47CHL1   H1A 3449   6.010   1.823   7.047  0.3031  2.7676 -3.2950
   47CHL1   H1B 3450   6.025   1.650   7.006 -0.1067  0.1063 -1.6225
   47CHL1    C2 3451   5.975   1.776   6.837  0.5885 -0.1415 -1.0142
   47CHL1   H2A 3452   6.082   1.792   6.811  0.5236  1.5405 -0.3818
   47CHL1   H2B 3453   5.922   1.873   6.827  0.5081  0.3266  2.6897
   47CHL1   C20 3454   5.732   1.575   7.738 -0.1931 -0.7544  0.2927
   47CHL1   H20 3455   5.668   1.665   7.728 -1.5865 -1.7025  0.4726
   47CHL1   C21 3456   5.877   1.606   7.779 -0.4847 -0.3897 -0.2166
   47CHL1  H21A 3457   5.917   1.663   7.692 -0.6145  1.0039  0.6165
   47CHL1  H21B 3458   5.940   1.519   7.807 -0.6590 -0.5786 -0.4056
   47CHL1  H21C 3459   5.871   1.673   7.867 -2.9903  0.0282 -0.6201
   47CHL1   C22 3460   5.674   1.476   7.840  0.6225 -0.3011  0.4088
   47CHL1  H22A 3461   5.567   1.461   7.813  0.8361  2.2327 -2.4073
   47CHL1  H22B 3462   5.734   1.382   7.843 -1.2345 -1.5244  0.9853
   47CHL1   C23 3463   5.668   1.535   7.986  0.3341 -0.2660 -0.2003
   47CHL1  H23A 3464   5.766   1.524   8.037  0.7528  2.0035 -0.4514
   47CHL1  H23B 3465   5.655   1.644   7.971 -1.0491 -0.4148 -0.2537
   47CHL1   C24 3466   5.549   1.471   8.065 -0.3543 -0.6341 -0.3221
   47CHL1  H24A 3467   5.454   1.499   8.014 -1.3302  2.2582  2.7469
   47CHL1  H24B 3468   5.555   1.360   8.060  0.2155 -0.5998 -0.4602
   47CHL1   C25 3469   5.544   1.500   8.222 -0.3668 -0.3132  0.2683
   47CHL1   H25 3470   5.637   1.459   8.268  1.2960  3.5359  0.7798
   47CHL1   C26 3471   5.534   1.646   8.262 -0.3036 -0.2479 -0.2863
   47CHL1  H26A 3472   5.565   1.657   8.368  0.0940 -0.1654 -0.4106
   47CHL1  H26B 3473   5.600   1.715   8.205 -2.2347  1.5294 -0.5154
   47CHL1  H26C 3474   5.429   1.680   8.247 -0.9949 -2.8655 -2.0131
   47CHL1   C27 3475   5.426   1.438   8.291  0.3050  0.7738  0.1813
   47CHL1  H27A 3476   5.416   1.331   8.264  0.1381  0.8634 -0.1171
   47CHL1  H27B 3477   5.435   1.446   8.402 -3.8287 -0.5644  0.7953
   47CHL1  H27C 3478   5.327   1.479   8.264 -0.0105  0.2281  0.4782
   48CHL1    C3 3479   5.888   3.592   6.539  0.5032  0.2951 -0.0362
   48CHL1    H3 3480   5.928   3.689   6.575 -0.5279 -0.1435  2.4666
   48CHL1    O3 3481   5.847   3.620   6.408  0.0645 -0.0697  0.2094
   48CHL1   H3' 3482   5.810   3.536   6.379  2.5543 -0.2760 -2.9286
   48CHL1    C4 3483   6.005   3.497   6.551  0.8298  0.0142 -0.4463
   48CHL1   H4A 3484   5.965   3.406   6.502 -0.1911 -0.8516  1.8185
   48CHL1   H4B 3485   6.089   3.535   6.490 -0.1983  0.7420 -1.4520
   48CHL1    C5 3486   6.040   3.468   6.695 -0.4720  0.4184  0.1646
   48CHL1    C6 3487   6.166   3.482   6.737  0.1322  0.0053  0.1185
   48CHL1    H6 3488   6.246   3.517   6.670 -0.0496  0.5067  0.1593
   48CHL1    C7 3489   6.211   3.454   6.876  0.1219 -0.0110 -0.1377
   48CHL1   H7A 3490   6.295   3.382   6.875 -0.7232 -1.0576  1.0814
   48CHL1   H7B 3491   6.250   3.544   6.929 -0.4103 -0.1308  0.4683
   48CHL1    C8 3492   6.106   3.385   6.965  0.4606  0.6082  0.3242
   48CHL1    H8 3493   6.113   3.281   6.927  1.3608  1.2189 -1.2686
   48CHL1   C14 3494   6.134   3.397   7.109 -0.5176  0.1457  0.1480
   48CHL1   H14 3495   6.112   3.501   7.142  3.0519  0.5581  1.6859
   48CHL1   C15 3496   6.282   3.386   7.148  0.0238  0.9227  0.0189
   48CHL1  H15A 3497   6.310   3.287   7.106 -0.1887  0.8964 -0.0590
   48CHL1  H15B 3498   6.363   3.452   7.110 -1.7507  2.3346 -1.4773
   48CHL1   C16 3499   6.274   3.367   7.300 -0.2268  0.6754 -0.3978
   48CHL1  H16A 3500   6.310   3.265   7.325 -1.4204 -0.2371 -2.2043
   48CHL1  H16B 3501   6.332   3.444   7.356  0.4351  0.4674 -0.7891
   48CHL1   C17 3502   6.119   3.356   7.333  0.0706 -0.1067  0.0309
   48CHL1   H17 3503   6.087   3.462   7.344 -2.4757 -0.4633 -2.6976
   48CHL1   C13 3504   6.048   3.315   7.205 -0.5690  0.0794 -0.1210
   48CHL1   C18 3505   6.060   3.163   7.176 -0.5585 -0.1002 -0.0648
   48CHL1  H18A 3506   6.024   3.098   7.259 -1.5704  0.3173 -0.1611
   48CHL1  H18B 3507   6.016   3.131   7.079 -2.5566 -1.0194  1.0780
   48CHL1  H18C 3508   6.166   3.133   7.191 -0.2173  0.9497 -0.2500
   48CHL1   C12 3509   5.898   3.366   7.190  0.2301 -0.6758  0.2013
   48CHL1  H12A 3510   5.839   3.299   7.256  0.9750 -1.3425  0.2017
   48CHL1  H12B 3511   5.894   3.470   7.228  2.3968 -0.9428  1.3310
   48CHL1   C11 3512   5.863   3.357   7.040 -0.6967  0.2001 -0.5103
   48CHL1  H11A 3513   5.859   3.248   7.020  1.4848  0.2586 -1.5840
   48CHL1  H11B 3514   5.759   3.396   7.036 -0.9743 -0.5806 -1.0351
   48CHL1    C9 3515   5.962   3.427   6.943 -0.1893 -0.2009  0.3675
   48CHL1    H9 3516   5.968   3.533   6.975 -1.0563 -0.0654  0.1182
   48CHL1   C10 3517   5.926   3.431   6.792  0.3743  0.6464 -0.4335
   48CHL1   C19 3518   5.875   3.279   6.753  0.3576  0.6616  1.0424
   48CHL1  H19A 3519   5.944   3.200   6.788 -1.5276 -0.9453  1.2903
   48CHL1  H19B 3520   5.770   3.268   6.789  0.9082  1.5177  3.0520
   48CHL1  H19C 3521   5.868   3.276   6.643 -1.0037  0.5674  1.1066
   48CHL1    C1 3522   5.812   3.539   6.767  0.4875  0.1130  0.6741
   48CHL1   H1A 3523   5.725   3.514   6.831  0.3271  0.0317  0.4249
   48CHL1   H1B 3524   5.858   3.633   6.804  1.6840 -0.1043 -0.1794
   48CHL1    C2 3525   5.767   3.545   6.621 -0.6622 -0.2302 -0.2879
   48CHL1   H2A 3526   5.692   3.626   6.603  1.4078  1.5567 -1.3523
   48CHL1   H2B 3527   5.706   3.454   6.606  0.1420 -0.7918 -0.2101
   48CHL1   C20 3528   6.084   3.294   7.464 -0.2557  0.6675  0.7285
   48CHL1   H20 3529   6.089   3.184   7.447  1.0296  0.5336  1.8234
   48CHL1   C21 3530   5.936   3.313   7.506  0.0506 -0.4730 -0.1402
   48CHL1  H21A 3531   5.922   3.286   7.613 -1.9850  1.5249  0.1831
   48CHL1  H21B 3532   5.866   3.251   7.445  0.5921 -1.2936  0.0535
   48CHL1  H21C 3533   5.904   3.417   7.485  1.1756  0.4764  2.4722
   48CHL1   C22 3534   6.188   3.326   7.574  0.0094 -0.9931 -0.3484
   48CHL1  H22A 3535   6.282   3.277   7.540  0.7643 -0.6759  1.1921
   48CHL1  H22B 3536   6.215   3.433   7.583  0.7309 -1.2271  0.4992
   48CHL1   C23 3537   6.152   3.259   7.706  0.7799 -0.2676 -0.5955
   48CHL1  H23A 3538   6.068   3.324   7.738  2.5295  1.5814  0.4745
   48CHL1  H23B 3539   6.120   3.153   7.696 -2.0066  0.2690  1.3246
   48CHL1   C24 3540   6.254   3.281   7.816 -0.2220  0.8703  0.0374
   48CHL1  H24A 3541   6.348   3.240   7.773  0.0084 -0.0150  1.3303
   48CHL1  H24B 3542   6.273   3.390   7.827  1.5543  0.9800 -2.9864
   48CHL1   C25 3543   6.238   3.208   7.955 -0.6975 -0.4323  0.2525
   48CHL1   H25 3544   6.222   3.098   7.945  2.3180 -0.9090 -0.4387
   48CHL1   C26 3545   6.375   3.206   8.039  0.3167 -0.8511 -0.4644
   48CHL1  H26A 3546   6.444   3.123   8.010  0.0636 -1.1052 -0.3525
   48CHL1  H26B 3547   6.413   3.310   8.031 -0.8971 -0.4181 -0.8572
   48CHL1  H26C 3548   6.338   3.191   8.143  1.4615  1.6899  0.3783
   48CHL1   C27 3549   6.127   3.287   8.030  0.1869 -0.3814  0.2510
   48CHL1  H27A 3550   6.038   3.303   7.966 -0.2552  2.5032  1.4502
   48CHL1  H27B 3551   6.103   3.241   8.128  0.7813 -0.8322  0.1944
   48CHL1  H27C 3552   6.167   3.387   8.056 -2.4414  0.9367 -0.4637
   49CHL1    C3 3553   3.203   0.539   6.485 -0.9418  0.8957 -0.1618
   49CHL1    H3 3554   3.301   0.500   6.522  0.1479  3.0428 -0.6367
   49CHL1    O3 3555   3.220   0.557   6.348 -0.2151  0.3707  0.2137
   49CHL1   H3' 3556   3.146   0.607   6.314 -1.0813 -0.6435  0.5568
   49CHL1    C4 3557   3.104   0.435   6.516 -0.3951  0.6031 -0.2783
   49CHL1   H4A 3558   3.005   0.475   6.484 -0.4280  0.1968 -0.6996
   49CHL1   H4B 3559   3.128   0.354   6.444 -1.9452  1.9020 -2.3814
   49CHL1    C5 3560   3.102   0.398   6.671 -0.5918  0.7846  0.2136
   49CHL1    C6 3561   3.136   0.274   6.713 -1.0063 -0.1594 -0.2664
   49CHL1    H6 3562   3.177   0.200   6.643 -0.4046 -0.3098  0.2327
   49CHL1    C7 3563   3.132   0.228   6.856 -0.5026  0.1045  0.0196
   49CHL1   H7A 3564   3.070   0.136   6.865  1.9750 -1.4619  2.6349
   49CHL1   H7B 3565   3.227   0.202   6.907 -1.5868 -2.5955  0.8417
   49CHL1    C8 3566   3.051   0.333   6.943  0.2174  0.1260  0.2898
   49CHL1    H8 3567   2.945   0.322   6.911  1.1141  0.2809 -3.0675
   49CHL1   C14 3568   3.071   0.298   7.087 -0.9024  0.8416 -0.1220
   49CHL1   H14 3569   3.182   0.305   7.095 -0.7109 -1.3704 -0.1415
   49CHL1   C15 3570   3.009   0.164   7.135 -1.0024 -0.6334 -0.1096
   49CHL1  H15A 3571   2.909   0.143   7.092 -1.6716  1.5178  0.2914
   49CHL1  H15B 3572   3.077   0.080   7.109  0.5142  0.7699 -0.8102
   49CHL1   C16 3573   3.008   0.187   7.287  0.4665 -0.6035 -0.5082
   49CHL1  H16A 3574   2.901   0.189   7.317  0.5014  0.1716 -0.4059
   49CHL1  H16B 3575   3.060   0.104   7.340 -2.2103 -2.4722 -0.5953
   49CHL1   C17 3576   3.052   0.339   7.319  0.0679  0.3373  0.1153
   49CHL1   H17 3577   3.161   0.344   7.341 -0.1166 -1.5041  1.6930
   49CHL1   C13 3578   3.026   0.408   7.183  0.4649  0.1629 -0.0149
   49CHL1   C18 3579   2.876   0.434   7.168  0.5707 -0.4415 -0.3375
   49CHL1  H18A 3580   2.853   0.524   7.230  0.5420 -0.8036  0.1815
   49CHL1  H18B 3581   2.844   0.459   7.065 -0.4084  1.7643  0.4410
   49CHL1  H18C 3582   2.815   0.348   7.203  3.7270 -2.1018  1.5997
   49CHL1   C12 3583   3.109   0.537   7.161  0.2660  0.3423 -0.0305
   49CHL1  H12A 3584   3.074   0.617   7.228  0.0242  0.0311  0.2152
   49CHL1  H12B 3585   3.218   0.527   7.180  0.9288  3.8106 -1.3503
   49CHL1   C11 3586   3.079   0.583   7.017  0.2155  0.1310 -0.6832
   49CHL1  H11A 3587   2.973   0.615   7.026 -0.3325 -1.4472 -1.1530
   49CHL1  H11B 3588   3.138   0.672   6.988  1.7664 -1.1661 -1.7005
   49CHL1    C9 3589   3.102   0.476   6.909 -0.1427  0.3096 -0.5247
   49CHL1    H9 3590   3.212   0.468   6.920 -0.1437 -0.7617 -1.1353
   49CHL1   C10 3591   3.066   0.511   6.766  0.2112  0.5947  0.1706
   49CHL1   C19 3592   2.922   0.560   6.745  0.1743 -0.5221  0.2637
   49CHL1  H19A 3593   2.880   0.605   6.838 -1.5061 -1.2839 -0.0972
   49CHL1  H19B 3594   2.923   0.642   6.670 -1.2754 -1.7650 -1.1803
   49CHL1  H19C 3595   2.860   0.473   6.715 -1.1372  0.9433 -1.4801
   49CHL1    C1 3596   3.159   0.635   6.720  0.4514  0.0252 -0.2819
   49CHL1   H1A 3597   3.120   0.732   6.758  4.4206  2.4440 -1.7909
   49CHL1   H1B 3598   3.260   0.618   6.762 -0.6967 -0.5338  2.4879
   49CHL1    C2 3599   3.173   0.670   6.568 -0.2184  0.4377 -0.4122
   49CHL1   H2A 3600   3.255   0.743   6.548 -0.0479 -0.1070 -1.7867
   49CHL1   H2B 3601   3.076   0.718   6.545 -1.1225 -0.8828  0.5596
   49CHL1   C20 3602   2.982   0.389   7.451  0.3811  0.2040  0.7395
   49CHL1   H20 3603   2.874   0.400   7.428  1.0399 -1.1119 -4.0954
   49CHL1   C21 3604   3.032   0.530   7.489 -0.5800 -0.2733  0.1421
   49CHL1  H21A 3605   3.013   0.570   7.590  1.5435  1.0271  0.0914
   49CHL1  H21B 3606   2.985   0.604   7.422 -2.3864 -1.7582 -0.3194
   49CHL1  H21C 3607   3.143   0.532   7.476 -0.6192 -1.5455 -0.5812
   49CHL1   C22 3608   2.992   0.288   7.568 -0.6012 -0.0521 -0.0907
   49CHL1  H22A 3609   2.952   0.191   7.532  0.5117 -0.6761  0.3171
   49CHL1  H22B 3610   3.101   0.279   7.587 -0.9695  0.2362  2.5300
   49CHL1   C23 3611   2.924   0.322   7.699  0.8648 -0.3880 -0.1929
   49CHL1  H23A 3612   2.957   0.419   7.743 -2.4837 -0.5959  3.2113
   49CHL1  H23B 3613   2.816   0.336   7.682  0.6057 -1.9051  0.0613
   49CHL1   C24 3614   2.958   0.222   7.812 -0.1707  0.5231  0.1310
   49CHL1  H24A 3615   2.929   0.123   7.771  0.0852 -0.8993  3.1381
   49CHL1  H24B 3616   3.068   0.226   7.804 -0.1242  0.5119  0.7360
   49CHL1   C25 3617   2.923   0.256   7.955  0.6345 -0.5902 -0.7315
   49CHL1   H25 3618   2.992   0.333   7.995  0.7311 -0.7056 -0.6737
   49CHL1   C26 3619   2.785   0.311   7.964  0.8985 -0.1835 -0.3405
   49CHL1  H26A 3620   2.768   0.392   7.889 -0.7428 -0.0371  0.1483
   49CHL1  H26B 3621   2.719   0.225   7.941  1.2101 -0.8099  0.9905
   49CHL1  H26C 3622   2.766   0.355   8.065 -0.4682  1.7507 -1.3683
   49CHL1   C27 3623   2.931   0.126   8.037  0.0349 -0.4011  0.0234
   49CHL1  H27A 3624   2.860   0.053   7.991 -0.4347  1.1458 -1.8179
   49CHL1  H27B 3625   3.033   0.083   8.037  0.0370 -0.4339 -1.3526
   49CHL1  H27C 3626   2.895   0.149   8.140 -2.0993 -1.7005 -0.3639
   50CHL1    C3 3627   3.916   1.413   6.724 -0.1923 -0.0632 -0.0911
   50CHL1    H3 3628   3.900   1.309   6.688  0.5245 -0.1599 -0.1451
   50CHL1    O3 3629   3.940   1.501   6.614 -1.1895 -0.2116 -0.0833
   50CHL1   H3' 3630   4.024   1.468   6.583  0.5700  1.2135  2.7554
   50CHL1    C4 3631   3.790   1.451   6.813  0.3812  0.3072  0.1335
   50CHL1   H4A 3632   3.791   1.556   6.849  2.2597  0.2372  0.4209
   50CHL1   H4B 3633   3.702   1.443   6.747  1.5154  2.7102 -1.8730
   50CHL1    C5 3634   3.766   1.369   6.935  0.3441  0.5164 -0.3011
   50CHL1    C6 3635   3.650   1.305   6.975  0.1246  0.0809 -0.8595
   50CHL1    H6 3636   3.569   1.308   6.900 -0.7728 -0.0245  0.0922
   50CHL1    C7 3637   3.626   1.219   7.093  0.1487  0.5204  0.7638
   50CHL1   H7A 3638   3.523   1.227   7.134 -0.0029  2.1186  0.1504
   50CHL1   H7B 3639   3.636   1.117   7.052 -0.8275  0.2970  1.0407
   50CHL1    C8 3640   3.740   1.241   7.197  0.2478  0.3099 -0.7009
   50CHL1    H8 3641   3.719   1.342   7.238  0.6708 -0.0889  0.5172
   50CHL1   C14 3642   3.728   1.149   7.314 -0.7303  0.2237  0.1645
   50CHL1   H14 3643   3.750   1.049   7.272 -0.1296  0.5262 -0.2651
   50CHL1   C15 3644   3.589   1.122   7.377  0.2327 -0.5902 -1.1433
   50CHL1  H15A 3645   3.531   1.216   7.379 -0.8661 -1.2474 -1.2324
   50CHL1  H15B 3646   3.524   1.046   7.329 -0.8540 -1.4175  1.4480
   50CHL1   C16 3647   3.625   1.075   7.522  0.2182  0.2253  0.4175
   50CHL1  H16A 3648   3.594   1.151   7.597 -0.1262 -0.2994  0.8203
   50CHL1  H16B 3649   3.587   0.972   7.541 -0.2613 -1.1279 -5.8249
   50CHL1   C17 3650   3.786   1.069   7.533 -0.8216  0.2965 -0.4310
   50CHL1   H17 3651   3.810   0.966   7.498 -0.7979 -0.7048  2.2863
   50CHL1   C13 3652   3.834   1.170   7.426 -0.5163 -0.4341 -0.0293
   50CHL1   C18 3653   3.829   1.318   7.482  0.2414  0.5076  0.0370
   50CHL1  H18A 3654   3.834   1.385   7.394  0.2424  1.3852  0.6867
   50CHL1  H18B 3655   3.730   1.326   7.532 -0.0335 -1.3813 -0.1318
   50CHL1  H18C 3656   3.913   1.345   7.550  0.9257 -1.4940  0.0327
   50CHL1   C12 3657   3.976   1.156   7.362  0.0963 -0.3607 -0.6497
   50CHL1  H12A 3658   4.044   1.203   7.437 -0.9606  0.7040 -0.3248
   50CHL1  H12B 3659   3.993   1.050   7.332 -1.8082 -0.3711 -1.8418
   50CHL1   C11 3660   4.002   1.244   7.241  0.2395 -0.2902 -0.6667
   50CHL1  H11A 3661   4.023   1.344   7.285 -0.1428 -1.0515  1.3441
   50CHL1  H11B 3662   4.098   1.219   7.189 -0.1455 -1.3588 -0.9018
   50CHL1    C9 3663   3.885   1.247   7.133 -0.6018 -0.0886  0.3682
   50CHL1    H9 3664   3.894   1.154   7.073 -0.4366  1.0484 -1.4254
   50CHL1   C10 3665   3.898   1.363   7.024  0.6667  0.0615  0.3543
   50CHL1   C19 3666   3.908   1.502   7.091 -0.0420 -0.2318  0.4610
   50CHL1  H19A 3667   3.816   1.516   7.152 -1.0871  1.6733 -1.4140
   50CHL1  H19B 3668   4.002   1.502   7.150  0.1396 -1.2344  0.1909
   50CHL1  H19C 3669   3.914   1.582   7.014 -0.8783 -1.5702 -1.0591
   50CHL1    C1 3670   4.030   1.327   6.939  0.5269 -0.5876 -0.9236
   50CHL1   H1A 3671   4.122   1.356   6.994  0.2770  0.3955 -1.0095
   50CHL1   H1B 3672   4.035   1.216   6.933 -0.7686 -0.5678 -4.1598
   50CHL1    C2 3673   4.041   1.408   6.810  0.0220  0.3113 -0.8062
   50CHL1   H2A 3674   4.129   1.367   6.755  1.4060  1.3415  0.5301
   50CHL1   H2B 3675   4.086   1.507   6.836 -0.2268  0.4727 -0.9848
   50CHL1   C20 3676   3.835   1.067   7.672  0.5938  0.2680  0.2035
   50CHL1   H20 3677   3.812   1.167   7.716 -0.6937  0.0018  0.1733
   50CHL1   C21 3678   3.985   1.029   7.669  0.0453  0.0054  0.0698
   50CHL1  H21A 3679   4.041   1.118   7.632  1.2610 -0.5304  0.5569
   50CHL1  H21B 3680   3.998   0.935   7.611 -2.7748  0.7928 -2.0622
   50CHL1  H21C 3681   4.020   1.019   7.774  0.4086  1.0281  0.0587
   50CHL1   C22 3682   3.758   0.978   7.771 -0.0573  0.4202  0.6680
   50CHL1  H22A 3683   3.652   1.012   7.777 -1.0223 -1.6372 -2.3225
   50CHL1  H22B 3684   3.758   0.873   7.734  1.6834 -0.0941  1.9747
   50CHL1   C23 3685   3.825   0.975   7.915 -0.4247  0.9453 -0.0407
   50CHL1  H23A 3686   3.921   0.920   7.929 -0.8881  0.5674  2.1320
   50CHL1  H23B 3687   3.839   1.081   7.943  1.2345 -0.0562  3.5521
   50CHL1   C24 3688   3.744   0.903   8.020  0.1378 -0.2775  0.1568
   50CHL1  H24A 3689   3.639   0.937   8.021  0.3511  0.4094  0.7236
   50CHL1  H24B 3690   3.747   0.796   7.990 -2.2523 -1.1393  2.6261
   50CHL1   C25 3691   3.790   0.927   8.166  0.1236 -0.2825  0.4253
   50CHL1   H25 3692   3.894   0.890   8.180  0.6029  1.4664  1.8632
   50CHL1   C26 3693   3.805   1.081   8.201  0.5476  0.5215  0.2877
   50CHL1  H26A 3694   3.888   1.122   8.139  1.2642 -1.2537  0.0319
   50CHL1  H26B 3695   3.702   1.117   8.177 -0.4848 -2.6056 -0.4721
   50CHL1  H26C 3696   3.832   1.084   8.308 -0.0521  2.5326  0.4360
   50CHL1   C27 3697   3.693   0.858   8.258 -0.7494  0.0673 -0.3357
   50CHL1  H27A 3698   3.720   0.863   8.366 -0.6584  0.6973 -0.3873
   50CHL1  H27B 3699   3.601   0.919   8.251 -0.1827  0.8029 -1.7216
   50CHL1  H27C 3700   3.667   0.757   8.219 -0.9121  0.1125 -0.3455
   51CHL1    C3 3701   3.745   0.306   6.683 -0.8984 -0.0180 -0.3863
   51CHL1    H3 3702   3.736   0.415   6.703  1.9278 -0.3016  3.9231
   51CHL1    O3 3703   3.803   0.285   6.558 -0.0236 -0.2048 -0.3300
   51CHL1   H3' 3704   3.852   0.367   6.541  0.7432 -0.2607  1.3145
   51CHL1    C4 3705   3.840   0.242   6.788 -0.2911  0.5808  0.1868
   51CHL1   H4A 3706   3.855   0.133   6.773 -2.7069  0.2538 -0.2878
   51CHL1   H4B 3707   3.940   0.288   6.773  0.0259 -0.4610 -1.0896
   51CHL1    C5 3708   3.786   0.262   6.927  0.4195  0.3111  0.1207
   51CHL1    C6 3709   3.858   0.328   7.020 -0.5510 -0.3569  0.1219
   51CHL1    H6 3710   3.954   0.372   6.991  0.0569 -1.4499  0.4368
   51CHL1    C7 3711   3.821   0.346   7.162 -0.8499  0.3469  0.0833
   51CHL1   H7A 3712   3.913   0.336   7.223  0.3727  0.4802 -1.6713
   51CHL1   H7B 3713   3.782   0.448   7.179 -3.7714 -0.5802 -0.5593
   51CHL1    C8 3714   3.714   0.239   7.200 -0.1838 -0.0590  0.3140
   51CHL1    H8 3715   3.763   0.140   7.201 -1.3473 -0.6627 -0.0428
   51CHL1   C14 3716   3.663   0.263   7.347  0.2328  0.2339  0.0355
   51CHL1   H14 3717   3.611   0.361   7.342  1.2276  0.8941  1.7976
   51CHL1   C15 3718   3.761   0.276   7.465 -0.4170 -0.5336 -0.2073
   51CHL1  H15A 3719   3.824   0.184   7.463 -1.2431 -1.1247  0.1392
   51CHL1  H15B 3720   3.839   0.355   7.465 -0.6728 -0.2702  1.0650
   51CHL1   C16 3721   3.668   0.264   7.584 -0.3088 -0.0792 -0.8322
   51CHL1  H16A 3722   3.718   0.197   7.657  0.7907 -0.9711 -2.3449
   51CHL1  H16B 3723   3.657   0.365   7.629  0.6723  0.2531 -1.2992
   51CHL1   C17 3724   3.534   0.217   7.532  0.1701 -0.2039  0.0028
   51CHL1   H17 3725   3.473   0.304   7.501 -0.3020 -0.7698 -0.7005
   51CHL1   C13 3726   3.558   0.162   7.394 -0.0504  0.0811  0.7399
   51CHL1   C18 3727   3.605   0.018   7.393 -0.0857 -0.3021 -0.0943
   51CHL1  H18A 3728   3.521  -0.046   7.429  0.5019 -1.0453 -0.0073
   51CHL1  H18B 3729   3.635  -0.025   7.295 -1.6988  0.5077 -0.9782
   51CHL1  H18C 3730   3.689  -0.007   7.462  0.6610 -2.2480 -1.5899
   51CHL1   C12 3731   3.440   0.187   7.296  0.1025 -0.2522 -0.2537
   51CHL1  H12A 3732   3.357   0.116   7.315 -0.8189  0.3351 -1.8390
   51CHL1  H12B 3733   3.401   0.291   7.303  0.1799 -0.2209 -0.2796
   51CHL1   C11 3734   3.474   0.162   7.148 -0.1817 -0.4074  0.0977
   51CHL1  H11A 3735   3.491   0.053   7.139  1.1318 -0.1228 -1.4037
   51CHL1  H11B 3736   3.386   0.168   7.080 -0.4761 -1.1593  0.4055
   51CHL1    C9 3737   3.595   0.247   7.100  0.0379 -0.0578 -0.2898
   51CHL1    H9 3738   3.572   0.356   7.103  1.7488  0.3201  0.8271
   51CHL1   C10 3739   3.648   0.206   6.955 -1.2624  0.3873  0.7831
   51CHL1   C19 3740   3.662   0.046   6.944  0.4910  0.4735 -0.0296
   51CHL1  H19A 3741   3.563  -0.005   6.945  1.2391 -1.0057  0.0242
   51CHL1  H19B 3742   3.711   0.014   6.850  1.2939 -3.2592  1.5193
   51CHL1  H19C 3743   3.711   0.002   7.033 -3.6905  0.0340  2.3457
   51CHL1    C1 3744   3.551   0.261   6.832  0.2649  0.8018  0.2545
   51CHL1   H1A 3745   3.465   0.192   6.839  2.7117 -2.4462  1.0793
   51CHL1   H1B 3746   3.524   0.368   6.848 -0.6898  0.6219 -0.1067
   51CHL1    C2 3747   3.611   0.243   6.690 -0.6344  0.2734 -0.0532
   51CHL1   H2A 3748   3.549   0.280   6.606  1.1498 -1.0916 -2.0612
   51CHL1   H2B 3749   3.627   0.135   6.667 -1.0437  0.1651  0.1525
   51CHL1   C20 3750   3.448   0.140   7.634  0.7734 -0.3546  0.2965
   51CHL1   H20 3751   3.507   0.056   7.675 -0.7567 -1.3183  0.6297
   51CHL1   C21 3752   3.319   0.075   7.583  1.0826  0.3028  0.8422
   51CHL1  H21A 3753   3.242   0.047   7.658 -1.4595  0.2868 -1.6071
   51CHL1  H21B 3754   3.335  -0.016   7.522  0.1534  0.5938  0.1424
   51CHL1  H21C 3755   3.261   0.137   7.511 -0.1679 -0.8087  0.8439
   51CHL1   C22 3756   3.411   0.232   7.749 -0.4726 -0.8280  0.8774
   51CHL1  H22A 3757   3.472   0.324   7.766 -1.9869  0.2808  0.5488
   51CHL1  H22B 3758   3.314   0.277   7.718 -0.8171 -1.8651  0.4360
   51CHL1   C23 3759   3.393   0.165   7.893  0.2217  0.3023 -0.1227
   51CHL1  H23A 3760   3.329   0.074   7.899 -0.8171  1.0278  0.1111
   51CHL1  H23B 3761   3.493   0.125   7.921 -0.5331  0.2635  2.8721
   51CHL1   C24 3762   3.366   0.278   7.999  0.8437  0.1251  0.1669
   51CHL1  H24A 3763   3.453   0.345   8.015  0.4499  0.6962 -0.0515
   51CHL1  H24B 3764   3.279   0.341   7.974  1.4061  0.4609 -0.9856
   51CHL1   C25 3765   3.333   0.219   8.136 -0.7380 -0.2431  0.2457
   51CHL1   H25 3766   3.231   0.174   8.135 -1.2341  0.8474 -0.2789
   51CHL1   C26 3767   3.432   0.114   8.193  0.7184 -0.2452  0.0618
   51CHL1  H26A 3768   3.446   0.025   8.128  0.9267 -0.5652  0.5448
   51CHL1  H26B 3769   3.535   0.153   8.209  0.6628 -0.0006 -0.1592
   51CHL1  H26C 3770   3.403   0.071   8.291  2.3760 -0.5363  0.4514
   51CHL1   C27 3771   3.323   0.337   8.243 -0.3051  0.1810 -1.1109
   51CHL1  H27A 3772   3.253   0.418   8.213 -0.8507 -0.0885 -0.5906
   51CHL1  H27B 3773   3.284   0.295   8.338 -1.3510  1.1082 -1.1057
   51CHL1  H27C 3774   3.424   0.381   8.261  0.8933 -2.6014 -0.5312
   52CHL1    C3 3775   4.215   5.004   6.828 -0.4487 -0.5773 -0.2702
   52CHL1    H3 3776   4.300   4.934   6.832 -0.1842 -0.2165  0.7674
   52CHL1    O3 3777   4.169   4.996   6.697  0.4866  0.0813  0.4688
   52CHL1   H3' 3778   4.093   4.938   6.695 -0.3830  1.1517  1.0348
   52CHL1    C4 3779   4.107   4.971   6.936 -0.3427  0.3218  0.5694
   52CHL1   H4A 3780   4.008   5.023   6.941 -0.4284  0.2804 -0.4588
   52CHL1   H4B 3781   4.083   4.866   6.911  2.2729  0.3378 -2.5880
   52CHL1    C5 3782   4.157   4.975   7.072  0.2768  0.1806 -0.5413
   52CHL1    C6 3783   4.160   4.874   7.158 -0.5085  0.2278  0.0442
   52CHL1    H6 3784   4.123   4.777   7.122 -0.6275  0.2880  0.0024
   52CHL1    C7 3785   4.203   4.888   7.300 -0.4781  0.9119  0.2096
   52CHL1   H7A 3786   4.140   4.829   7.370  0.1994 -0.3173 -0.1901
   52CHL1   H7B 3787   4.305   4.848   7.320 -1.0716 -0.3609  0.8551
   52CHL1    C8 3788   4.205   5.039   7.352  0.1396 -0.3482  0.3296
   52CHL1    H8 3789   4.101   5.074   7.367  0.1986 -1.0894  3.0372
   52CHL1   C14 3790   4.264   5.047   7.498  0.0100 -0.4031 -0.0525
   52CHL1   H14 3791   4.372   5.019   7.497  0.2345  0.4330 -0.7632
   52CHL1   C15 3792   4.210   4.968   7.619 -0.0982 -0.0086  0.5257
   52CHL1  H15A 3793   4.099   4.965   7.619 -0.1188 -3.7957  0.0447
   52CHL1  H15B 3794   4.245   4.865   7.639 -0.2486  0.1068  1.4302
   52CHL1   C16 3795   4.265   5.052   7.735  0.7567 -0.1915  0.3728
   52CHL1  H16A 3796   4.178   5.066   7.803 -0.2568 -3.5935 -0.0424
   52CHL1  H16B 3797   4.332   5.006   7.811  1.8247  0.5081 -0.1320
   52CHL1   C17 3798   4.330   5.181   7.685 -0.1645  0.7944 -0.3103
   52CHL1   H17 3799   4.436   5.153   7.668 -0.2906  0.5857 -0.7718
   52CHL1   C13 3800   4.272   5.194   7.543  0.4274 -0.5711 -0.0808
   52CHL1   C18 3801   4.129   5.258   7.557  0.4442 -0.6151  0.3301
   52CHL1  H18A 3802   4.083   5.265   7.456  0.7336 -3.2663 -0.0610
   52CHL1  H18B 3803   4.070   5.200   7.631 -0.4712  0.9810  0.8808
   52CHL1  H18C 3804   4.135   5.364   7.587  0.2143 -0.6497  0.4979
   52CHL1   C12 3805   4.360   5.269   7.445 -0.7350 -0.1399 -0.0096
   52CHL1  H12A 3806   4.375   5.375   7.476  2.1239 -0.7183  0.8445
   52CHL1  H12B 3807   4.465   5.238   7.430 -0.4560  1.5443 -2.0124
   52CHL1   C11 3808   4.301   5.266   7.301 -0.1960  0.1023  0.1636
   52CHL1  H11A 3809   4.205   5.321   7.299  0.1837  0.7687 -2.7161
   52CHL1  H11B 3810   4.355   5.320   7.221  1.0035 -0.4187  0.5876
   52CHL1    C9 3811   4.270   5.124   7.247 -0.1096 -0.0085  0.0647
   52CHL1    H9 3812   4.371   5.080   7.233  0.2817  0.6629  0.6859
   52CHL1   C10 3813   4.207   5.120   7.104  0.8213 -0.8959 -0.1359
   52CHL1   C19 3814   4.087   5.228   7.097 -0.0243 -0.4318  0.7211
   52CHL1  H19A 3815   4.116   5.335   7.101  1.9134 -0.9255  0.9632
   52CHL1  H19B 3816   4.035   5.228   6.999  1.2147 -0.9366  0.0419
   52CHL1  H19C 3817   4.005   5.198   7.166  0.9907 -0.0945  2.1093
   52CHL1    C1 3818   4.313   5.157   6.999  0.2327  1.0730 -0.3593
   52CHL1   H1A 3819   4.364   5.254   7.018  0.0718  1.0812  0.0366
   52CHL1   H1B 3820   4.389   5.081   7.025 -0.7797  0.5125  1.0692
   52CHL1    C2 3821   4.273   5.146   6.857  0.0181 -0.1317  0.0779
   52CHL1   H2A 3822   4.345   5.180   6.779 -0.4314  1.5859  0.3663
   52CHL1   H2B 3823   4.195   5.225   6.855  0.9728  0.8619  0.8345
   52CHL1   C20 3824   4.335   5.299   7.782  0.0254  0.0708 -0.3605
   52CHL1   H20 3825   4.353   5.390   7.722 -1.2494  0.7540  0.2510
   52CHL1   C21 3826   4.460   5.294   7.868  0.2930  0.1187  0.3234
   52CHL1  H21A 3827   4.466   5.382   7.935  1.0059 -0.3997  0.9509
   52CHL1  H21B 3828   4.558   5.280   7.817 -0.2408 -0.3722 -0.5876
   52CHL1  H21C 3829   4.436   5.198   7.920  2.2324 -0.3959  0.3449
   52CHL1   C22 3830   4.210   5.325   7.878  0.5817 -0.2652 -0.1170
   52CHL1  H22A 3831   4.117   5.299   7.823  0.2072 -0.2509  0.4990
   52CHL1  H22B 3832   4.197   5.265   7.971 -2.1315  2.3092  1.3315
   52CHL1   C23 3833   4.181   5.473   7.913 -0.2923  0.1811 -0.0405
   52CHL1  H23A 3834   4.274   5.513   7.961 -0.6321 -0.2331  1.0010
   52CHL1  H23B 3835   4.155   5.527   7.820  0.7345 -4.4633 -3.3697
   52CHL1   C24 3836   4.067   5.480   8.017 -0.0617  0.8550 -0.0671
   52CHL1  H24A 3837   3.977   5.451   7.958  0.0645  1.8935 -0.7937
   52CHL1  H24B 3838   4.096   5.406   8.094 -0.6755  2.1559  1.4714
   52CHL1   C25 3839   4.049   5.625   8.076  0.3429  0.0290 -0.0336
   52CHL1   H25 3840   4.146   5.649   8.125 -0.0603  0.0036  0.7961
   52CHL1   C26 3841   4.022   5.737   7.973 -0.5310  0.1530  0.0675
   52CHL1  H26A 3842   4.043   5.839   8.011 -1.0514 -0.1296  1.1497
   52CHL1  H26B 3843   4.087   5.714   7.885 -2.4139  1.1117 -1.6623
   52CHL1  H26C 3844   3.924   5.721   7.923  0.2611 -0.9429 -1.2265
   52CHL1   C27 3845   3.946   5.638   8.193  0.1362 -0.8139 -0.2797
   52CHL1  H27A 3846   3.972   5.577   8.282  1.7885 -3.3902 -2.3711
   52CHL1  H27B 3847   3.928   5.742   8.230 -3.5830 -1.6387  0.5890
   52CHL1  H27C 3848   3.848   5.601   8.157 -1.0721  1.1547  0.8065
   53CHL1    C3 3849   1.808   3.922   7.033 -0.0430  0.6792  0.0904
   53CHL1    H3 3850   1.809   3.823   7.083  0.8661  0.8117  0.3591
   53CHL1    O3 3851   1.805   3.903   6.891 -0.4338 -0.0366  0.3253
   53CHL1   H3' 3852   1.819   3.990   6.854  0.6663 -0.1310  0.5032
   53CHL1    C4 3853   1.693   4.013   7.093  0.6065  0.7934  0.6615
   53CHL1   H4A 3854   1.703   4.111   7.041  1.1393  1.1789  1.4640
   53CHL1   H4B 3855   1.595   3.965   7.072  0.6111 -0.2712  2.8574
   53CHL1    C5 3856   1.719   4.042   7.239  0.9941  0.7085 -0.2325
   53CHL1    C6 3857   1.625   4.032   7.336 -0.3710  0.0198  0.3078
   53CHL1    H6 3858   1.529   3.991   7.302 -0.8864  0.3449  1.3220
   53CHL1    C7 3859   1.631   4.062   7.483  0.4214 -0.5623 -0.6055
   53CHL1   H7A 3860   1.550   4.133   7.513  0.1806 -1.2841  0.5393
   53CHL1   H7B 3861   1.626   3.969   7.543  0.7883 -1.3808 -1.8331
   53CHL1    C8 3862   1.762   4.134   7.521  0.3251  0.5739 -0.6134
   53CHL1    H8 3863   1.761   4.242   7.496  1.9921  0.7026 -0.2524
   53CHL1   C14 3864   1.789   4.107   7.672  0.1926  0.0263  0.2281
   53CHL1   H14 3865   1.817   4.000   7.668  0.4502  0.0584 -4.3072
   53CHL1   C15 3866   1.679   4.121   7.779 -0.0601  0.5454  0.5368
   53CHL1  H15A 3867   1.624   4.218   7.769  0.1280  0.4953 -1.5175
   53CHL1  H15B 3868   1.609   4.036   7.766 -0.1919  0.8813 -1.2043
   53CHL1   C16 3869   1.752   4.106   7.912  0.8568  0.5240  0.4221
   53CHL1  H16A 3870   1.729   4.193   7.977 -0.7915  1.1490 -0.9331
   53CHL1  H16B 3871   1.734   4.006   7.957 -1.8922  1.0748  0.6864
   53CHL1   C17 3872   1.899   4.114   7.876 -0.3493 -0.0979  0.4656
   53CHL1   H17 3873   1.931   4.008   7.862  0.2468  0.4063 -2.8802
   53CHL1   C13 3874   1.912   4.175   7.730  0.1328  0.8179 -0.0229
   53CHL1   C18 3875   1.901   4.331   7.731 -0.5606 -0.0171  0.3455
   53CHL1  H18A 3876   1.979   4.379   7.794  0.3376 -1.0434  0.0300
   53CHL1  H18B 3877   1.919   4.370   7.629  0.8509 -1.2170  0.1069
   53CHL1  H18C 3878   1.805   4.368   7.773 -0.4522 -0.7518  1.2947
   53CHL1   C12 3879   2.040   4.126   7.651  0.7698 -0.3901 -0.1178
   53CHL1  H12A 3880   2.129   4.184   7.681 -1.1624  1.5903  2.2438
   53CHL1  H12B 3881   2.058   4.019   7.677 -0.1061 -0.7980 -1.0887
   53CHL1   C11 3882   2.015   4.147   7.502 -0.8663  0.5483  0.6650
   53CHL1  H11A 3883   2.015   4.256   7.480 -1.0843  0.1033 -1.8678
   53CHL1  H11B 3884   2.103   4.102   7.451 -1.0759 -0.3598  1.0883
   53CHL1    C9 3885   1.884   4.078   7.447  0.9304 -0.3750 -0.1754
   53CHL1    H9 3886   1.885   3.970   7.475 -0.0910 -0.6629 -1.1961
   53CHL1   C10 3887   1.861   4.084   7.293  0.2776  0.5228  0.3258
   53CHL1   C19 3888   1.890   4.230   7.253  0.1970  0.4681  0.0607
   53CHL1  H19A 3889   1.856   4.243   7.148 -1.3771 -1.5649  0.2578
   53CHL1  H19B 3890   1.830   4.296   7.320  1.8481 -1.4344  3.6895
   53CHL1  H19C 3891   1.996   4.260   7.267  0.5833 -1.0272  0.4623
   53CHL1    C1 3892   1.965   3.995   7.221  0.5309  0.5287 -0.1581
   53CHL1   H1A 3893   2.067   4.038   7.230 -0.0254  1.9412 -0.3476
   53CHL1   H1B 3894   1.969   3.891   7.259 -0.5019  0.5483  0.0491
   53CHL1    C2 3895   1.946   3.986   7.069  0.0606  1.1312  0.4714
   53CHL1   H2A 3896   2.023   3.921   7.024 -0.8767  0.8053 -0.7265
   53CHL1   H2B 3897   1.940   4.089   7.028 -1.2940  1.1587  0.6741
   53CHL1   C20 3898   1.977   4.177   7.985 -0.6104 -0.2433  0.3790
   53CHL1   H20 3899   1.984   4.288   7.980  2.2077 -0.3587 -0.1482
   53CHL1   C21 3900   2.129   4.131   7.972 -0.9325 -0.0990  0.0696
   53CHL1  H21A 3901   2.189   4.192   8.043  0.7314 -1.0425 -0.4838
   53CHL1  H21B 3902   2.180   4.140   7.874 -1.0621  1.2542  0.1061
   53CHL1  H21C 3903   2.130   4.028   8.014  0.1908 -0.9727 -1.9976
   53CHL1   C22 3904   1.927   4.134   8.125 -1.0293  0.6722  0.3269
   53CHL1  H22A 3905   1.835   4.194   8.142 -0.7625  1.0082  0.6037
   53CHL1  H22B 3906   1.900   4.027   8.121  0.4609  0.2498  0.9759
   53CHL1   C23 3907   2.016   4.172   8.242 -0.5634 -0.4380  0.1048
   53CHL1  H23A 3908   2.104   4.110   8.216 -0.4439 -0.3183  0.2214
   53CHL1  H23B 3909   2.037   4.281   8.235  1.6122 -0.7248  1.3930
   53CHL1   C24 3910   1.962   4.138   8.382 -0.1755  0.0309  0.0948
   53CHL1  H24A 3911   1.866   4.187   8.409 -1.7480 -2.2276 -1.0180
   53CHL1  H24B 3912   1.923   4.033   8.380 -2.2952  0.6642  2.7116
   53CHL1   C25 3913   2.075   4.161   8.488 -0.0848 -0.0199  0.4077
   53CHL1   H25 3914   2.136   4.252   8.470  0.7928 -0.8492 -0.9998
   53CHL1   C26 3915   2.025   4.165   8.634  0.0392  0.1021  0.8081
   53CHL1  H26A 3916   1.981   4.068   8.666  2.5450 -1.4842 -0.2376
   53CHL1  H26B 3917   2.115   4.184   8.696  0.4103  0.5843  0.1363
   53CHL1  H26C 3918   1.957   4.250   8.656  1.5697  1.5156  0.2754
   53CHL1   C27 3919   2.184   4.054   8.475 -0.0448 -0.4035 -0.2427
   53CHL1  H27A 3920   2.258   4.076   8.555 -1.2638  1.3005  0.4865
   53CHL1  H27B 3921   2.147   3.949   8.481  1.7575 -1.0849 -0.4571
   53CHL1  H27C 3922   2.236   4.062   8.377  1.5935  1.6817  0.7314
   54CHL1    C3 3923   2.047   0.556   7.079 -0.3007  0.0751 -0.3896
   54CHL1    H3 3924   2.145   0.603   7.102 -1.2474  1.2688  1.5191
   54CHL1    O3 3925   2.041   0.529   6.943  0.5005  0.7473  0.3322
   54CHL1   H3' 3926   1.960   0.481   6.926  0.5542  1.2424 -1.5233
   54CHL1    C4 3927   2.040   0.423   7.159 -0.0125  0.0271 -0.0573
   54CHL1   H4A 3928   1.949   0.369   7.128 -1.7579  0.7767  3.2648
   54CHL1   H4B 3929   2.123   0.353   7.136  0.1243 -0.4093  1.6223
   54CHL1    C5 3930   2.035   0.449   7.317  0.1825 -0.4186  0.1331
   54CHL1    C6 3931   2.122   0.388   7.397  0.3778  0.3247  0.3994
   54CHL1    H6 3932   2.207   0.335   7.350  1.0224  1.2943  0.4454
   54CHL1    C7 3933   2.132   0.422   7.540 -0.5641 -0.2174 -0.3405
   54CHL1   H7A 3934   2.154   0.336   7.607 -0.0017 -0.2030 -0.4968
   54CHL1   H7B 3935   2.221   0.485   7.558 -0.6699  0.0407 -0.7011
   54CHL1    C8 3936   2.012   0.490   7.595 -0.6503  0.4284  0.2495
   54CHL1    H8 3937   1.932   0.413   7.592 -0.1296 -0.1226  0.0392
   54CHL1   C14 3938   2.042   0.546   7.734 -0.1785 -0.2316  0.2433
   54CHL1   H14 3939   2.103   0.637   7.715  0.6516 -0.9171 -0.5157
   54CHL1   C15 3940   2.113   0.453   7.835 -0.6793 -0.2858 -0.2342
   54CHL1  H15A 3941   2.058   0.357   7.849 -2.0325  0.4248 -0.5788
   54CHL1  H15B 3942   2.221   0.431   7.816 -0.2973  1.3629 -0.0934
   54CHL1   C16 3943   2.105   0.540   7.960 -0.1908  0.0574  1.6962
   54CHL1  H16A 3944   2.087   0.484   8.054 -1.4069  1.5526  2.3972
   54CHL1  H16B 3945   2.200   0.594   7.978  0.5467 -1.1011  1.3493
   54CHL1   C17 3946   1.995   0.646   7.938  0.4358 -0.6733 -0.5732
   54CHL1   H17 3947   2.057   0.733   7.905  0.6826 -1.2336 -1.6523
   54CHL1   C13 3948   1.924   0.611   7.810  1.1522 -0.1404 -0.3913
   54CHL1   C18 3949   1.806   0.513   7.831  0.0747 -0.1513  0.1045
   54CHL1  H18A 3950   1.735   0.562   7.901  2.0051  1.3333  1.1190
   54CHL1  H18B 3951   1.765   0.480   7.733  1.2817 -0.0286 -0.4515
   54CHL1  H18C 3952   1.836   0.416   7.876 -0.3122  0.7822  2.5289
   54CHL1   C12 3953   1.865   0.729   7.721  0.5087  0.3559 -0.4056
   54CHL1  H12A 3954   1.771   0.771   7.762 -0.2640 -0.9740 -0.7471
   54CHL1  H12B 3955   1.940   0.810   7.729  0.6906  0.1134  0.4655
   54CHL1   C11 3956   1.847   0.684   7.574  0.6799  0.2669 -0.0035
   54CHL1  H11A 3957   1.754   0.624   7.582  1.1318 -0.4323  0.0180
   54CHL1  H11B 3958   1.816   0.775   7.519 -2.6809 -1.1195 -0.6622
   54CHL1    C9 3959   1.961   0.606   7.509 -0.3646  0.3171 -0.1113
   54CHL1    H9 3960   2.044   0.679   7.511 -1.7640  1.9719  0.4063
   54CHL1   C10 3961   1.934   0.561   7.358  0.9128 -0.0848  0.1801
   54CHL1   C19 3962   1.793   0.491   7.334  0.6863  0.4245 -0.1671
   54CHL1  H19A 3963   1.783   0.457   7.229 -0.1267  2.2834 -0.7345
   54CHL1  H19B 3964   1.780   0.403   7.401  1.0715 -0.7301 -1.5696
   54CHL1  H19C 3965   1.720   0.571   7.358  1.3420  1.1307 -0.4929
   54CHL1    C1 3966   1.931   0.683   7.264 -0.7566 -0.2499 -0.0680
   54CHL1   H1A 3967   1.841   0.748   7.272 -1.5733 -1.0926 -1.9586
   54CHL1   H1B 3968   2.020   0.745   7.287 -2.2093  0.8674  3.3440
   54CHL1    C2 3969   1.936   0.653   7.110  0.2607 -0.3759 -0.3991
   54CHL1   H2A 3970   1.945   0.744   7.048 -2.6158  0.3441  0.0653
   54CHL1   H2B 3971   1.841   0.602   7.082  0.7581 -1.6760  0.1831
   54CHL1   C20 3972   1.914   0.697   8.059  0.0571  0.6320  0.2184
   54CHL1   H20 3973   1.815   0.738   8.030  1.7219  2.8142 -2.9976
   54CHL1   C21 3974   1.979   0.826   8.113  0.2203  0.4478 -0.2387
   54CHL1  H21A 3975   2.084   0.809   8.144  0.4022  2.0030  0.0512
   54CHL1  H21B 3976   1.929   0.853   8.208  0.0368  1.1240 -0.5237
   54CHL1  H21C 3977   1.967   0.907   8.038 -2.2906  1.5955  1.2821
   54CHL1   C22 3978   1.891   0.588   8.172 -0.1908 -0.4748  0.2545
   54CHL1  H22A 3979   1.880   0.495   8.111  0.9225 -0.2515 -0.3050
   54CHL1  H22B 3980   1.990   0.571   8.218 -0.4072 -1.5097  0.3584
   54CHL1   C23 3981   1.774   0.604   8.255 -0.5124 -0.3827  0.0079
   54CHL1  H23A 3982   1.778   0.690   8.326 -3.0761 -0.7585  0.7194
   54CHL1  H23B 3983   1.693   0.627   8.182  1.2279 -0.7687 -2.1510
   54CHL1   C24 3984   1.758   0.476   8.339 -0.5283  0.7163 -0.1185
   54CHL1  H24A 3985   1.738   0.392   8.268  0.7796 -0.0677  0.3890
   54CHL1  H24B 3986   1.860   0.457   8.380 -0.1368 -1.1353 -1.7263
   54CHL1   C25 3987   1.652   0.488   8.451  0.1314  0.4316 -0.2520
   54CHL1   H25 3988   1.673   0.582   8.505 -1.8184 -0.3320  2.0507
   54CHL1   C26 3989   1.510   0.486   8.391 -0.1517 -0.0819 -0.8614
   54CHL1  H26A 3990   1.500   0.419   8.304  0.6301 -1.9697  0.4383
   54CHL1  H26B 3991   1.433   0.461   8.468  0.9458  1.8505  1.0034
   54CHL1  H26C 3992   1.487   0.588   8.352  1.0078  0.9143  0.9017
   54CHL1   C27 3993   1.671   0.372   8.551  0.1812 -0.7787  0.2099
   54CHL1  H27A 3994   1.573   0.350   8.599  0.3271 -1.1638  0.3302
   54CHL1  H27B 3995   1.695   0.283   8.490  0.1281 -1.8718  1.7206
   54CHL1  H27C 3996   1.757   0.380   8.621 -0.7171  2.7614  1.1092
   55CHL1    C3 3997   1.230   6.648   7.202 -0.5572  0.2525  0.6401
   55CHL1    H3 3998   1.123   6.633   7.226 -0.9617 -0.6174 -1.5240
   55CHL1    O3 3999   1.246   6.704   7.077  0.1478  0.1428  0.0945
   55CHL1   H3' 4000   1.176   6.667   7.024 -0.8212 -0.4605  1.7250
   55CHL1    C4 4001   1.299   6.735   7.312  0.2349 -0.2382 -0.0305
   55CHL1   H4A 4002   1.405   6.758   7.289 -0.1450  0.3783 -1.2417
   55CHL1   H4B 4003   1.235   6.824   7.298 -0.2440 -0.7839 -1.3823
   55CHL1    C5 4004   1.290   6.674   7.455  0.2218  0.1544  0.3653
   55CHL1    C6 4005   1.241   6.741   7.560  0.5956 -0.5580  0.5943
   55CHL1    H6 4006   1.222   6.849   7.548  2.5416 -0.0768  1.3527
   55CHL1    C7 4007   1.223   6.687   7.700 -0.4189 -0.1342 -0.0049
   55CHL1   H7A 4008   1.270   6.747   7.782  0.5098 -1.6731  0.6413
   55CHL1   H7B 4009   1.118   6.672   7.732  0.0891 -1.1894  1.2615
   55CHL1    C8 4010   1.289   6.551   7.711 -0.5269 -0.4287 -0.0066
   55CHL1    H8 4011   1.398   6.571   7.718 -0.7590  0.5694  0.8323
   55CHL1   C14 4012   1.249   6.476   7.836 -0.0418 -0.2545 -0.3245
   55CHL1   H14 4013   1.142   6.451   7.818 -0.5145  1.5928 -0.3386
   55CHL1   C15 4014   1.232   6.552   7.964 -0.4604 -0.1805 -0.0812
   55CHL1  H15A 4015   1.321   6.612   7.993  0.1833 -2.1204  2.2616
   55CHL1  H15B 4016   1.141   6.616   7.968  0.3281  0.9153  1.1906
   55CHL1   C16 4017   1.217   6.440   8.067 -0.4895  0.6274 -0.5548
   55CHL1  H16A 4018   1.299   6.455   8.141  0.7305 -1.5379 -1.3893
   55CHL1  H16B 4019   1.115   6.437   8.111 -0.6416 -0.4413 -0.9499
   55CHL1   C17 4020   1.244   6.299   7.990 -1.0078  0.2232 -0.3115
   55CHL1   H17 4021   1.143   6.260   7.965 -0.8928 -0.1892 -0.1441
   55CHL1   C13 4022   1.325   6.343   7.861  0.8628  0.2742  0.1036
   55CHL1   C18 4023   1.469   6.373   7.901  0.1862  0.4443  0.8200
   55CHL1  H18A 4024   1.528   6.418   7.818 -0.4821  1.8469  1.0762
   55CHL1  H18B 4025   1.474   6.436   7.992 -0.9001  0.3411  0.9588
   55CHL1  H18C 4026   1.527   6.280   7.920 -0.2487 -0.7180 -2.7355
   55CHL1   C12 4027   1.308   6.254   7.730  0.2024 -0.3691 -0.2428
   55CHL1  H12A 4028   1.349   6.152   7.742 -0.4820 -0.3870  2.7037
   55CHL1  H12B 4029   1.198   6.240   7.717  0.3145  0.8527 -3.0656
   55CHL1   C11 4030   1.348   6.328   7.607  0.2295 -0.4039  0.2561
   55CHL1  H11A 4031   1.457   6.350   7.617  0.3227 -1.4690  1.8716
   55CHL1  H11B 4032   1.326   6.260   7.522  0.4576 -0.3131  0.1233
   55CHL1    C9 4033   1.272   6.461   7.583 -0.1975 -1.1773  0.3853
   55CHL1    H9 4034   1.166   6.430   7.570 -0.1270 -1.3008  0.0773
   55CHL1   C10 4035   1.332   6.525   7.457 -0.2879 -0.6904  0.2542
   55CHL1   C19 4036   1.486   6.527   7.446  0.1916  0.1122 -0.2151
   55CHL1  H19A 4037   1.524   6.424   7.435 -1.6260 -0.7331  0.8498
   55CHL1  H19B 4038   1.523   6.583   7.357  1.5890 -2.2077 -1.1733
   55CHL1  H19C 4039   1.526   6.574   7.539  0.9490 -1.9614  0.5649
   55CHL1    C1 4040   1.275   6.449   7.334 -0.3897  0.3517 -0.2133
   55CHL1   H1A 4041   1.304   6.342   7.336  0.3339  0.5482  0.3747
   55CHL1   H1B 4042   1.166   6.429   7.337 -0.2663 -0.5278 -1.1749
   55CHL1    C2 4043   1.295   6.505   7.202  0.6297  0.1498 -0.3000
   55CHL1   H2A 4044   1.249   6.439   7.126  1.0646 -0.3147 -0.1637
   55CHL1   H2B 4045   1.402   6.523   7.177  0.5373  0.3528 -0.5636
   55CHL1   C20 4046   1.318   6.203   8.084 -0.0007 -0.5572 -0.8508
   55CHL1   H20 4047   1.413   6.246   8.123 -1.6820  3.1117 -0.3707
   55CHL1   C21 4048   1.357   6.071   8.021 -0.3338  0.3568  0.5913
   55CHL1  H21A 4049   1.417   6.010   8.092 -0.0893  1.6146  1.5043
   55CHL1  H21B 4050   1.421   6.087   7.932  0.9821  0.7820  1.5858
   55CHL1  H21C 4051   1.269   6.022   7.973  0.6172 -0.8002 -0.0046
   55CHL1   C22 4052   1.226   6.171   8.209 -0.1911 -0.1485 -0.0177
   55CHL1  H22A 4053   1.194   6.266   8.257 -0.7997 -0.2900 -0.1266
   55CHL1  H22B 4054   1.131   6.117   8.186  1.3923 -2.9703 -0.4549
   55CHL1   C23 4055   1.294   6.090   8.324  0.3688  0.3838 -0.2483
   55CHL1  H23A 4056   1.339   5.997   8.285  2.4576  1.1489  0.1927
   55CHL1  H23B 4057   1.379   6.147   8.368  2.6614 -0.4783 -3.2315
   55CHL1   C24 4058   1.186   6.059   8.421  0.2295 -0.0911 -0.2142
   55CHL1  H24A 4059   1.160   6.159   8.462 -0.3446 -0.8227  1.2774
   55CHL1  H24B 4060   1.092   6.024   8.375 -0.2830  1.7554 -0.6460
   55CHL1   C25 4061   1.227   5.969   8.536  0.7561  0.2122  0.1279
   55CHL1   H25 4062   1.140   5.958   8.604  0.9524 -0.8244  0.2387
   55CHL1   C26 4063   1.253   5.821   8.489 -0.0828 -0.1688 -0.2997
   55CHL1  H26A 4064   1.185   5.785   8.409  0.3346  0.3213 -0.8817
   55CHL1  H26B 4065   1.349   5.837   8.436 -0.6161  2.5599 -0.6320
   55CHL1  H26C 4066   1.260   5.748   8.572 -0.2100 -0.0637 -0.1955
   55CHL1   C27 4067   1.336   6.013   8.641  0.9305  0.5694  0.3692
   55CHL1  H27A 4068   1.367   5.925   8.701 -3.1718 -2.0138 -0.8367
   55CHL1  H27B 4069   1.425   6.043   8.582  0.9186  2.2806  1.1474
   55CHL1  H27C 4070   1.296   6.093   8.708  0.2186  0.9595 -0.4906
   56CHL1    C3 4071   1.469   4.405   6.854  0.3946  0.0786 -0.7353
   56CHL1    H3 4072   1.380   4.340   6.868 -2.0940  3.1843 -0.9158
   56CHL1    O3 4073   1.499   4.411   6.718  0.1762  0.6056 -0.6556
   56CHL1   H3' 4074   1.420   4.448   6.679  0.2876  1.9652  0.3504
   56CHL1    C4 4075   1.428   4.542   6.906  0.5311 -0.9339  0.1244
   56CHL1   H4A 4076   1.507   4.614   6.876 -0.1554  0.7154  2.0711
   56CHL1   H4B 4077   1.347   4.573   6.837  1.3991  2.5597  0.4759
   56CHL1    C5 4078   1.388   4.553   7.058  0.5664 -0.3642  0.1134
   56CHL1    C6 4079   1.268   4.601   7.097  0.4541 -0.3185  0.2933
   56CHL1    H6 4080   1.202   4.643   7.020 -0.3336 -0.4040  0.9131
   56CHL1    C7 4081   1.223   4.605   7.242  0.5056  0.3085 -0.3140
   56CHL1   H7A 4082   1.181   4.705   7.267  0.0034  0.3543 -1.3086
   56CHL1   H7B 4083   1.145   4.527   7.256 -1.6232  2.1559 -1.1874
   56CHL1    C8 4084   1.340   4.569   7.336 -0.5216  0.0960 -0.2471
   56CHL1    H8 4085   1.398   4.663   7.348  0.7257 -0.5350 -1.1359
   56CHL1   C14 4086   1.282   4.545   7.472  0.5586 -0.1621 -0.1637
   56CHL1   H14 4087   1.232   4.447   7.460  1.1765 -0.7006  1.4406
   56CHL1   C15 4088   1.172   4.638   7.526 -0.4070  0.3900 -0.1724
   56CHL1  H15A 4089   1.187   4.743   7.492 -1.9928  1.1065  1.1916
   56CHL1  H15B 4090   1.071   4.602   7.498 -0.7201  0.6710  0.5745
   56CHL1   C16 4091   1.177   4.614   7.676 -0.4528 -0.1323  0.4614
   56CHL1  H16A 4092   1.201   4.708   7.730 -0.6813 -0.1846  0.6558
   56CHL1  H16B 4093   1.076   4.582   7.709 -0.5260  1.8281  2.2749
   56CHL1   C17 4094   1.289   4.509   7.700 -0.5852  0.1280 -0.0521
   56CHL1   H17 4095   1.240   4.410   7.686 -0.2338 -0.4369  2.2789
   56CHL1   C13 4096   1.388   4.522   7.579  0.0368 -0.2481 -0.1689
   56CHL1   C18 4097   1.474   4.646   7.598 -0.0519  0.7598  0.8419
   56CHL1  H18A 4098   1.513   4.673   7.498  1.7874  1.7212  1.7717
   56CHL1  H18B 4099   1.417   4.738   7.625 -0.1899  0.8156  0.3697
   56CHL1  H18C 4100   1.556   4.631   7.671  0.3539 -0.7468  0.1066
   56CHL1   C12 4101   1.480   4.406   7.544 -0.0858  0.7957 -0.1455
   56CHL1  H12A 4102   1.571   4.389   7.605 -0.6391 -1.9665  0.0565
   56CHL1  H12B 4103   1.420   4.312   7.545 -2.1663  2.0516  0.1547
   56CHL1   C11 4104   1.532   4.425   7.396  0.1437 -0.0079 -0.9589
   56CHL1  H11A 4105   1.603   4.510   7.409 -0.6952  0.3676  1.6102
   56CHL1  H11B 4106   1.609   4.351   7.364  1.2185  1.6217 -2.3230
   56CHL1    C9 4107   1.430   4.456   7.286  0.8004 -0.1344  0.7320
   56CHL1    H9 4108   1.368   4.366   7.268  1.3979 -0.0425 -2.3124
   56CHL1   C10 4109   1.500   4.484   7.145  0.6257 -0.0385 -0.2061
   56CHL1   C19 4110   1.626   4.574   7.157 -0.9324 -0.4047 -0.9722
   56CHL1  H19A 4111   1.595   4.656   7.225 -0.3505 -1.9053  1.2020
   56CHL1  H19B 4112   1.709   4.534   7.218  1.9265  1.2123 -3.4822
   56CHL1  H19C 4113   1.659   4.619   7.061 -1.9671  1.9866 -0.2801
   56CHL1    C1 4114   1.541   4.347   7.086 -0.1308  0.6191  0.1011
   56CHL1   H1A 4115   1.623   4.295   7.140 -0.5168  0.6047  0.6820
   56CHL1   H1B 4116   1.455   4.278   7.081 -1.4119  2.2117 -2.3566
   56CHL1    C2 4117   1.582   4.356   6.942 -0.4660  0.7327  0.9419
   56CHL1   H2A 4118   1.608   4.254   6.909 -0.4588  0.7181  0.9920
   56CHL1   H2B 4119   1.665   4.429   6.931 -2.2197  3.0210  1.8178
   56CHL1   C20 4120   1.341   4.522   7.840  0.2340  0.1112 -0.7975
   56CHL1   H20 4121   1.391   4.620   7.854 -1.3394  0.9152 -0.5988
   56CHL1   C21 4122   1.446   4.418   7.881  0.1468  0.2183  0.1202
   56CHL1  H21A 4123   1.490   4.438   7.981 -0.7595  0.0450  0.5637
   56CHL1  H21B 4124   1.533   4.415   7.812  0.3660 -2.3542  0.4403
   56CHL1  H21C 4125   1.412   4.313   7.875  0.5439  0.0850  0.2163
   56CHL1   C22 4126   1.219   4.528   7.949  0.1433  0.1672  1.0391
   56CHL1  H22A 4127   1.261   4.541   8.051  3.0232  1.2168 -0.1608
   56CHL1  H22B 4128   1.156   4.617   7.929 -0.4617 -0.4092  0.3347
   56CHL1   C23 4129   1.121   4.412   7.943  0.2006  0.4277  0.4497
   56CHL1  H23A 4130   1.069   4.400   7.846  1.0014  0.2733  0.0283
   56CHL1  H23B 4131   1.175   4.316   7.959  2.1009  1.7856  3.1357
   56CHL1   C24 4132   1.015   4.430   8.055  0.2289  1.0021  0.6039
   56CHL1  H24A 4133   1.054   4.418   8.158  1.4465 -0.9501 -0.0466
   56CHL1  H24B 4134   0.996   4.540   8.055  0.1595  0.9918  0.1447
   56CHL1   C25 4135   0.892   4.341   8.029  0.5941  0.2663 -0.0323
   56CHL1   H25 4136   0.863   4.351   7.922  2.7437  1.2132 -0.5724
   56CHL1   C26 4137   0.909   4.198   8.073 -0.7427 -0.2974 -0.8292
   56CHL1  H26A 4138   1.000   4.159   8.023  1.4190  1.5401  1.4273
   56CHL1  H26B 4139   0.818   4.139   8.048 -2.4778  2.1057 -0.5105
   56CHL1  H26C 4140   0.923   4.201   8.183  1.1895 -1.9263 -0.9672
   56CHL1   C27 4141   0.773   4.399   8.113  0.7316  0.0519 -0.3903
   56CHL1  H27A 4142   0.806   4.398   8.219  0.4037 -1.1828 -0.2742
   56CHL1  H27B 4143   0.756   4.503   8.078 -0.3758  0.2392  0.6284
   56CHL1  H27C 4144   0.680   4.339   8.124 -0.3254  1.5908 -0.7276
   57SAPC     N 4145   1.536   3.591  10.728  0.3499  0.0078  0.2427
   57SAPC   C12 4146   1.493   3.616  10.585  0.4813 -0.5462  0.1172
   57SAPC  H12A 4147   1.386   3.622  10.588  0.5272  0.0876  1.9348
   57SAPC  H12B 4148   1.521   3.526  10.532 -0.9227 -2.3880  2.2978
   57SAPC   C13 4149   1.506   3.448  10.774  0.6339 -0.0300  0.5907
   57SAPC  H13A 4150   1.591   3.385  10.752 -0.5327 -1.8531  1.0094
   57SAPC  H13B 4151   1.478   3.444  10.879  0.0741  0.8132  0.4802
   57SAPC  H13C 4152   1.421   3.407  10.722  0.4293 -0.8599  1.5389
   57SAPC   C14 4153   1.675   3.622  10.762  0.1302 -0.1117  0.0785
   57SAPC  H14A 4154   1.699   3.617  10.867 -1.1430  0.1760  0.3987
   57SAPC  H14B 4155   1.734   3.556  10.700 -0.8213  0.5633 -1.5988
   57SAPC  H14C 4156   1.692   3.721  10.724  0.6984 -1.0313 -2.1980
   57SAPC   C15 4157   1.448   3.677  10.809  0.1452  0.2178  1.1099
   57SAPC  H15A 4158   1.470   3.781  10.788  0.2472  0.4821  2.4231
   57SAPC  H15B 4159   1.342   3.663  10.791  0.5074 -1.0189 -0.2174
   57SAPC  H15C 4160   1.458   3.643  10.911  0.9287 -0.0767  0.9432
   57SAPC   C11 4161   1.545   3.734  10.507  0.4230 -0.3833  0.1417
   57SAPC  H11A 4162   1.506   3.730  10.404  0.8670 -0.0935 -0.0425
   57SAPC  H11B 4163   1.655   3.728  10.496  0.2955 -2.1168 -0.4146
   57SAPC     P 4164   1.372   3.928  10.530  0.2638 -0.4064  0.2677
   57SAPC   O13 4165   1.264   3.821  10.545 -0.2949 -0.5578 -0.3056
   57SAPC   O14 4166   1.350   4.056  10.600  0.4643 -0.5097  0.3453
   57SAPC   O12 4167   1.506   3.860  10.564 -0.4036  0.4454  0.1343
   57SAPC   O11 4168   1.383   3.947  10.376 -0.1276  0.1217  0.1452
   57SAPC    C1 4169   1.460   4.052  10.324  0.4941  0.3154  0.1919
   57SAPC    HA 4170   1.396   4.142  10.321  3.2314  2.4379  1.2500
   57SAPC    HB 4171   1.547   4.077  10.388  0.9235 -0.0284 -0.2486
   57SAPC    C2 4172   1.529   4.011  10.189 -0.6569  0.3696  0.2881
   57SAPC    HS 4173   1.596   4.096  10.164 -2.8894  1.8675 -0.9683
   57SAPC   O21 4174   1.439   4.010  10.077 -0.4267 -0.1587 -0.3140
   57SAPC   C21 4175   1.387   4.128  10.060  0.0373 -0.7092  0.8896
   57SAPC   O22 4176   1.432   4.232  10.113  0.6048 -0.6002  0.8415
   57SAPC   C22 4177   1.271   4.120   9.960 -0.6114 -0.2130  0.1007
   57SAPC   H2R 4178   1.286   4.031   9.896  1.0417 -1.4935  2.1309
   57SAPC   H2S 4179   1.178   4.100  10.018  0.1625 -2.2988  0.6935
   57SAPC    C3 4180   1.603   3.877  10.203  0.3521  0.0812  0.3671
   57SAPC    HX 4181   1.513   3.813  10.212 -0.2373  0.8052 -0.1843
   57SAPC    HY 4182   1.664   3.875  10.295  1.1415 -2.3865 -0.1540
   57SAPC   O31 4183   1.686   3.844  10.083 -0.4493 -0.4451  0.8380
   57SAPC   C31 4184   1.682   3.718  10.046 -0.1323 -0.2832  0.1172
   57SAPC   O32 4185   1.613   3.634  10.100  0.1772 -0.2275 -0.1458
   57SAPC   C32 4186   1.776   3.692   9.925 -0.4428  0.0394 -0.3055
   57SAPC   H2X 4187   1.868   3.745   9.958  0.4161 -1.8461  0.5314
   57SAPC   H2Y 4188   1.729   3.745   9.840  1.8917 -0.8220 -2.2594
   57SAPC   C23 4189   1.255   4.247   9.873  0.5153 -1.1354  0.3635
   57SAPC   H3R 4190   1.330   4.272   9.795 -0.7510  3.3263  0.3054
   57SAPC   H3S 4191   1.245   4.336   9.938  2.1562 -1.0021  0.4948
   57SAPC   C24 4192   1.115   4.250   9.802 -0.1898  0.1437  0.2477
   57SAPC   H4R 4193   1.109   4.347   9.748 -0.2328 -0.2436 -0.4583
   57SAPC   H4S 4194   1.029   4.249   9.873 -0.7163  2.4652 -0.2885
   57SAPC   C25 4195   1.105   4.141   9.700 -1.0624 -0.1199 -0.4454
   57SAPC   H5R 4196   1.078   4.042   9.739  0.3817 -0.4295 -0.1760
   57SAPC   C26 4197   1.113   4.145   9.564 -0.3578 -0.3605  0.4268
   57SAPC   H6R 4198   1.096   4.053   9.506 -1.1894 -0.0432  0.1492
   57SAPC   C27 4199   1.132   4.273   9.485  0.3864  0.0971 -0.4660
   57SAPC   H7R 4200   1.126   4.365   9.547 -0.7507 -0.0749 -0.2952
   57SAPC   H7S 4201   1.039   4.277   9.425 -0.3770 -2.0726  0.4600
   57SAPC   C28 4202   1.265   4.271   9.409 -0.1992  0.1621  0.1836
   57SAPC   H8R 4203   1.354   4.280   9.473 -0.9208 -1.0457  1.4221
   57SAPC   C29 4204   1.284   4.263   9.276 -0.5468 -0.3392  0.0984
   57SAPC   H9R 4205   1.384   4.282   9.235 -0.6138  2.2466  0.9389
   57SAPC  C210 4206   1.170   4.249   9.179 -0.6875  0.3794 -0.9922
   57SAPC  H10R 4207   1.115   4.345   9.171 -2.1727 -0.2394  0.9614
   57SAPC  H10S 4208   1.098   4.178   9.224  0.1280 -0.1431 -0.4745
   57SAPC  C211 4209   1.231   4.198   9.049  0.2300  0.1670 -0.0084
   57SAPC  H11R 4210   1.273   4.097   9.063  0.7830  0.1156 -1.8197
   57SAPC  C212 4211   1.257   4.267   8.936  0.4975  0.3994  0.5397
   57SAPC  H12R 4212   1.311   4.218   8.853 -0.5372 -0.0214  0.0930
   57SAPC  C213 4213   1.232   4.411   8.900  0.3088  0.6367 -0.0267
   57SAPC  H13R 4214   1.127   4.434   8.927  1.3178  1.3531  3.9408
   57SAPC  H13S 4215   1.258   4.429   8.794 -1.4518  2.8882 -0.1476
   57SAPC  C214 4216   1.323   4.509   8.978 -0.2637  1.1954  0.3644
   57SAPC  H14R 4217   1.295   4.517   9.084 -1.4056  1.1494  0.0706
   57SAPC  C215 4218   1.427   4.581   8.925  0.0490 -0.6360 -0.8539
   57SAPC  H15R 4219   1.492   4.653   8.976  0.2362 -1.5416  0.2260
   57SAPC  C216 4220   1.476   4.572   8.784 -0.3544 -0.4736  0.4434
   57SAPC  H16R 4221   1.465   4.470   8.741  0.6278 -0.4906  0.2045
   57SAPC  H16S 4222   1.584   4.595   8.777 -0.4585  0.0086  0.4127
   57SAPC  C217 4223   1.398   4.658   8.688 -0.0326 -0.2756  0.0681
   57SAPC  H17R 4224   1.289   4.643   8.683 -0.2352 -0.2475  2.6572
   57SAPC  H17S 4225   1.430   4.623   8.588  3.8058 -2.3553  1.7591
   57SAPC  C218 4226   1.439   4.801   8.698  0.3229 -0.0389  0.2849
   57SAPC  H18R 4227   1.548   4.812   8.679  0.7136  2.0547  3.0281
   57SAPC  H18S 4228   1.430   4.845   8.800 -0.3309  0.1375  0.1584
   57SAPC  C219 4229   1.355   4.893   8.606 -0.2426  0.2178 -0.7126
   57SAPC  H19R 4230   1.252   4.876   8.646  0.9907  1.8099  3.6959
   57SAPC  H19S 4231   1.364   4.853   8.503  0.2099 -2.1731  0.1758
   57SAPC  C220 4232   1.386   5.039   8.620  0.7806 -0.7839  0.0188
   57SAPC  H20R 4233   1.493   5.068   8.620  0.5154  0.2273  0.4539
   57SAPC  H20S 4234   1.354   5.076   8.720 -1.8709 -0.8304 -0.7384
   57SAPC  H20T 4235   1.334   5.110   8.552 -1.0839  0.7063  2.7948
   57SAPC   C33 4236   1.806   3.537   9.901  0.5419 -0.1589  0.6784
   57SAPC   H3X 4237   1.813   3.479   9.996  2.6997 -0.0399  0.6388
   57SAPC   H3Y 4238   1.907   3.534   9.854  0.2857  0.3189  0.0921
   57SAPC   C34 4239   1.713   3.474   9.796 -0.2131 -0.2830  0.1578
   57SAPC   H4X 4240   1.611   3.472   9.840 -0.2104 -0.7473  0.1500
   57SAPC   H4Y 4241   1.751   3.370   9.784 -0.3030 -0.3041  0.0425
   57SAPC   C35 4242   1.706   3.555   9.663  0.1761 -0.1622  0.2427
   57SAPC   H5X 4243   1.809   3.588   9.639  0.9714 -1.1129  2.1325
   57SAPC   H5Y 4244   1.644   3.647   9.667 -0.6628 -0.7319  0.7975
   57SAPC   C36 4245   1.678   3.468   9.539 -0.4182 -0.4729  0.0906
   57SAPC   H6X 4246   1.570   3.441   9.547 -1.3662  3.2123  2.3708
   57SAPC   H6Y 4247   1.737   3.375   9.551  0.7830 -0.0538 -1.9836
   57SAPC   C37 4248   1.689   3.532   9.405 -0.0144 -0.1332  0.1597
   57SAPC   H7X 4249   1.793   3.549   9.369 -0.4070  1.3326 -0.3221
   57SAPC   H7Y 4250   1.635   3.627   9.420  0.0526  0.2117 -1.5426
   57SAPC   C38 4251   1.612   3.447   9.297  0.0033  0.0725  0.0412
   57SAPC   H8X 4252   1.503   3.452   9.315  0.1329 -0.0489  0.9225
   57SAPC   H8Y 4253   1.634   3.338   9.300  0.9842  0.1963 -1.3949
   57SAPC   C39 4254   1.646   3.501   9.154  0.3815 -0.0769  0.4836
   57SAPC   H9X 4255   1.756   3.501   9.141  0.6421  0.3685  2.4080
   57SAPC   H9Y 4256   1.615   3.606   9.138  0.1762 -0.0457  1.0844
   57SAPC  C310 4257   1.588   3.411   9.038 -0.0959 -0.3093 -0.2433
   57SAPC  H10X 4258   1.478   3.400   9.050 -0.1983  1.7889  1.2921
   57SAPC  H10Y 4259   1.627   3.307   9.039  0.2611 -0.1758 -0.2293
   57SAPC  C311 4260   1.627   3.477   8.901 -0.1202 -0.6162  0.4746
   57SAPC  H11X 4261   1.737   3.471   8.892 -0.1887 -3.0581  0.6447
   57SAPC  H11Y 4262   1.600   3.585   8.899 -2.4264 -1.1329  0.1332
   57SAPC  C312 4263   1.558   3.415   8.784 -0.5302  0.0747 -0.0279
   57SAPC  H12X 4264   1.449   3.423   8.802 -0.2015  2.2905  1.3068
   57SAPC  H12Y 4265   1.583   3.309   8.759  0.1111 -0.0096  0.9249
   57SAPC  C313 4266   1.587   3.505   8.657  0.3025 -0.0596  0.6419
   57SAPC  H13X 4267   1.613   3.611   8.675  1.5074 -0.4384  1.2209
   57SAPC  H13Y 4268   1.499   3.505   8.589  0.5428 -0.9680  0.3080
   57SAPC  C314 4269   1.700   3.458   8.563 -0.2759  0.9108 -1.2202
   57SAPC  H14X 4270   1.790   3.466   8.627  0.3274  1.3583 -2.1161
   57SAPC  H14Y 4271   1.713   3.523   8.474  1.9793  5.0219  1.7570
   57SAPC  C315 4272   1.669   3.313   8.511 -0.5199  0.1928  0.1691
   57SAPC  H15X 4273   1.565   3.308   8.473 -1.0231  2.3818  1.0749
   57SAPC  H15Y 4274   1.678   3.241   8.594  0.4369  0.0427 -0.0482
   57SAPC  C316 4275   1.775   3.259   8.416  0.1262 -0.5172 -0.7215
   57SAPC  H16X 4276   1.872   3.239   8.467  0.9937 -0.3133 -2.2269
   57SAPC  H16Y 4277   1.794   3.329   8.331  0.1024  2.0927  1.2750
   57SAPC  C317 4278   1.738   3.133   8.346  0.4692  0.6086 -0.1245
   57SAPC  H17X 4279   1.823   3.115   8.278  0.5304 -1.3044  0.4079
   57SAPC  H17Y 4280   1.647   3.142   8.283  2.8142 -1.1047 -4.1293
   57SAPC  C318 4281   1.719   3.014   8.438  0.2175  0.3108 -0.2760
   57SAPC  H18X 4282   1.615   3.000   8.475  0.1953 -0.7466 -0.6892
   57SAPC  H18Y 4283   1.771   3.010   8.535 -2.6933  0.1602  1.4061
   57SAPC  H18Z 4284   1.745   2.916   8.392  3.7024  1.0030 -0.0141
   58SAPC     N 4285   0.547   0.640  10.667 -0.3779  0.2126 -0.9160
   58SAPC   C12 4286   0.471   0.716  10.557  0.0244 -0.4212 -0.9856
   58SAPC  H12A 4287   0.373   0.744  10.593 -0.4342 -1.2124 -1.5839
   58SAPC  H12B 4288   0.462   0.642  10.479 -1.3758 -1.5596  0.2088
   58SAPC   C13 4289   0.690   0.620  10.623  0.1690 -0.1386 -0.0499
   58SAPC  H13A 4290   0.692   0.541  10.549 -0.6222 -0.6297  0.4473
   58SAPC  H13B 4291   0.738   0.711  10.589 -1.6910  1.1125  0.5644
   58SAPC  H13C 4292   0.753   0.587  10.704  0.4020 -0.0718 -0.2021
   58SAPC   C14 4293   0.542   0.720  10.798 -0.1492  0.5372 -0.1771
   58SAPC  H14A 4294   0.574   0.822  10.783 -1.5034  1.3982  2.1550
   58SAPC  H14B 4295   0.445   0.712  10.845  0.3082 -1.8990  0.4563
   58SAPC  H14C 4296   0.619   0.677  10.860 -0.1110 -0.4320 -0.8817
   58SAPC   C15 4297   0.483   0.506  10.691 -0.2285 -0.1419 -0.1887
   58SAPC  H15A 4298   0.489   0.443  10.604  2.1614 -2.4119  1.4550
   58SAPC  H15B 4299   0.532   0.455  10.773  0.9556 -0.6928 -1.2077
   58SAPC  H15C 4300   0.380   0.516  10.721  0.1828 -0.7949  1.6022
   58SAPC   C11 4301   0.530   0.857  10.513 -0.6202 -0.5738 -0.6079
   58SAPC  H11A 4302   0.453   0.892  10.441 -1.8399 -2.2231 -0.1628
   58SAPC  H11B 4303   0.615   0.842  10.443 -0.3998 -0.1127 -0.4441
   58SAPC     P 4304   0.694   1.023  10.646  0.3694 -0.3668  0.0994
   58SAPC   O13 4305   0.686   1.073  10.782  0.1577  0.0411 -0.4417
   58SAPC   O14 4306   0.809   0.930  10.614  0.0325  0.1429  0.1220
   58SAPC   O12 4307   0.550   0.956  10.618  0.3127 -0.5536  0.3080
   58SAPC   O11 4308   0.694   1.144  10.545  0.9710  0.4593  0.2926
   58SAPC    C1 4309   0.580   1.217  10.504 -0.0444 -0.5642 -0.0739
   58SAPC    HA 4310   0.491   1.192  10.566 -0.2007  0.9962  0.3845
   58SAPC    HB 4311   0.596   1.324  10.532  0.7906 -0.5108 -0.7102
   58SAPC    C2 4312   0.549   1.213  10.355  0.5668  0.5815 -0.0347
   58SAPC    HS 4313   0.501   1.113  10.341 -1.8149  1.7751 -0.8988
   58SAPC   O21 4314   0.669   1.241  10.283 -0.2094  0.4747  0.7382
   58SAPC   C21 4315   0.661   1.185  10.161  1.0760 -0.0242  0.5837
   58SAPC   O22 4316   0.585   1.094  10.126  0.1834  0.7212 -0.5010
   58SAPC   C22 4317   0.757   1.250  10.071 -0.0098  0.7164  0.2669
   58SAPC   H2R 4318   0.712   1.308   9.989  1.8549  1.3227 -0.3857
   58SAPC   H2S 4319   0.827   1.320  10.120  0.6519  0.7881 -0.7471
   58SAPC    C3 4320   0.434   1.315  10.322  0.1637 -0.0632  0.1442
   58SAPC    HX 4321   0.462   1.416  10.359 -2.5566  0.5678  0.7503
   58SAPC    HY 4322   0.348   1.280  10.383  1.0286 -2.3976  0.1195
   58SAPC   O31 4323   0.397   1.329  10.179  0.3384 -0.3883  0.0838
   58SAPC   C31 4324   0.308   1.239  10.133 -0.0632 -0.8692 -0.2836
   58SAPC   O32 4325   0.264   1.147  10.193 -0.3438  0.8313 -0.3202
   58SAPC   C32 4326   0.273   1.270   9.985 -0.0706 -0.4264  0.5888
   58SAPC   H2X 4327   0.322   1.361   9.945 -1.5008  0.0280 -0.1686
   58SAPC   H2Y 4328   0.165   1.293   9.976  0.7718  3.8903 -0.4436
   58SAPC   C23 4329   0.833   1.142   9.996  0.2470 -0.0498 -0.2966
   58SAPC   H3R 4330   0.871   1.051  10.047  0.2256  0.0276 -0.1413
   58SAPC   H3S 4331   0.925   1.194   9.962  0.7142 -0.5365  0.2068
   58SAPC   C24 4332   0.771   1.104   9.857  0.0395 -0.1239  0.6816
   58SAPC   H4R 4333   0.751   1.199   9.804 -0.5414 -0.7728 -0.2984
   58SAPC   H4S 4334   0.669   1.071   9.884  0.6721 -1.4546  1.5843
   58SAPC   C25 4335   0.851   0.999   9.786 -0.2967 -0.0170  0.1848
   58SAPC   H5R 4336   0.955   0.983   9.819  0.2364  1.4433 -0.7123
   58SAPC   C26 4337   0.813   0.931   9.678  0.0577  0.8648 -0.2853
   58SAPC   H6R 4338   0.883   0.857   9.636  1.2129  1.2130  0.9624
   58SAPC   C27 4339   0.676   0.937   9.606  0.1018  0.1716 -0.3849
   58SAPC   H7R 4340   0.685   1.015   9.528 -0.4625 -1.6483 -2.3516
   58SAPC   H7S 4341   0.606   0.982   9.680  1.0112  0.7100  0.1688
   58SAPC   C28 4342   0.628   0.809   9.552  0.2349  0.2992 -0.1679
   58SAPC   H8R 4343   0.627   0.800   9.442  0.2407 -3.0803  0.0189
   58SAPC   C29 4344   0.597   0.694   9.612  0.2373 -0.5027  0.9191
   58SAPC   H9R 4345   0.588   0.601   9.555  0.3001 -0.2365  0.4731
   58SAPC  C210 4346   0.611   0.658   9.758 -0.3722 -0.4251  0.4763
   58SAPC  H10R 4347   0.715   0.619   9.767  0.1151  0.2360 -1.7203
   58SAPC  H10S 4348   0.560   0.559   9.764  2.4337 -2.2093 -2.0286
   58SAPC  C211 4349   0.572   0.757   9.867  0.6688 -0.4546  0.2607
   58SAPC  H11R 4350   0.495   0.826   9.832  2.5184  1.1711 -0.8362
   58SAPC  C212 4351   0.639   0.778   9.979 -0.3991  0.3656 -0.2362
   58SAPC  H12R 4352   0.608   0.859  10.046 -1.9963 -1.4177  1.2841
   58SAPC  C213 4353   0.764   0.716  10.027  0.1700  0.0854 -0.0377
   58SAPC  H13R 4354   0.814   0.786  10.097 -0.4139  0.3925  0.0809
   58SAPC  H13S 4355   0.837   0.712   9.944  1.8405 -3.2356  1.3975
   58SAPC  C214 4356   0.757   0.585  10.102 -0.2455 -1.5636  0.1088
   58SAPC  H14R 4357   0.682   0.596  10.181  0.8640  2.5202  0.8258
   58SAPC  C215 4358   0.814   0.467  10.081 -0.9928 -0.4759  0.5855
   58SAPC  H15R 4359   0.778   0.385  10.144 -0.0882 -1.3071  0.0317
   58SAPC  C216 4360   0.908   0.439   9.971  0.2324  0.7449  0.5346
   58SAPC  H16R 4361   1.001   0.404  10.021 -0.6830  0.6880  2.3123
   58SAPC  H16S 4362   0.923   0.538   9.923 -0.6435  0.2744 -0.7444
   58SAPC  C217 4363   0.866   0.348   9.849 -0.1164  0.1417 -0.4446
   58SAPC  H17R 4364   0.780   0.387   9.791 -0.4888 -0.7341 -0.4938
   58SAPC  H17S 4365   0.841   0.245   9.884  1.7454  0.3890  1.8902
   58SAPC  C218 4366   0.978   0.349   9.750  0.0589 -0.4443  0.0548
   58SAPC  H18R 4367   1.063   0.290   9.790  0.4935  0.7234  0.9037
   58SAPC  H18S 4368   1.004   0.457   9.739 -2.8113  0.3726  0.3433
   58SAPC  C219 4369   0.956   0.299   9.603 -0.5354  0.0275 -0.6746
   58SAPC  H19R 4370   1.052   0.323   9.553 -0.8933 -0.3400 -1.5703
   58SAPC  H19S 4371   0.875   0.361   9.560 -0.3275 -0.3875 -1.7029
   58SAPC  C220 4372   0.924   0.152   9.576  0.1953 -0.2082  0.0263
   58SAPC  H20R 4373   0.849   0.128   9.655  0.7155  1.3545  1.0339
   58SAPC  H20S 4374   1.002   0.074   9.584 -2.2006 -2.7789 -0.0344
   58SAPC  H20T 4375   0.890   0.130   9.472 -0.7673 -2.6363  0.7861
   58SAPC   C33 4376   0.306   1.149   9.891 -0.6421  0.1836 -1.0709
   58SAPC   H3X 4377   0.223   1.076   9.906 -1.4171  1.3515  0.7171
   58SAPC   H3Y 4378   0.403   1.100   9.910 -1.2319 -0.4620  0.5181
   58SAPC   C34 4379   0.300   1.196   9.746 -0.6613 -0.5261  0.1531
   58SAPC   H4X 4380   0.393   1.254   9.723 -0.3037 -1.3509 -0.5232
   58SAPC   H4Y 4381   0.218   1.268   9.726 -0.1477 -0.7257 -3.4032
   58SAPC   C35 4382   0.278   1.083   9.642 -0.0607 -0.2128  0.4797
   58SAPC   H5X 4383   0.174   1.044   9.651  0.0106 -0.4014  0.5120
   58SAPC   H5Y 4384   0.345   0.996   9.664  1.5748  1.1928  1.2755
   58SAPC   C36 4385   0.295   1.127   9.500  0.0628 -0.8942 -0.4750
   58SAPC   H6X 4386   0.247   1.227   9.504  1.8734 -0.0148  0.1875
   58SAPC   H6Y 4387   0.250   1.046   9.439  0.5144 -1.0240 -0.6410
   58SAPC   C37 4388   0.437   1.151   9.458  0.3732 -0.3836 -0.1437
   58SAPC   H7X 4389   0.495   1.060   9.483  1.3584  0.2371 -0.0915
   58SAPC   H7Y 4390   0.491   1.230   9.515  0.9458 -0.7166 -0.2207
   58SAPC   C38 4391   0.454   1.177   9.311 -0.1036  0.6533  0.1733
   58SAPC   H8X 4392   0.556   1.215   9.291  0.1555  0.5948  1.3202
   58SAPC   H8Y 4393   0.385   1.261   9.285  0.7139  0.9749 -1.0806
   58SAPC   C39 4394   0.424   1.053   9.224  1.4005 -0.2421  0.2212
   58SAPC   H9X 4395   0.422   1.068   9.114 -1.9197 -1.0580  0.0847
   58SAPC   H9Y 4396   0.318   1.026   9.243  0.6028  1.2182 -1.7787
   58SAPC  C310 4397   0.514   0.922   9.230  0.1165  0.7720  0.0727
   58SAPC  H10X 4398   0.473   0.847   9.160 -1.6187  2.7650 -1.1510
   58SAPC  H10Y 4399   0.478   0.874   9.324 -1.4488 -0.1676 -0.9711
   58SAPC  C311 4400   0.668   0.950   9.232 -0.1004  0.0682  0.4530
   58SAPC  H11X 4401   0.723   0.863   9.272  0.4787  0.6769  1.0019
   58SAPC  H11Y 4402   0.686   1.037   9.299 -0.1259 -0.5306  1.2423
   58SAPC  C312 4403   0.732   0.978   9.092 -0.2160  0.5169 -0.1705
   58SAPC  H12X 4404   0.666   1.051   9.041  1.1978  0.8809 -1.5299
   58SAPC  H12Y 4405   0.707   0.883   9.039 -1.5970  1.5204 -1.3954
   58SAPC  C313 4406   0.881   1.007   9.079  0.2243 -0.5845  0.1414
   58SAPC  H13X 4407   0.941   0.940   9.145  0.4146 -0.1025  0.4652
   58SAPC  H13Y 4408   0.892   1.110   9.118  2.3802 -0.3985 -0.8466
   58SAPC  C314 4409   0.943   0.984   8.937 -0.0527  0.8906 -0.2640
   58SAPC  H14X 4410   0.945   0.873   8.934  1.6690  0.9002 -0.8690
   58SAPC  H14Y 4411   1.050   1.014   8.936  0.8574 -2.0423  0.0866
   58SAPC  C315 4412   0.856   1.046   8.832 -0.1347 -0.3441  0.7239
   58SAPC  H15X 4413   0.749   1.019   8.841 -0.4011 -0.5312 -2.0848
   58SAPC  H15Y 4414   0.891   1.011   8.732 -0.6872 -2.7315  1.3175
   58SAPC  C316 4415   0.861   1.197   8.836 -0.5150 -0.0087 -0.3358
   58SAPC  H16X 4416   0.969   1.221   8.847 -0.2926 -0.9426 -0.3515
   58SAPC  H16Y 4417   0.806   1.239   8.923  0.6933 -0.3985  0.6483
   58SAPC  C317 4418   0.794   1.256   8.706  0.2826  0.6461  0.1005
   58SAPC  H17X 4419   0.684   1.245   8.696  0.0148  2.3711  0.7323
   58SAPC  H17Y 4420   0.845   1.196   8.628  2.7267 -0.1737  2.1625
   58SAPC  C318 4421   0.829   1.406   8.687 -0.4148  0.4338 -0.7777
   58SAPC  H18X 4422   0.758   1.452   8.614 -0.4119 -0.3580 -1.2976
   58SAPC  H18Y 4423   0.935   1.417   8.656 -0.6448  0.2188 -1.6864
   58SAPC  H18Z 4424   0.809   1.455   8.784  1.7660 -0.5756  0.2400
   59SAPC     N 4425   6.046   2.203  10.992  0.4861 -0.1145 -0.3218
   59SAPC   C12 4426   5.953   2.198  10.874  0.3620  0.5889 -0.4223
   59SAPC  H12A 4427   5.894   2.108  10.885  0.0738  1.0999  3.9239
   59SAPC  H12B 4428   6.004   2.202  10.779 -1.1416  0.8099 -1.2527
   59SAPC   C13 4429   6.115   2.078  11.006  0.4993  0.2010 -0.3301
   59SAPC  H13A 4430   6.053   1.991  10.996  1.7649 -0.9123  1.0178
   59SAPC  H13B 4431   6.197   2.073  10.936  2.0644  1.0539  1.3522
   59SAPC  H13C 4432   6.163   2.068  11.102 -0.9843 -1.0680  0.3160
   59SAPC   C14 4433   6.147   2.316  10.967 -0.5709 -0.7741 -0.9277
   59SAPC  H14A 4434   6.218   2.298  10.888  1.3997 -1.7813  0.9572
   59SAPC  H14B 4435   6.110   2.416  10.949 -2.3708 -1.5143 -1.6345
   59SAPC  H14C 4436   6.199   2.331  11.061  0.3320 -0.4850 -1.4687
   59SAPC   C15 4437   5.978   2.231  11.124  0.6642  0.4759  0.7704
   59SAPC  H15A 4438   5.927   2.326  11.131  0.4160  0.5054 -0.9836
   59SAPC  H15B 4439   5.894   2.164  11.139 -0.3839  1.3870 -0.6876
   59SAPC  H15C 4440   6.054   2.234  11.200  0.6357 -0.2826  0.8350
   59SAPC   C11 4441   5.855   2.319  10.861 -0.3486 -0.4077 -0.4460
   59SAPC  H11A 4442   5.794   2.321  10.768 -0.4164  0.9501 -0.3922
   59SAPC  H11B 4443   5.904   2.418  10.847 -1.4845  0.1445 -0.6885
   59SAPC     P 4444   5.620   2.271  10.976 -0.3573 -0.1875 -0.1103
   59SAPC   O13 4445   5.624   2.116  10.963  0.1155  0.3207  0.1616
   59SAPC   O14 4446   5.546   2.329  11.095 -0.8926 -0.2199 -0.2435
   59SAPC   O12 4447   5.768   2.332  10.975 -0.0736  0.0834 -0.0194
   59SAPC   O11 4448   5.557   2.322  10.842 -0.2642  0.2204  1.0784
   59SAPC    C1 4449   5.561   2.454  10.782  0.6798  0.8393 -0.2517
   59SAPC    HA 4450   5.472   2.511  10.817 -1.6932  0.3116 -4.6703
   59SAPC    HB 4451   5.651   2.513  10.812  1.1306 -0.0045  0.0995
   59SAPC    C2 4452   5.541   2.452  10.627 -0.1613 -0.7278 -0.0598
   59SAPC    HS 4453   5.456   2.381  10.614 -0.1856 -0.9185  1.0476
   59SAPC   O21 4454   5.657   2.400  10.557  0.1650  0.2940 -0.2446
   59SAPC   C21 4455   5.630   2.364  10.428  0.1254 -0.6279  0.2411
   59SAPC   O22 4456   5.516   2.365  10.386 -0.4666  0.0422  0.7823
   59SAPC   C22 4457   5.756   2.330  10.355 -0.4589 -1.0728 -0.5806
   59SAPC   H2R 4458   5.837   2.398  10.390 -0.3149 -0.7960 -1.4235
   59SAPC   H2S 4459   5.776   2.223  10.378  0.6556 -1.0118 -1.1779
   59SAPC    C3 4460   5.507   2.592  10.575  0.7719 -0.3842 -0.2620
   59SAPC    HX 4461   5.435   2.636  10.647  2.5507 -0.1271  1.4648
   59SAPC    HY 4462   5.457   2.590  10.476  0.8004  2.4923 -0.4172
   59SAPC   O31 4463   5.616   2.690  10.570 -0.4788 -0.0454 -0.1212
   59SAPC   C31 4464   5.647   2.725  10.446 -0.1343  0.5175  0.4408
   59SAPC   O32 4465   5.576   2.696  10.347  0.3994 -0.0569 -0.1546
   59SAPC   C32 4466   5.773   2.803  10.439  0.6016  0.3123 -0.1880
   59SAPC   H2X 4467   5.861   2.736  10.449 -0.7570 -1.4697  0.3302
   59SAPC   H2Y 4468   5.791   2.873  10.523  1.0705  0.0554 -0.0708
   59SAPC   C23 4469   5.729   2.359  10.207 -0.1831 -0.2236 -0.4320
   59SAPC   H3R 4470   5.711   2.469  10.213 -0.4600 -0.2817 -0.2026
   59SAPC   H3S 4471   5.629   2.330  10.169 -0.4034  0.9436 -0.7971
   59SAPC   C24 4472   5.833   2.334  10.102 -0.6009  0.2788  0.1172
   59SAPC   H4R 4473   5.929   2.385  10.127 -0.1873  0.6112 -1.9153
   59SAPC   H4S 4474   5.806   2.376  10.002 -1.3538  0.9425  0.5851
   59SAPC   C25 4475   5.852   2.185  10.090  0.2572  0.2288 -0.4249
   59SAPC   H5R 4476   5.875   2.128  10.182  3.0374 -1.7399 -2.1968
   59SAPC   C26 4477   5.869   2.107   9.978  0.9946  0.4016  0.6131
   59SAPC   H6R 4478   5.887   2.000   9.990 -1.4971 -0.4110 -1.7167
   59SAPC   C27 4479   5.857   2.152   9.836  0.4189  0.2727  0.7817
   59SAPC   H7R 4480   5.955   2.133   9.789 -0.4127 -2.2374 -0.1134
   59SAPC   H7S 4481   5.825   2.258   9.822 -0.8868 -0.2141 -0.1383
   59SAPC   C28 4482   5.755   2.078   9.757  0.0799 -0.3177  0.5515
   59SAPC   H8R 4483   5.664   2.048   9.811  0.0430 -0.6619  0.2957
   59SAPC   C29 4484   5.769   2.033   9.629  0.2312  0.4816 -0.4054
   59SAPC   H9R 4485   5.689   1.967   9.591  1.9003 -3.0176  1.6359
   59SAPC  C210 4486   5.891   2.051   9.541  0.2059 -0.1043 -0.3169
   59SAPC  H10R 4487   5.912   1.958   9.483  1.3202 -0.4304  0.5731
   59SAPC  H10S 4488   5.976   2.084   9.604 -0.2989  1.7612 -0.5417
   59SAPC  C211 4489   5.883   2.154   9.428  0.8911  0.4483  0.0207
   59SAPC  H11R 4490   5.932   2.250   9.448  0.6961  0.9303 -1.6668
   59SAPC  C212 4491   5.817   2.141   9.308 -0.8117  0.4941  0.2155
   59SAPC  H12R 4492   5.828   2.224   9.237 -1.9793  0.4518 -0.0302
   59SAPC  C213 4493   5.745   2.017   9.248 -0.4455 -0.5382 -0.6719
   59SAPC  H13R 4494   5.760   1.929   9.315 -1.3468  0.6883  1.2556
   59SAPC  H13S 4495   5.784   1.992   9.148  0.1826 -1.2540 -0.2608
   59SAPC  C214 4496   5.604   2.058   9.243 -0.4139 -0.2357 -0.1545
   59SAPC  H14R 4497   5.555   2.069   9.341  0.3980  0.0202  0.2256
   59SAPC  C215 4498   5.529   2.077   9.140 -0.1998  0.1714  0.5837
   59SAPC  H15R 4499   5.422   2.099   9.148 -0.5332 -1.1253  0.0520
   59SAPC  C216 4500   5.576   2.067   8.992 -0.4654  0.4031 -0.0046
   59SAPC  H16R 4501   5.680   2.104   8.984  0.8224 -3.0156 -0.7954
   59SAPC  H16S 4502   5.518   2.144   8.938  0.0640  0.2427 -0.8062
   59SAPC  C217 4503   5.568   1.932   8.930 -0.3311  0.0585 -0.1545
   59SAPC  H17R 4504   5.465   1.890   8.927  0.6108 -2.3658 -0.1199
   59SAPC  H17S 4505   5.645   1.874   8.985  2.6912 -0.1505 -4.2096
   59SAPC  C218 4506   5.611   1.935   8.782  0.2740 -0.2300 -0.9827
   59SAPC  H18R 4507   5.540   2.007   8.735 -0.3125 -0.6964 -0.8273
   59SAPC  H18S 4508   5.583   1.830   8.758 -2.4015 -0.4130  2.2260
   59SAPC  C219 4509   5.756   1.965   8.762  0.5320  0.2479 -0.3770
   59SAPC  H19R 4510   5.820   1.914   8.837  0.8019 -0.5285 -1.1228
   59SAPC  H19S 4511   5.782   2.070   8.784  2.5441  0.4652 -3.3760
   59SAPC  C220 4512   5.799   1.928   8.624  0.3118 -0.1121  0.8524
   59SAPC  H20R 4513   5.795   1.817   8.623  1.4597 -0.1775  1.7567
   59SAPC  H20S 4514   5.901   1.962   8.596 -0.2223  0.6714 -0.2220
   59SAPC  H20T 4515   5.726   1.975   8.555  1.2845  0.3505  0.1137
   59SAPC   C33 4516   5.791   2.886  10.309  0.3008 -0.9135 -0.9026
   59SAPC   H3X 4517   5.848   2.981  10.325  0.8212 -1.1389 -1.3801
   59SAPC   H3Y 4518   5.693   2.910  10.262 -0.4574 -1.4877  0.3458
   59SAPC   C34 4519   5.879   2.801  10.218 -0.0666 -0.6724  0.4343
   59SAPC   H4X 4520   5.857   2.692  10.220  1.1091 -0.9290  3.2349
   59SAPC   H4Y 4521   5.981   2.808  10.260 -0.2210  0.2915  0.6528
   59SAPC   C35 4522   5.846   2.839  10.078 -0.5156  0.1508  0.1575
   59SAPC   H5X 4523   5.849   2.947  10.051  0.7792  0.2791  0.7350
   59SAPC   H5Y 4524   5.741   2.804  10.067 -0.2700 -1.4828  2.4203
   59SAPC   C36 4525   5.924   2.743   9.993  0.4723 -0.2720  0.0116
   59SAPC   H6X 4526   5.891   2.641  10.022 -0.0386 -0.0776  0.1168
   59SAPC   H6Y 4527   6.034   2.742  10.009  0.5024  1.9939  0.2141
   59SAPC   C37 4528   5.885   2.767   9.845 -0.2275 -0.5452 -0.1114
   59SAPC   H7X 4529   5.925   2.865   9.809 -2.0792  0.4616  0.4350
   59SAPC   H7Y 4530   5.775   2.785   9.847 -0.1204  0.2233 -0.8031
   59SAPC   C38 4531   5.938   2.650   9.748 -1.1710  0.5087 -0.2024
   59SAPC   H8X 4532   5.911   2.552   9.792 -0.6300 -1.2473 -3.5151
   59SAPC   H8Y 4533   6.049   2.652   9.754 -1.1616 -1.1915  0.8502
   59SAPC   C39 4534   5.867   2.651   9.618  0.0312  0.1884 -0.1861
   59SAPC   H9X 4535   5.901   2.741   9.563  1.4280  1.8332  3.1149
   59SAPC   H9Y 4536   5.756   2.651   9.630  0.0421  0.5572 -0.0698
   59SAPC  C310 4537   5.902   2.532   9.520  0.2252  0.5268 -0.5630
   59SAPC  H10X 4538   5.886   2.435   9.572  1.6476 -0.1428 -1.3165
   59SAPC  H10Y 4539   6.010   2.535   9.496  0.3213  0.3127 -0.1640
   59SAPC  C311 4540   5.813   2.533   9.403  0.3814  0.4332 -0.5932
   59SAPC  H11X 4541   5.773   2.636   9.392 -2.6831 -0.4626  1.2390
   59SAPC  H11Y 4542   5.725   2.466   9.410  0.1978  0.6871 -0.4594
   59SAPC  C312 4543   5.884   2.501   9.272 -0.0791 -0.3163  0.0130
   59SAPC  H12X 4544   5.935   2.403   9.284  1.3224  0.2055 -1.3888
   59SAPC  H12Y 4545   5.966   2.576   9.271  0.4101 -0.8433 -0.5698
   59SAPC  C313 4546   5.801   2.506   9.145 -0.2769  0.4791  0.6822
   59SAPC  H13X 4547   5.764   2.610   9.136  1.4830  1.0848  0.1497
   59SAPC  H13Y 4548   5.710   2.444   9.160 -0.7335  1.1452  0.6752
   59SAPC  C314 4549   5.882   2.475   9.022 -0.0703  1.1924 -0.4286
   59SAPC  H14X 4550   5.909   2.367   9.017 -0.1064  1.1527  0.1387
   59SAPC  H14Y 4551   5.978   2.530   9.021  1.5162 -1.1024  3.0237
   59SAPC  C315 4552   5.790   2.504   8.903 -0.0255  0.3680  0.0506
   59SAPC  H15X 4553   5.790   2.614   8.887  0.9354  0.3159 -0.3908
   59SAPC  H15Y 4554   5.696   2.452   8.929 -0.2312  0.8872  0.3563
   59SAPC  C316 4555   5.842   2.435   8.776 -0.4566 -0.7229 -0.6173
   59SAPC  H16X 4556   5.779   2.470   8.691 -1.2389 -2.6857 -0.9063
   59SAPC  H16Y 4557   5.831   2.325   8.784 -0.8410 -0.5696  1.3160
   59SAPC  C317 4558   5.976   2.499   8.727  0.1384  0.5409  0.4150
   59SAPC  H17X 4559   6.051   2.436   8.779 -1.5577 -1.8476  0.1570
   59SAPC  H17Y 4560   5.995   2.600   8.769 -0.4082  0.3821  1.0591
   59SAPC  C318 4561   6.012   2.493   8.581  0.2264 -0.0050  1.0031
   59SAPC  H18X 4562   5.933   2.551   8.528  2.1228  1.8282  0.0353
   59SAPC  H18Y 4563   6.012   2.390   8.540  5.3141  0.5083 -1.0428
   59SAPC  H18Z 4564   6.106   2.540   8.546 -0.6339  1.3574  0.4083
   60SAPC     N 4565   5.706   6.742  10.854  0.2989  0.2835 -0.0114
   60SAPC   C12 4566   5.775   6.749  10.726  0.1056  0.6606  0.3915
   60SAPC  H12A 4567   5.850   6.670  10.730 -0.0313  0.5511  0.8032
   60SAPC  H12B 4568   5.827   6.842  10.706 -1.1403  1.3501  0.2867
   60SAPC   C13 4569   5.615   6.862  10.877  0.3019 -0.0344 -0.0893
   60SAPC  H13A 4570   5.531   6.859  10.809 -0.6635 -3.7374  1.0530
   60SAPC  H13B 4571   5.562   6.860  10.971 -0.9112  0.7855 -0.7238
   60SAPC  H13C 4572   5.665   6.958  10.873  0.7224 -0.1441  1.7344
   60SAPC   C14 4573   5.625   6.614  10.855  0.0443 -0.2206 -0.2882
   60SAPC  H14A 4574   5.555   6.619  10.772 -1.2197  0.9447  0.8112
   60SAPC  H14B 4575   5.676   6.520  10.842 -3.1210 -2.3762  1.4180
   60SAPC  H14C 4576   5.580   6.609  10.953  0.8803 -1.0745  0.0648
   60SAPC   C15 4577   5.811   6.737  10.963 -0.1350  0.0567 -0.1806
   60SAPC  H15A 4578   5.868   6.649  10.938  0.2151  0.6397 -1.4833
   60SAPC  H15B 4579   5.878   6.821  10.962  1.8622 -1.4365  0.8621
   60SAPC  H15C 4580   5.764   6.715  11.058 -1.4629  0.3479 -0.7393
   60SAPC   C11 4581   5.690   6.726  10.599  0.1788 -0.0503 -0.4803
   60SAPC  H11A 4582   5.752   6.758  10.513  0.1851 -0.1948 -0.5294
   60SAPC  H11B 4583   5.607   6.800  10.599  0.6322  0.5864  2.4973
   60SAPC     P 4584   5.743   6.486  10.537  0.1449 -0.1200 -0.3903
   60SAPC   O13 4585   5.846   6.483  10.643 -0.3804 -0.2442  0.5804
   60SAPC   O14 4586   5.662   6.364  10.522  0.8352 -0.2253  0.0438
   60SAPC   O12 4587   5.638   6.595  10.579 -0.6952 -0.7942  0.1798
   60SAPC   O11 4588   5.805   6.530  10.408 -0.0148 -0.0159 -0.1208
   60SAPC    C1 4589   5.737   6.581  10.289 -0.7614 -0.0939 -0.5682
   60SAPC    HA 4590   5.689   6.496  10.236 -1.2053 -0.2641  0.1037
   60SAPC    HB 4591   5.663   6.660  10.312 -0.6999 -0.2367  0.1197
   60SAPC    C2 4592   5.833   6.628  10.179  0.3340  0.9789  0.7964
   60SAPC    HS 4593   5.785   6.627  10.078  1.5783 -1.1553  0.1596
   60SAPC   O21 4594   5.955   6.552  10.178  0.6285  0.8627 -0.2724
   60SAPC   C21 4595   5.957   6.422  10.151  0.3527 -0.1912  0.4064
   60SAPC   O22 4596   5.860   6.354  10.131  0.6607  0.1754 -0.7052
   60SAPC   C22 4597   6.103   6.372  10.135  0.4382  0.3807 -0.5663
   60SAPC   H2R 4598   6.165   6.425  10.210 -0.1140  0.9110 -0.4725
   60SAPC   H2S 4599   6.098   6.261  10.141 -1.0613  0.4645  0.1438
   60SAPC    C3 4600   5.870   6.770  10.220 -0.5649 -0.8121 -0.3969
   60SAPC    HX 4601   5.931   6.771  10.313 -0.6914  3.4808 -0.1595
   60SAPC    HY 4602   5.772   6.817  10.242  0.1511  0.5913 -0.0829
   60SAPC   O31 4603   5.938   6.854  10.122  0.2357  0.2134  0.5513
   60SAPC   C31 4604   5.997   6.961  10.167  0.3242  0.1890 -0.1120
   60SAPC   O32 4605   5.997   6.997  10.286  0.4954 -0.3429 -0.1625
   60SAPC   C32 4606   6.061   7.042  10.054  0.6173  0.7980 -0.3025
   60SAPC   H2X 4607   6.016   7.143  10.061 -1.0079  0.1996 -1.4162
   60SAPC   H2Y 4608   6.041   6.989   9.958  0.1174  2.1894 -0.9932
   60SAPC   C23 4609   6.158   6.401   9.997 -0.4532  0.3818  0.0613
   60SAPC   H3R 4610   6.265   6.371   9.994 -0.9818 -1.6171 -0.9320
   60SAPC   H3S 4611   6.146   6.510   9.980 -0.6923  0.7687  2.4006
   60SAPC   C24 4612   6.093   6.321   9.886 -0.2514 -0.8810 -0.7035
   60SAPC   H4R 4613   6.061   6.220   9.918 -1.7181 -0.4661 -0.7964
   60SAPC   H4S 4614   6.180   6.305   9.818  0.5357 -0.3067  0.1492
   60SAPC   C25 4615   5.974   6.387   9.825 -0.2606 -0.0842 -0.0194
   60SAPC   H5R 4616   5.890   6.396   9.896 -0.3651 -1.6218  0.0929
   60SAPC   C26 4617   5.955   6.436   9.702  0.3315 -0.5497  0.2835
   60SAPC   H6R 4618   5.863   6.488   9.671  2.0205  0.5536 -3.4941
   60SAPC   C27 4619   6.068   6.430   9.596 -0.0252  0.3453  0.2684
   60SAPC   H7R 4620   6.064   6.329   9.551  1.8878 -0.6792  2.1969
   60SAPC   H7S 4621   6.167   6.445   9.643 -0.1879 -0.6886  0.9622
   60SAPC   C28 4622   6.056   6.529   9.487  0.5960 -0.3858  0.0464
   60SAPC   H8R 4623   6.072   6.634   9.515 -0.6809  0.3736 -1.9299
   60SAPC   C29 4624   6.018   6.517   9.356 -0.1167 -0.6248  0.1289
   60SAPC   H9R 4625   6.034   6.603   9.289  0.2607 -0.3612  0.5533
   60SAPC  C210 4626   5.956   6.395   9.290  0.2385  0.1297  0.0196
   60SAPC  H10R 4627   5.895   6.331   9.356  1.3099  1.1653  2.1192
   60SAPC  H10S 4628   6.041   6.329   9.262  0.2658  0.3233 -0.3638
   60SAPC  C211 4629   5.879   6.416   9.158  0.5874 -0.0483 -0.4321
   60SAPC  H11R 4630   5.880   6.522   9.128  0.6546  0.1078  0.1028
   60SAPC  C212 4631   5.816   6.318   9.088 -0.0113 -0.5286 -0.1002
   60SAPC  H12R 4632   5.762   6.349   8.997 -0.8835 -2.0567 -0.1346
   60SAPC  C213 4633   5.826   6.169   9.121 -0.2618 -0.5539 -0.2935
   60SAPC  H13R 4634   5.794   6.159   9.227  1.4754  2.1216  0.5845
   60SAPC  H13S 4635   5.932   6.136   9.122  1.1306  3.3610  0.8625
   60SAPC  C214 4636   5.749   6.087   9.025 -0.0372 -0.6479 -0.1104
   60SAPC  H14R 4637   5.642   6.071   9.049  0.2409 -0.3765  1.4406
   60SAPC  C215 4638   5.792   6.039   8.911 -0.2908 -0.7139  0.4528
   60SAPC  H15R 4639   5.729   5.983   8.841  0.3296 -0.7500 -0.0828
   60SAPC  C216 4640   5.930   6.061   8.860 -0.1390 -0.8421 -0.1459
   60SAPC  H16R 4641   5.977   5.961   8.852  0.6660 -0.4106 -0.9513
   60SAPC  H16S 4642   6.002   6.119   8.922  1.3037  0.3987 -2.8340
   60SAPC  C217 4643   5.945   6.133   8.723  0.2681  0.2667  0.3915
   60SAPC  H17R 4644   6.051   6.158   8.699  0.0406 -0.7832 -1.8609
   60SAPC  H17S 4645   5.881   6.223   8.737  1.7494  1.2214  1.2997
   60SAPC  C218 4646   5.903   6.045   8.604  0.0466 -0.3554  0.0689
   60SAPC  H18R 4647   5.819   5.973   8.617 -0.9108  0.5291 -0.9873
   60SAPC  H18S 4648   5.997   6.003   8.563 -0.2852  1.6268 -3.0854
   60SAPC  C219 4649   5.845   6.132   8.480 -0.4710  0.4256  0.5972
   60SAPC  H19R 4650   5.919   6.213   8.461  0.8453 -1.2702 -2.1851
   60SAPC  H19S 4651   5.753   6.184   8.516 -1.7647 -2.3031  1.4549
   60SAPC  C220 4652   5.819   6.074   8.342  0.0429  0.5001  0.9818
   60SAPC  H20R 4653   5.739   5.997   8.342  1.3878 -1.0885 -2.4915
   60SAPC  H20S 4654   5.911   6.028   8.300  1.0341  2.2574  1.1308
   60SAPC  H20T 4655   5.803   6.152   8.266 -0.6635 -0.7735 -0.2176
   60SAPC   C33 4656   6.220   7.047  10.066 -0.4751 -0.4925  0.4967
   60SAPC   H3X 4657   6.260   6.944  10.081  0.6499  0.1516  2.2831
   60SAPC   H3Y 4658   6.247   7.112  10.152 -1.2202 -0.7040  0.8899
   60SAPC   C34 4659   6.298   7.119   9.946  0.7639  0.1093 -0.4313
   60SAPC   H4X 4660   6.407   7.098   9.959  0.7937 -0.7174 -1.8241
   60SAPC   H4Y 4661   6.268   7.224   9.965 -2.5467 -0.7794 -0.1211
   60SAPC   C35 4662   6.259   7.074   9.809  0.3235  0.4367 -0.1252
   60SAPC   H5X 4663   6.318   7.126   9.731  0.7920  0.3081  0.1400
   60SAPC   H5Y 4664   6.156   7.113   9.798 -1.0749 -2.5521  1.1815
   60SAPC   C36 4665   6.268   6.918   9.784 -0.5634 -0.1650  0.8700
   60SAPC   H6X 4666   6.237   6.850   9.867  0.9376 -2.4359 -0.3143
   60SAPC   H6Y 4667   6.373   6.896   9.756 -0.9062  1.1244 -1.6985
   60SAPC   C37 4668   6.188   6.876   9.655  0.1825 -0.2967  0.9078
   60SAPC   H7X 4669   6.079   6.871   9.674  0.6944 -0.9498  4.3517
   60SAPC   H7Y 4670   6.215   6.771   9.631 -2.6714 -0.8110 -0.3723
   60SAPC   C38 4671   6.217   6.963   9.530 -0.4018  0.0921 -0.4139
   60SAPC   H8X 4672   6.321   7.003   9.526  0.1885 -1.3138  0.3779
   60SAPC   H8Y 4673   6.153   7.054   9.538 -1.1064 -0.4093 -0.2107
   60SAPC   C39 4674   6.191   6.894   9.401 -0.4210  0.4838  0.7285
   60SAPC   H9X 4675   6.109   6.820   9.411 -0.1044 -0.2485 -1.5035
   60SAPC   H9Y 4676   6.280   6.834   9.375 -0.7327  0.0059  0.7543
   60SAPC  C310 4677   6.152   6.978   9.283 -0.1808 -0.2757 -0.3628
   60SAPC  H10X 4678   6.236   7.048   9.266  0.2745 -0.6648  0.2375
   60SAPC  H10Y 4679   6.063   7.041   9.307  0.0910  0.0033 -0.0832
   60SAPC  C311 4680   6.143   6.895   9.150 -0.1040 -0.2196  0.0305
   60SAPC  H11X 4681   6.074   6.810   9.171  0.2570 -0.4859  0.1499
   60SAPC  H11Y 4682   6.242   6.851   9.124  0.6199  2.4051 -2.1287
   60SAPC  C312 4683   6.077   6.976   9.042 -0.3194 -0.5298 -0.3424
   60SAPC  H12X 4684   6.143   7.061   9.017  0.1711 -0.3507  1.4054
   60SAPC  H12Y 4685   5.978   7.012   9.077 -1.4700 -1.7088 -2.2437
   60SAPC  C313 4686   6.046   6.896   8.916 -0.1014  0.3874 -0.0217
   60SAPC  H13X 4687   5.998   6.803   8.953 -1.1831 -0.4240 -3.1708
   60SAPC  H13Y 4688   6.138   6.871   8.861 -0.8685  0.9085 -1.6076
   60SAPC  C314 4689   5.943   6.957   8.810  0.0939  0.6661 -0.5037
   60SAPC  H14X 4690   5.856   7.000   8.864  1.7716  0.7043  2.4094
   60SAPC  H14Y 4691   5.922   6.868   8.747  0.9630  0.3389 -0.3454
   60SAPC  C315 4692   5.990   7.074   8.718  0.5779  0.6757  0.1709
   60SAPC  H15X 4693   6.005   7.153   8.794 -0.6877 -0.2961  1.4699
   60SAPC  H15Y 4694   5.913   7.113   8.648  0.6435 -1.7678 -1.4024
   60SAPC  C316 4695   6.119   7.035   8.641 -0.2229 -0.8009  0.1406
   60SAPC  H16X 4696   6.121   6.942   8.580 -0.3423 -0.1262 -0.9105
   60SAPC  H16Y 4697   6.194   7.025   8.723  0.7352 -0.0122 -0.6110
   60SAPC  C317 4698   6.172   7.144   8.549  0.3171 -0.1244 -0.0890
   60SAPC  H17X 4699   6.101   7.167   8.467  0.4167 -2.6704 -0.9708
   60SAPC  H17Y 4700   6.262   7.097   8.504  0.8963  0.6159  0.2851
   60SAPC  C318 4701   6.215   7.271   8.614  0.2745  0.2657  0.4611
   60SAPC  H18X 4702   6.136   7.318   8.676 -0.2444  0.5574 -0.4072
   60SAPC  H18Y 4703   6.251   7.346   8.541  3.2536 -1.4371  0.0206
   60SAPC  H18Z 4704   6.284   7.245   8.697  1.9821 -0.6043 -1.1716
   61SAPC     N 4705   2.227   6.103  10.636  0.4148 -0.5040  1.1026
   61SAPC   C12 4706   2.100   6.141  10.711 -0.1321 -0.4182 -0.1057
   61SAPC  H12A 4707   2.127   6.230  10.767  0.5981 -0.0641 -1.0034
   61SAPC  H12B 4708   2.070   6.066  10.783 -3.2633 -0.4486 -1.2611
   61SAPC   C13 4709   2.278   6.222  10.557  0.4952 -0.8069 -0.0829
   61SAPC  H13A 4710   2.201   6.265  10.493  0.0814 -1.3912  0.0172
   61SAPC  H13B 4711   2.310   6.302  10.621  0.6299 -0.5331 -0.4859
   61SAPC  H13C 4712   2.370   6.197  10.508  1.5265 -2.1463  2.3920
   61SAPC   C14 4713   2.326   6.050  10.723 -0.0206  0.0997  0.5558
   61SAPC  H14A 4714   2.420   6.047  10.670  0.0774 -0.2518  0.7481
   61SAPC  H14B 4715   2.343   6.121  10.803  2.2140 -1.0373  1.1833
   61SAPC  H14C 4716   2.301   5.950  10.755 -0.0117 -0.2514 -0.5009
   61SAPC   C15 4717   2.201   5.994  10.531 -0.4342 -0.1869 -0.7434
   61SAPC  H15A 4718   2.142   6.039  10.452  2.1747  1.5536 -1.8383
   61SAPC  H15B 4719   2.290   5.967  10.475  0.3856 -3.3663  1.8408
   61SAPC  H15C 4720   2.157   5.902  10.566 -0.4201  0.3146  0.6215
   61SAPC   C11 4721   1.965   6.162  10.629 -0.8087  0.3619 -0.1898
   61SAPC  H11A 4722   1.879   6.177  10.699 -0.3547  1.0276  0.2357
   61SAPC  H11B 4723   1.935   6.076  10.565 -4.1242  0.5687  0.8921
   61SAPC     P 4724   1.962   6.420  10.604  0.0727 -0.0892 -0.1789
   61SAPC   O13 4725   1.976   6.414  10.756  0.1790  0.7407  0.5358
   61SAPC   O14 4726   2.056   6.509  10.537  0.4856 -0.1652 -0.4087
   61SAPC   O12 4727   1.982   6.279  10.542  0.2608 -0.5514  0.2008
   61SAPC   O11 4728   1.815   6.465  10.563  0.0246 -0.3857 -0.7012
   61SAPC    C1 4729   1.736   6.395  10.469 -0.0467 -0.1977 -0.5412
   61SAPC    HA 4730   1.719   6.289  10.500 -0.2919 -0.7863 -2.5460
   61SAPC    HB 4731   1.637   6.446  10.474  0.2779  0.4859 -0.9730
   61SAPC    C2 4732   1.771   6.410  10.323  0.3329 -0.0187  0.3598
   61SAPC    HS 4733   1.868   6.360  10.300 -0.6157 -1.8064  0.0470
   61SAPC   O21 4734   1.780   6.546  10.301 -0.0266 -0.4027 -0.1225
   61SAPC   C21 4735   1.857   6.594  10.201  0.0400 -0.6026  0.8081
   61SAPC   O22 4736   1.916   6.530  10.121 -0.0558  0.6962  0.6973
   61SAPC   C22 4737   1.865   6.746  10.198 -0.1549  0.1340  0.7557
   61SAPC   H2R 4738   1.783   6.780  10.265  0.2212 -0.0874  1.3295
   61SAPC   H2S 4739   1.962   6.771  10.245 -1.5102  1.8843  2.8006
   61SAPC    C3 4740   1.656   6.347  10.230  0.4074 -0.0554 -0.3517
   61SAPC    HX 4741   1.561   6.396  10.262 -0.7563 -2.2052 -0.3560
   61SAPC    HY 4742   1.641   6.242  10.264 -2.0604 -0.2766 -1.9264
   61SAPC   O31 4743   1.673   6.352  10.089  0.4477 -0.7910 -0.5861
   61SAPC   C31 4744   1.763   6.269  10.036  0.1532  0.1612  0.2034
   61SAPC   O32 4745   1.836   6.192  10.096 -0.3015  0.0887  0.1956
   61SAPC   C32 4746   1.761   6.278   9.884 -0.2873  0.1087  0.1879
   61SAPC   H2X 4747   1.662   6.319   9.855 -0.0136  0.2070 -0.6180
   61SAPC   H2Y 4748   1.763   6.172   9.849  0.2976 -0.3944  1.6704
   61SAPC   C23 4749   1.847   6.812  10.061  0.2628 -0.7294  0.4071
   61SAPC   H3R 4750   1.912   6.762   9.986  0.2930  1.5069 -1.1599
   61SAPC   H3S 4751   1.902   6.907  10.043  0.7389 -1.5234 -3.0881
   61SAPC   C24 4752   1.710   6.833   9.993 -0.5491 -0.8125  0.2063
   61SAPC   H4R 4753   1.715   6.906   9.909  0.4529 -0.0319  0.9203
   61SAPC   H4S 4754   1.639   6.881  10.063 -0.0418  0.7622 -0.3185
   61SAPC   C25 4755   1.661   6.698   9.935 -0.3332 -0.7054 -0.2471
   61SAPC   H5R 4756   1.611   6.632  10.008 -0.4212  1.4796  1.8105
   61SAPC   C26 4757   1.679   6.641   9.814 -0.2728  0.3999 -0.3982
   61SAPC   H6R 4758   1.615   6.556   9.791 -0.0786 -0.8763  3.1233
   61SAPC   C27 4759   1.752   6.703   9.694 -0.5536  0.5019  0.3421
   61SAPC   H7R 4760   1.824   6.632   9.647  0.6678  2.1314 -0.3527
   61SAPC   H7S 4761   1.829   6.772   9.734  0.5464 -1.6178  2.1128
   61SAPC   C28 4762   1.663   6.776   9.604 -0.5873  0.1477  1.1389
   61SAPC   H8R 4763   1.654   6.884   9.619 -0.5912  0.0854  1.6113
   61SAPC   C29 4764   1.603   6.723   9.500 -0.0443 -0.1494 -0.4811
   61SAPC   H9R 4765   1.541   6.794   9.443 -0.8249 -0.3098  0.1529
   61SAPC  C210 4766   1.607   6.578   9.456  0.0499 -0.2749  0.3634
   61SAPC  H10R 4767   1.635   6.506   9.536 -1.3740 -1.4421 -0.1606
   61SAPC  H10S 4768   1.678   6.569   9.371 -3.0813 -1.0572 -2.3832
   61SAPC  C211 4769   1.472   6.536   9.396  0.1850 -0.1472 -0.4664
   61SAPC  H11R 4770   1.398   6.503   9.471  1.2497 -0.1202  0.6078
   61SAPC  C212 4771   1.446   6.508   9.269  0.2578  0.1718  0.4696
   61SAPC  H12R 4772   1.347   6.469   9.239  0.6976  0.5678 -1.6294
   61SAPC  C213 4773   1.539   6.514   9.146  0.2438 -0.4492 -1.1492
   61SAPC  H13R 4774   1.642   6.548   9.170  0.9325 -3.3555  0.3968
   61SAPC  H13S 4775   1.515   6.589   9.067  1.2685  1.4686  0.2525
   61SAPC  C214 4776   1.556   6.374   9.097  0.2323 -0.8393  0.2064
   61SAPC  H14R 4777   1.604   6.303   9.166  1.5980 -0.4682 -0.3223
   61SAPC  C215 4778   1.506   6.326   8.980 -0.5420 -0.0777 -0.4304
   61SAPC  H15R 4779   1.526   6.220   8.957 -0.9322 -0.5172  1.1283
   61SAPC  C216 4780   1.437   6.401   8.869  0.6092  0.2273  0.7624
   61SAPC  H16R 4781   1.444   6.352   8.769  1.4716 -0.7437  1.2792
   61SAPC  H16S 4782   1.484   6.500   8.854  0.8192  0.0205 -0.0021
   61SAPC  C217 4783   1.284   6.424   8.892  0.2708  0.5651  0.7733
   61SAPC  H17R 4784   1.261   6.526   8.855  1.0733  0.7441  0.7703
   61SAPC  H17S 4785   1.261   6.431   9.000 -2.9697  1.7143  0.1292
   61SAPC  C218 4786   1.204   6.321   8.810  1.1771  0.1952  0.3189
   61SAPC  H18R 4787   1.235   6.221   8.847 -0.6304 -0.6751 -0.4351
   61SAPC  H18S 4788   1.215   6.326   8.699 -3.5764 -1.2034 -0.4468
   61SAPC  C219 4789   1.052   6.342   8.826 -0.5286 -0.1361 -0.2502
   61SAPC  H19R 4790   1.027   6.446   8.795  0.2949  0.1110 -0.1261
   61SAPC  H19S 4791   1.020   6.337   8.933 -1.0276  2.2559 -0.2361
   61SAPC  C220 4792   0.975   6.232   8.743 -0.0164  0.4288 -0.4075
   61SAPC  H20R 4793   1.016   6.132   8.767 -1.0695 -0.1483 -0.9321
   61SAPC  H20S 4794   0.977   6.237   8.632  1.6617 -2.4444 -0.6138
   61SAPC  H20T 4795   0.864   6.241   8.752  0.1206  0.8317  1.0471
   61SAPC   C33 4796   1.888   6.339   9.829  0.3950 -0.2137 -0.3366
   61SAPC   H3X 4797   1.978   6.287   9.871 -1.0288 -2.1049  0.5168
   61SAPC   H3Y 4798   1.886   6.446   9.858 -0.3240 -0.2472 -0.2488
   61SAPC   C34 4799   1.889   6.350   9.679 -0.3955 -0.5033  0.8818
   61SAPC   H4X 4800   1.801   6.414   9.657  0.4606  1.0520  1.7800
   61SAPC   H4Y 4801   1.881   6.248   9.635  0.5462 -1.1024  2.0502
   61SAPC   C35 4802   2.020   6.415   9.615 -0.2279  0.0713  0.1270
   61SAPC   H5X 4803   2.105   6.348   9.639  1.3792  0.7864 -3.0496
   61SAPC   H5Y 4804   2.036   6.514   9.663  1.9509  1.1280 -2.5309
   61SAPC   C36 4805   2.018   6.436   9.466  0.4102  0.1889 -0.5323
   61SAPC   H6X 4806   2.106   6.493   9.431 -0.4975  1.1803 -1.2756
   61SAPC   H6Y 4807   1.936   6.511   9.460 -2.3656 -2.6704 -1.2435
   61SAPC   C37 4808   1.988   6.316   9.373  0.8054  0.1069  0.1373
   61SAPC   H7X 4809   1.894   6.271   9.412 -0.9967  2.2733 -1.4860
   61SAPC   H7Y 4810   2.081   6.255   9.379 -0.6211 -2.0203  2.0759
   61SAPC   C38 4811   1.963   6.360   9.226 -0.0361  0.8803 -0.1227
   61SAPC   H8X 4812   2.055   6.403   9.183  0.6597 -2.7388 -2.6564
   61SAPC   H8Y 4813   1.877   6.430   9.218 -0.4831  0.8073  2.7497
   61SAPC   C39 4814   1.922   6.242   9.131 -0.6429 -0.1252 -0.1087
   61SAPC   H9X 4815   1.839   6.185   9.177 -0.1847 -2.6452 -2.1726
   61SAPC   H9Y 4816   2.012   6.177   9.134 -0.9929 -0.6448  3.0434
   61SAPC  C310 4817   1.907   6.279   8.988 -0.0336 -1.1417 -0.1799
   61SAPC  H10X 4818   1.992   6.328   8.935 -1.6869  2.1245 -0.0438
   61SAPC  H10Y 4819   1.828   6.356   9.002 -0.8319 -2.1734  1.2381
   61SAPC  C311 4820   1.863   6.170   8.888 -0.0211 -0.9533 -0.3085
   61SAPC  H11X 4821   1.789   6.100   8.934 -1.5554 -0.3866 -1.7941
   61SAPC  H11Y 4822   1.945   6.096   8.874  0.1149 -0.5137 -2.1179
   61SAPC  C312 4823   1.815   6.230   8.752 -0.8032  0.2101 -0.2578
   61SAPC  H12X 4824   1.905   6.267   8.698 -1.2618  0.4533 -0.8577
   61SAPC  H12Y 4825   1.748   6.317   8.769  0.2879  1.0718 -0.2661
   61SAPC  C313 4826   1.747   6.121   8.669 -0.0604  0.2115 -0.3094
   61SAPC  H13X 4827   1.649   6.102   8.718  0.0758  0.7582  0.1939
   61SAPC  H13Y 4828   1.810   6.030   8.661 -0.5926 -0.2218  0.3338
   61SAPC  C314 4829   1.712   6.155   8.519 -0.5769 -0.1775 -0.1070
   61SAPC  H14X 4830   1.794   6.218   8.477 -0.8976 -1.2535 -2.5092
   61SAPC  H14Y 4831   1.623   6.221   8.517  0.7841  1.7505 -0.0936
   61SAPC  C315 4832   1.704   6.033   8.423  0.3643 -0.0397  0.5234
   61SAPC  H15X 4833   1.627   5.968   8.470  1.0282 -1.3671 -0.1756
   61SAPC  H15Y 4834   1.798   5.975   8.427  1.4336  1.4744 -1.1743
   61SAPC  C316 4835   1.667   6.053   8.275  0.5218  0.0636 -1.0025
   61SAPC  H16X 4836   1.559   6.077   8.260  0.7294  1.8820  0.2116
   61SAPC  H16Y 4837   1.674   5.953   8.226  1.1599 -0.4852  0.1691
   61SAPC  C317 4838   1.758   6.148   8.189  0.2904  0.8931  0.2508
   61SAPC  H17X 4839   1.865   6.142   8.222  0.5746 -1.7197 -0.9129
   61SAPC  H17Y 4840   1.716   6.250   8.180 -4.3612 -0.7890  0.3197
   61SAPC  C318 4841   1.764   6.078   8.049  0.1543  0.2385  0.2944
   61SAPC  H18X 4842   1.810   6.149   7.976  0.4445  0.5007  0.7220
   61SAPC  H18Y 4843   1.662   6.068   8.006  0.4804 -1.4426 -0.1399
   61SAPC  H18Z 4844   1.815   5.980   8.050 -1.2504 -0.6056 -2.0133
   62SAPC     N 4845   1.641   5.315  10.574  0.1501 -0.0485 -0.4608
   62SAPC   C12 4846   1.765   5.249  10.521  0.3372 -0.2276 -0.7748
   62SAPC  H12A 4847   1.856   5.307  10.528  0.6230 -0.7630  0.0785
   62SAPC  H12B 4848   1.753   5.232  10.415 -0.0861 -2.0010 -0.4789
   62SAPC   C13 4849   1.589   5.424  10.489  0.0390  0.1950  0.0873
   62SAPC  H13A 4850   1.671   5.492  10.471 -0.4406  0.4801 -1.1890
   62SAPC  H13B 4851   1.555   5.389  10.392  1.3103 -0.8620  0.0031
   62SAPC  H13C 4852   1.509   5.484  10.530  0.4531 -0.3192  1.6944
   62SAPC   C14 4853   1.538   5.218  10.603 -0.2954 -0.3304  0.3962
   62SAPC  H14A 4854   1.515   5.150  10.522  2.1018 -1.4261  0.5681
   62SAPC  H14B 4855   1.579   5.147  10.673 -0.1346 -0.6629 -0.0281
   62SAPC  H14C 4856   1.451   5.262  10.649  0.5976  0.0425  1.7645
   62SAPC   C15 4857   1.689   5.383  10.698  0.5893  0.2092  0.0315
   62SAPC  H15A 4858   1.711   5.298  10.761  1.2839 -0.2430 -0.8090
   62SAPC  H15B 4859   1.772   5.450  10.683  0.0797  0.6785 -0.7452
   62SAPC  H15C 4860   1.608   5.439  10.742 -1.2959  0.0407 -2.9470
   62SAPC   C11 4861   1.803   5.115  10.585  0.2240  0.8105  0.0032
   62SAPC  H11A 4862   1.729   5.039  10.551  0.9444  0.2952 -0.4325
   62SAPC  H11B 4863   1.801   5.110  10.696  0.6023  0.0127 -0.0224
   62SAPC     P 4864   2.058   5.131  10.595  0.5863  0.2812  0.0410
   62SAPC   O13 4865   2.055   5.277  10.589 -0.3584  0.5845  0.0182
   62SAPC   O14 4866   2.062   5.077  10.735 -0.0694  0.0460 -0.5652
   62SAPC   O12 4867   1.926   5.077  10.520  0.4013  0.7579 -0.8318
   62SAPC   O11 4868   2.181   5.075  10.517 -0.1613  0.4124 -0.2077
   62SAPC    C1 4869   2.161   4.983  10.410  0.4441 -0.0189  0.5291
   62SAPC    HA 4870   2.130   4.881  10.440 -0.0193 -0.7505 -2.1335
   62SAPC    HB 4871   2.078   5.009  10.340  0.3402  0.4827  0.8288
   62SAPC    C2 4872   2.290   4.975  10.326  0.3273  0.1223  0.5169
   62SAPC    HS 4873   2.376   4.974  10.396  1.8231 -1.2247 -1.2408
   62SAPC   O21 4874   2.288   5.084  10.225  0.3656  0.1738 -0.3952
   62SAPC   C21 4875   2.403   5.143  10.206 -0.7312  0.5899  0.2665
   62SAPC   O22 4876   2.499   5.132  10.279  0.0141 -0.1061  0.2886
   62SAPC   C22 4877   2.414   5.215  10.075 -0.0905  0.0785  0.3714
   62SAPC   H2R 4878   2.510   5.271  10.073 -0.6705  1.1498 -2.6518
   62SAPC   H2S 4879   2.423   5.135   9.997  0.6841  0.7023 -0.2017
   62SAPC    C3 4880   2.291   4.843  10.252 -0.5172 -0.7408 -0.1246
   62SAPC    HX 4881   2.212   4.851  10.175 -0.7905 -0.5150  0.1741
   62SAPC    HY 4882   2.287   4.763  10.330 -0.6017 -0.2468  0.3871
   62SAPC   O31 4883   2.414   4.833  10.178 -0.2485 -0.6232 -1.2016
   62SAPC   C31 4884   2.439   4.713  10.129 -0.5802 -0.0596 -0.4295
   62SAPC   O32 4885   2.349   4.634  10.120  0.0980  0.4655 -0.2275
   62SAPC   C32 4886   2.587   4.690  10.087 -0.0821  0.1708 -0.1755
   62SAPC   H2X 4887   2.593   4.580  10.076  0.5901 -0.2576  3.2981
   62SAPC   H2Y 4888   2.655   4.730  10.165 -0.6625  0.1284  0.3653
   62SAPC   C23 4889   2.303   5.320  10.043  0.6367 -0.4367  0.5728
   62SAPC   H3R 4890   2.352   5.396   9.977 -0.5728  0.6346  0.8596
   62SAPC   H3S 4891   2.281   5.380  10.134  0.9991  0.6052 -0.0010
   62SAPC   C24 4892   2.178   5.261   9.967  0.8508  0.3834 -0.0579
   62SAPC   H4R 4893   2.122   5.353   9.942  1.2300  0.3553 -1.0433
   62SAPC   H4S 4894   2.124   5.193  10.037 -1.4072  0.4609 -1.6254
   62SAPC   C25 4895   2.217   5.189   9.838 -0.8801  0.0971 -0.3340
   62SAPC   H5R 4896   2.241   5.084   9.862  1.1536  0.3570 -1.0367
   62SAPC   C26 4897   2.211   5.252   9.716  0.7435  0.0428  0.5172
   62SAPC   H6R 4898   2.242   5.192   9.629  0.9245  0.3131  0.3941
   62SAPC   C27 4899   2.169   5.394   9.678 -0.0578  0.1392 -0.3158
   62SAPC   H7R 4900   2.259   5.451   9.645  1.4197 -2.4247 -1.0229
   62SAPC   H7S 4901   2.141   5.453   9.767  2.6863  1.0033  0.0951
   62SAPC   C28 4902   2.063   5.394   9.571 -0.2349  0.9241  0.4684
   62SAPC   H8R 4903   1.957   5.378   9.597 -0.6216 -1.8913 -2.2472
   62SAPC   C29 4904   2.091   5.416   9.442 -0.2751  0.0556  0.1241
   62SAPC   H9R 4905   2.007   5.429   9.372  1.0088 -2.8172 -2.1233
   62SAPC  C210 4906   2.226   5.435   9.380  0.0076 -0.8250 -0.1373
   62SAPC  H10R 4907   2.270   5.341   9.342  1.0907  0.5933 -2.6151
   62SAPC  H10S 4908   2.302   5.484   9.445 -0.0392  0.9870 -1.3933
   62SAPC  C211 4909   2.225   5.527   9.262 -0.1573  0.4901  0.3954
   62SAPC  H11R 4910   2.147   5.605   9.259  1.1014  1.9364  2.6705
   62SAPC  C212 4911   2.303   5.524   9.151 -0.2194 -0.1149  0.4175
   62SAPC  H12R 4912   2.271   5.596   9.074 -2.0602  0.0175  1.2506
   62SAPC  C213 4913   2.419   5.425   9.126 -0.0395 -0.5137 -0.4453
   62SAPC  H13R 4914   2.376   5.383   9.033 -2.1492 -0.7012  0.5549
   62SAPC  H13S 4915   2.437   5.341   9.196  2.2002  0.0213 -0.2968
   62SAPC  C214 4916   2.546   5.491   9.090  0.7247 -0.1623  0.2941
   62SAPC  H14R 4917   2.571   5.581   9.148  1.3264 -0.5602  0.6660
   62SAPC  C215 4918   2.618   5.462   8.980  0.3100 -0.3599  0.1542
   62SAPC  H15R 4919   2.710   5.518   8.959  0.8054 -1.5285 -0.8556
   62SAPC  C216 4920   2.570   5.359   8.880 -1.1823 -0.5546  0.6811
   62SAPC  H16R 4921   2.538   5.264   8.927 -0.4359 -0.6552  1.0040
   62SAPC  H16S 4922   2.654   5.322   8.816 -1.7164 -1.7496  0.6458
   62SAPC  C217 4923   2.472   5.408   8.773  0.2296 -0.7801  1.2442
   62SAPC  H17R 4924   2.523   5.483   8.709 -2.4100  1.0715  1.1468
   62SAPC  H17S 4925   2.389   5.460   8.826 -2.4813 -3.3408 -0.1706
   62SAPC  C218 4926   2.416   5.296   8.694 -0.3659  0.0232  0.1906
   62SAPC  H18R 4927   2.389   5.215   8.765  2.4381  0.0076  1.3462
   62SAPC  H18S 4928   2.488   5.250   8.624  0.4127  4.0403 -1.9481
   62SAPC  C219 4929   2.287   5.329   8.621 -0.4140 -0.2202 -0.0784
   62SAPC  H19R 4930   2.302   5.419   8.557  0.0348  0.9490  1.6031
   62SAPC  H19S 4931   2.212   5.350   8.701 -0.1258  0.5456  0.0040
   62SAPC  C220 4932   2.227   5.212   8.539  0.0385  0.0407 -0.4967
   62SAPC  H20R 4933   2.167   5.148   8.607  1.5963 -1.7142 -0.6837
   62SAPC  H20S 4934   2.309   5.150   8.495  0.1909 -0.2018  0.1214
   62SAPC  H20T 4935   2.157   5.241   8.457 -1.1049 -2.0086 -0.3084
   62SAPC   C33 4936   2.617   4.768   9.952 -0.1755  0.2243 -0.3134
   62SAPC   H3X 4937   2.724   4.762   9.924 -0.6112  1.7705 -2.5609
   62SAPC   H3Y 4938   2.599   4.878   9.954 -1.0280  0.1097  1.6320
   62SAPC   C34 4939   2.528   4.709   9.841  0.3785 -0.1702  0.5228
   62SAPC   H4X 4940   2.426   4.695   9.882  0.7026  0.6108  1.6567
   62SAPC   H4Y 4941   2.563   4.606   9.822  1.1989 -0.4553  3.2165
   62SAPC   C35 4942   2.522   4.791   9.712 -0.4857 -0.1279 -0.4546
   62SAPC   H5X 4943   2.618   4.776   9.657 -0.5943 -3.4149  0.0388
   62SAPC   H5Y 4944   2.499   4.899   9.718  0.2993  0.0930 -1.1852
   62SAPC   C36 4945   2.433   4.721   9.608  0.0508 -0.5800 -0.5732
   62SAPC   H6X 4946   2.331   4.737   9.648  1.0651 -2.2567  3.0816
   62SAPC   H6Y 4947   2.452   4.612   9.623  0.2430 -0.3741  0.7536
   62SAPC   C37 4948   2.444   4.781   9.464 -0.5261 -0.4328 -0.2330
   62SAPC   H7X 4949   2.422   4.890   9.468 -0.2886 -0.4238  2.6113
   62SAPC   H7Y 4950   2.366   4.734   9.399 -0.4664 -1.9200  0.7319
   62SAPC   C38 4951   2.581   4.765   9.384 -0.6710 -0.7927  0.5487
   62SAPC   H8X 4952   2.579   4.659   9.352  0.9683 -1.7942  3.3585
   62SAPC   H8Y 4953   2.666   4.763   9.456 -0.8393  0.3691  0.8134
   62SAPC   C39 4954   2.586   4.873   9.269 -0.2614  0.5792  0.4534
   62SAPC   H9X 4955   2.577   4.973   9.317 -2.3273  0.3274  0.6562
   62SAPC   H9Y 4956   2.500   4.860   9.200  0.6525  0.3745 -0.6780
   62SAPC  C310 4957   2.718   4.858   9.193  0.1947 -0.7218 -0.2429
   62SAPC  H10X 4958   2.727   4.757   9.148 -0.9050 -1.2976  0.7526
   62SAPC  H10Y 4959   2.800   4.866   9.267 -0.4116  1.2861  0.2949
   62SAPC  C311 4960   2.732   4.959   9.075 -0.2420  0.1043  0.2362
   62SAPC  H11X 4961   2.828   4.935   9.025  0.4612 -0.3749  1.7487
   62SAPC  H11Y 4962   2.730   5.057   9.126 -0.8260 -0.0203  0.4627
   62SAPC  C312 4963   2.623   4.950   8.972 -0.0691 -0.4454  0.0932
   62SAPC  H12X 4964   2.645   5.010   8.881  0.8102 -0.3904  0.3247
   62SAPC  H12Y 4965   2.535   4.998   9.020  0.2507  1.7397 -1.3572
   62SAPC  C313 4966   2.590   4.817   8.914 -0.0001  0.2575  0.3364
   62SAPC  H13X 4967   2.592   4.732   8.985  1.2921  0.0201  0.0404
   62SAPC  H13Y 4968   2.674   4.784   8.849  2.9934  2.6521  2.6680
   62SAPC  C314 4969   2.466   4.821   8.826  0.5329 -0.1446 -0.2094
   62SAPC  H14X 4970   2.390   4.869   8.891  1.0376  1.2226 -0.6053
   62SAPC  H14Y 4971   2.437   4.719   8.792 -0.6959  0.5057 -1.1815
   62SAPC  C315 4972   2.477   4.891   8.689  0.2130 -0.2591 -0.3593
   62SAPC  H15X 4973   2.511   4.996   8.685  2.7518 -1.0267 -1.2666
   62SAPC  H15Y 4974   2.375   4.886   8.647 -0.1523 -0.1304  0.4945
   62SAPC  C316 4975   2.554   4.809   8.585  0.0284  0.3645  0.1294
   62SAPC  H16X 4976   2.503   4.710   8.590  0.3636  0.1748 -0.1472
   62SAPC  H16Y 4977   2.661   4.790   8.607 -0.2963 -0.8029  0.7597
   62SAPC  C317 4978   2.535   4.859   8.438  0.2868 -0.1560 -0.6016
   62SAPC  H17X 4979   2.429   4.894   8.437 -0.3427 -1.5289  2.9876
   62SAPC  H17Y 4980   2.547   4.771   8.371 -2.1409 -0.4774 -0.7231
   62SAPC  C318 4981   2.633   4.959   8.390 -0.0999  0.0685  0.3130
   62SAPC  H18X 4982   2.596   5.062   8.406  0.0373  0.2566 -0.5450
   62SAPC  H18Y 4983   2.653   4.951   8.281  0.7659  0.0001  0.4697
   62SAPC  H18Z 4984   2.732   4.944   8.438 -0.0348 -0.6708 -0.0300
   63SAPC     N 4985   4.866   2.817   6.123  0.8285  0.0185 -0.1683
   63SAPC   C12 4986   4.745   2.897   6.074  1.1562 -0.5857 -0.1903
   63SAPC  H12A 4987   4.689   2.857   5.991 -1.8315 -1.4306  2.0503
   63SAPC  H12B 4988   4.794   2.983   6.031  1.1494 -0.8161 -0.6667
   63SAPC   C13 4989   4.825   2.677   6.168 -0.4222  1.0316  0.7337
   63SAPC  H13A 4990   4.773   2.637   6.083  0.8709  1.7265 -0.4348
   63SAPC  H13B 4991   4.915   2.620   6.187 -0.4621  0.4542 -0.6828
   63SAPC  H13C 4992   4.764   2.671   6.257 -1.4649 -1.8187 -0.0574
   63SAPC   C14 4993   4.958   2.795   6.010  0.3938  0.3478 -0.0951
   63SAPC  H14A 4994   5.037   2.725   6.035  0.1586 -0.5087 -1.6547
   63SAPC  H14B 4995   4.908   2.752   5.925 -0.5536 -2.1753  1.6214
   63SAPC  H14C 4996   5.013   2.885   5.986 -0.9135  0.8153 -1.4269
   63SAPC   C15 4997   4.944   2.875   6.230 -0.0741 -0.0830 -0.4538
   63SAPC  H15A 4998   5.015   2.796   6.250 -2.2480 -1.8182  0.9032
   63SAPC  H15B 4999   4.985   2.972   6.205  0.3937  0.3592  1.7970
   63SAPC  H15C 5000   4.880   2.881   6.317  1.8252 -0.0522  1.0126
   63SAPC   C11 5001   4.642   2.938   6.182  0.3266 -0.5906 -0.4497
   63SAPC  H11A 5002   4.595   2.846   6.223 -0.3541 -0.1391 -0.1885
   63SAPC  H11B 5003   4.550   2.992   6.149  0.2629 -0.0047  0.6438
   63SAPC     P 5004   4.686   3.173   6.297  0.2245 -0.0888 -0.1054
   63SAPC   O13 5005   4.811   3.229   6.360  0.0951 -0.0443  0.9720
   63SAPC   O14 5006   4.636   3.222   6.162  0.1782  0.0088 -0.0186
   63SAPC   O12 5007   4.703   3.016   6.288 -0.4814 -0.1797  0.8570
   63SAPC   O11 5008   4.567   3.186   6.400  0.4647  0.0097  0.4452
   63SAPC    C1 5009   4.561   3.096   6.514 -0.5909 -0.3557  1.1133
   63SAPC    HA 5010   4.535   2.994   6.477  1.7482 -0.1058 -1.5583
   63SAPC    HB 5011   4.660   3.093   6.564  0.8151 -3.4490 -1.4728
   63SAPC    C2 5012   4.452   3.135   6.624  0.1013 -0.1355  0.0768
   63SAPC    HS 5013   4.441   3.055   6.700 -0.0224 -0.6332 -0.4566
   63SAPC   O21 5014   4.330   3.178   6.553 -0.0014 -0.2930 -0.2224
   63SAPC   C21 5015   4.245   3.076   6.514 -0.3843  0.1352  0.0795
   63SAPC   O22 5016   4.280   2.956   6.526  0.5942 -0.1792  0.2059
   63SAPC   C22 5017   4.123   3.132   6.451 -0.5945 -0.0336 -0.2361
   63SAPC   H2R 5018   4.101   3.236   6.484 -2.8392 -0.7516  0.7176
   63SAPC   H2S 5019   4.148   3.138   6.343 -0.1912 -0.5913 -0.1783
   63SAPC    C3 5020   4.503   3.253   6.711  0.0184  0.1371 -0.1585
   63SAPC    HX 5021   4.417   3.273   6.778 -1.2366 -2.5989 -0.8048
   63SAPC    HY 5022   4.529   3.340   6.646 -0.0067  1.4324  1.4863
   63SAPC   O31 5023   4.610   3.220   6.792 -0.4478 -0.0503  0.4666
   63SAPC   C31 5024   4.720   3.298   6.793 -0.2556 -0.1137 -0.3213
   63SAPC   O32 5025   4.734   3.409   6.745 -0.1362  0.1082  0.1909
   63SAPC   C32 5026   4.825   3.228   6.871 -0.7262  0.0526  0.8822
   63SAPC   H2X 5027   4.897   3.304   6.908 -1.3111 -0.9602  4.5340
   63SAPC   H2Y 5028   4.864   3.161   6.790 -1.3957 -0.7443  1.2005
   63SAPC   C23 5029   4.006   3.032   6.465 -0.4777  0.0552 -0.3796
   63SAPC   H3R 5030   4.026   2.929   6.428  2.2475 -0.6587  2.6018
   63SAPC   H3S 5031   3.911   3.062   6.415 -1.3387 -2.5868 -0.5151
   63SAPC   C24 5032   3.963   3.001   6.613  0.4291  0.1876 -0.6086
   63SAPC   H4R 5033   4.035   2.933   6.664  1.4659  1.7472  0.1183
   63SAPC   H4S 5034   3.878   2.932   6.599  0.9258 -0.4738 -0.4172
   63SAPC   C25 5035   3.917   3.127   6.690  0.0503 -0.1272  0.0282
   63SAPC   H5R 5036   3.904   3.216   6.626  1.1676 -0.2082 -0.3252
   63SAPC   C26 5037   3.923   3.154   6.820 -0.1175  0.3369 -0.2060
   63SAPC   H6R 5038   3.899   3.255   6.858 -0.0055  1.3132 -2.5800
   63SAPC   C27 5039   3.968   3.057   6.933 -0.4257  0.2249 -0.0351
   63SAPC   H7R 5040   3.990   2.956   6.891  1.6481  0.2447  0.9119
   63SAPC   H7S 5041   3.891   3.029   7.009 -1.2925  1.0296 -0.5873
   63SAPC   C28 5042   4.100   3.107   6.987 -0.4733 -0.4321  0.4770
   63SAPC   H8R 5043   4.180   3.098   6.911 -0.8352 -0.9108  0.1520
   63SAPC   C29 5044   4.127   3.159   7.111  0.3909  0.3005 -0.1995
   63SAPC   H9R 5045   4.224   3.200   7.141  1.7939 -2.9950  0.1887
   63SAPC  C210 5046   4.030   3.160   7.227  0.1073  0.6459 -0.4512
   63SAPC  H10R 5047   3.924   3.142   7.200  0.4799  1.5574 -2.8041
   63SAPC  H10S 5048   4.037   3.259   7.276  1.3522  0.3084  0.1092
   63SAPC  C211 5049   4.061   3.046   7.323 -0.1338 -0.0636 -0.2178
   63SAPC  H11R 5050   4.019   2.947   7.300 -1.4267  0.7398 -1.4661
   63SAPC  C212 5051   4.130   3.047   7.445  1.1041  0.0377  0.2431
   63SAPC  H12R 5052   4.132   2.955   7.505 -0.0669  0.5744  1.1468
   63SAPC  C213 5053   4.191   3.169   7.513  0.1618 -0.1740  0.0043
   63SAPC  H13R 5054   4.181   3.260   7.451  3.9141  0.7012  0.4527
   63SAPC  H13S 5055   4.301   3.158   7.528  0.0753 -3.0138 -0.8607
   63SAPC  C214 5056   4.120   3.213   7.646  0.3443  0.0248  0.0893
   63SAPC  H14R 5057   4.013   3.193   7.659  0.0974  0.9757 -0.3490
   63SAPC  C215 5058   4.191   3.281   7.746  0.6050  0.1241 -0.6548
   63SAPC  H15R 5059   4.142   3.316   7.838  1.5426 -0.1615 -0.0316
   63SAPC  C216 5060   4.335   3.330   7.746 -0.0316  0.4483  0.1498
   63SAPC  H16R 5061   4.379   3.335   7.644  0.4985  0.4537  0.3760
   63SAPC  H16S 5062   4.395   3.252   7.797 -0.7486 -0.8601 -0.9090
   63SAPC  C217 5063   4.355   3.469   7.804 -0.1605  0.2089  0.1166
   63SAPC  H17R 5064   4.464   3.479   7.827  0.5402 -3.9369 -0.5450
   63SAPC  H17S 5065   4.300   3.476   7.900 -0.2033  0.0010  0.1070
   63SAPC  C218 5066   4.306   3.580   7.714 -0.0578  0.4498 -0.1576
   63SAPC  H18R 5067   4.202   3.552   7.685 -0.5562 -0.2617  2.1133
   63SAPC  H18S 5068   4.369   3.583   7.623  0.4096  0.1445  0.1548
   63SAPC  C219 5069   4.296   3.723   7.770  0.1941 -0.5361 -0.3674
   63SAPC  H19R 5070   4.399   3.762   7.786  0.3618 -0.2077 -2.1469
   63SAPC  H19S 5071   4.239   3.723   7.865  0.8538  0.4988  0.0498
   63SAPC  C220 5072   4.229   3.812   7.668  0.4684 -0.3826 -0.6294
   63SAPC  H20R 5073   4.136   3.761   7.634  1.3189 -0.7795 -2.5256
   63SAPC  H20S 5074   4.298   3.826   7.581  3.3680  2.1759  1.8348
   63SAPC  H20T 5075   4.208   3.909   7.719  0.4690 -0.7946  0.1517
   63SAPC   C33 5076   4.783   3.146   6.990 -0.2174 -0.6972 -0.1679
   63SAPC   H3X 5077   4.709   3.070   6.957  0.8020 -1.3036 -1.0908
   63SAPC   H3Y 5078   4.726   3.218   7.053  0.0178 -2.2441  1.9458
   63SAPC   C34 5079   4.894   3.085   7.065  0.6933 -0.3203 -0.8187
   63SAPC   H4X 5080   4.969   3.163   7.091 -1.9218  2.8630 -2.1185
   63SAPC   H4Y 5081   4.942   3.004   7.005  0.2295 -0.0816 -1.5376
   63SAPC   C35 5082   4.848   3.039   7.206 -0.0912 -0.0939  0.1196
   63SAPC   H5X 5083   4.777   2.959   7.179 -0.3486  0.2795 -0.3422
   63SAPC   H5Y 5084   4.783   3.115   7.254 -0.5678  1.1974 -2.4062
   63SAPC   C36 5085   4.964   2.994   7.291  0.3241 -0.5093 -0.6590
   63SAPC   H6X 5086   5.050   3.062   7.274 -0.9013  0.9155 -1.3989
   63SAPC   H6Y 5087   4.994   2.894   7.256  1.0929 -0.6861  0.4595
   63SAPC   C37 5088   4.925   2.956   7.440 -0.8530 -0.3072 -0.2857
   63SAPC   H7X 5089   4.823   2.912   7.437 -0.6581 -0.9238  1.4023
   63SAPC   H7Y 5090   4.919   3.051   7.497  0.4600 -0.9222  0.9319
   63SAPC   C38 5091   5.029   2.867   7.504  0.0217  0.5104 -0.4335
   63SAPC   H8X 5092   5.134   2.894   7.483  0.6755 -2.6738 -1.8231
   63SAPC   H8Y 5093   5.021   2.768   7.456  1.8743  0.0444  0.1345
   63SAPC   C39 5094   5.003   2.830   7.657 -0.0602  0.3450  0.4293
   63SAPC   H9X 5095   5.060   2.741   7.692 -0.1549  0.5951  1.2356
   63SAPC   H9Y 5096   4.894   2.812   7.660 -0.8474  4.3634  2.3711
   63SAPC  C310 5097   5.020   2.940   7.756 -0.1759 -0.1367 -0.2893
   63SAPC  H10X 5098   4.963   3.028   7.718 -1.3779 -0.1097  1.4932
   63SAPC  H10Y 5099   5.128   2.968   7.756 -0.2938  0.3450 -0.5489
   63SAPC  C311 5100   4.974   2.901   7.896 -0.2201 -0.0417  0.0256
   63SAPC  H11X 5101   5.025   2.810   7.933  0.4848  0.8804  1.4111
   63SAPC  H11Y 5102   4.868   2.870   7.894  0.1472 -1.3597  0.2281
   63SAPC  C312 5103   5.006   3.003   8.011  0.3114 -0.7350  0.0733
   63SAPC  H12X 5104   4.992   3.099   7.957  0.5888 -1.2892 -1.0087
   63SAPC  H12Y 5105   5.116   2.993   8.010  0.2429 -2.1792 -2.7267
   63SAPC  C313 5106   4.956   2.976   8.154 -0.9914  0.0941  0.1668
   63SAPC  H13X 5107   4.983   3.061   8.220 -1.0754 -0.0535  0.3942
   63SAPC  H13Y 5108   5.019   2.894   8.196 -0.0568  1.3489  1.2988
   63SAPC  C314 5109   4.815   2.920   8.160  0.0757  0.4856 -0.4721
   63SAPC  H14X 5110   4.812   2.819   8.115  1.3289 -0.4170  1.3208
   63SAPC  H14Y 5111   4.753   2.991   8.101  1.3398  0.9124 -1.3344
   63SAPC  C315 5112   4.758   2.913   8.300  0.0440 -1.3108 -0.4591
   63SAPC  H15X 5113   4.842   2.876   8.362  0.8104  1.2846  0.1719
   63SAPC  H15Y 5114   4.656   2.869   8.295 -0.4400 -0.1738 -0.9118
   63SAPC  C316 5115   4.734   3.059   8.341  0.3062  0.5782 -0.4849
   63SAPC  H16X 5116   4.664   3.091   8.261 -3.1624 -2.8266  0.9125
   63SAPC  H16Y 5117   4.816   3.133   8.353 -0.2946  0.9417  1.6611
   63SAPC  C317 5118   4.658   3.068   8.470 -0.1977 -0.2968  0.4445
   63SAPC  H17X 5119   4.561   3.024   8.438  0.7539 -1.2585 -1.2378
   63SAPC  H17Y 5120   4.659   3.177   8.494  0.3556 -0.3288  0.5779
   63SAPC  C318 5121   4.716   2.991   8.587 -1.1580 -0.2163  0.6427
   63SAPC  H18X 5122   4.651   3.020   8.672 -1.6304 -2.0838  0.9729
   63SAPC  H18Y 5123   4.824   3.014   8.601 -1.0975  0.7837 -1.1489
   63SAPC  H18Z 5124   4.722   2.881   8.571 -2.4548 -0.2432  0.2403
   64SAPC     N 5125   0.644   3.611   5.901  0.5510 -0.5436 -0.3569
   64SAPC   C12 5126   0.577   3.670   6.021 -0.7071 -0.5354 -0.2139
   64SAPC  H12A 5127   0.624   3.621   6.104 -1.0787 -0.5465 -0.0098
   64SAPC  H12B 5128   0.472   3.643   6.017 -0.6235 -1.0181  0.6382
   64SAPC   C13 5129   0.586   3.472   5.874  0.4642  0.6201 -0.0027
   64SAPC  H13A 5130   0.589   3.412   5.964  0.9811  1.0746  0.2869
   64SAPC  H13B 5131   0.483   3.468   5.842 -0.1431  0.4542  1.8257
   64SAPC  H13C 5132   0.632   3.422   5.790 -0.4524 -1.4063  0.6335
   64SAPC   C14 5133   0.604   3.681   5.775 -0.2179 -0.0450  0.3584
   64SAPC  H14A 5134   0.631   3.785   5.780 -0.2753  0.1173 -1.6782
   64SAPC  H14B 5135   0.659   3.645   5.689 -1.0662  0.8057 -0.5641
   64SAPC  H14C 5136   0.497   3.681   5.763 -0.0796 -2.2596 -1.5530
   64SAPC   C15 5137   0.791   3.611   5.927 -0.0579 -0.6433  0.1669
   64SAPC  H15A 5138   0.841   3.704   5.952  2.1166 -1.7902  0.2746
   64SAPC  H15B 5139   0.826   3.537   5.997 -0.4421  1.3960  2.6781
   64SAPC  H15C 5140   0.844   3.587   5.836  2.1713  0.7433  1.0200
   64SAPC   C11 5141   0.595   3.817   6.034  0.9860 -0.4058 -0.0832
   64SAPC  H11A 5142   0.702   3.842   6.019  0.1118  2.9022 -1.7147
   64SAPC  H11B 5143   0.573   3.854   6.137 -0.2466  0.3274 -0.5809
   64SAPC     P 5144   0.368   3.892   5.922  0.1920  0.2441  0.4677
   64SAPC   O13 5145   0.329   4.015   5.996  0.0189 -0.1083  0.3339
   64SAPC   O14 5146   0.330   3.897   5.779 -0.8713 -0.1727 -0.1784
   64SAPC   O12 5147   0.527   3.889   5.931 -0.1926 -0.0645 -0.1065
   64SAPC   O11 5148   0.314   3.774   6.012  0.0168  0.3761  0.1541
   64SAPC    C1 5149   0.198   3.775   6.096 -0.6653 -0.2407 -0.7249
   64SAPC    HA 5150   0.121   3.840   6.048 -0.1757  1.5683  0.8487
   64SAPC    HB 5151   0.156   3.673   6.110 -1.4899  0.4235  2.1366
   64SAPC    C2 5152   0.219   3.833   6.237  0.7623  0.6063  0.3994
   64SAPC    HS 5153   0.242   3.941   6.224 -0.6434  0.8443 -0.2999
   64SAPC   O21 5154   0.334   3.766   6.301  0.5391 -0.5569 -0.5976
   64SAPC   C21 5155   0.378   3.838   6.410  0.1057  1.0412  0.1740
   64SAPC   O22 5156   0.352   3.956   6.430  0.0538 -0.2328 -0.2850
   64SAPC   C22 5157   0.449   3.744   6.503  1.1792  0.0371  0.2900
   64SAPC   H2R 5158   0.476   3.642   6.468  0.3244 -1.1822  2.9124
   64SAPC   H2S 5159   0.541   3.799   6.530  1.7494 -1.0178  0.5258
   64SAPC    C3 5160   0.093   3.834   6.329 -0.6150 -0.0824 -0.2973
   64SAPC    HX 5161   0.016   3.887   6.269 -0.7653  2.0493  1.6598
   64SAPC    HY 5162   0.109   3.889   6.424 -1.1585 -1.0132  0.3567
   64SAPC   O31 5163   0.060   3.701   6.368 -0.3087 -1.0293 -0.2940
   64SAPC   C31 5164  -0.050   3.649   6.323  0.0591 -0.4192  0.7787
   64SAPC   O32 5165  -0.132   3.704   6.251 -0.4058  0.3674 -0.4264
   64SAPC   C32 5166  -0.071   3.513   6.389  1.3051  0.0361 -0.2020
   64SAPC   H2X 5167   0.019   3.450   6.377  1.8399  0.4238  1.5636
   64SAPC   H2Y 5168  -0.162   3.469   6.342  0.5293  0.8482  0.4904
   64SAPC   C23 5169   0.387   3.733   6.642 -0.5807 -0.1399  0.3648
   64SAPC   H3R 5170   0.337   3.832   6.648  1.6928  1.0756  0.6147
   64SAPC   H3S 5171   0.469   3.740   6.717 -1.3858 -0.1428  1.2565
   64SAPC   C24 5172   0.297   3.619   6.669 -0.0059  0.0372 -0.2650
   64SAPC   H4R 5173   0.366   3.534   6.647  1.7913  1.5406 -0.7406
   64SAPC   H4S 5174   0.215   3.597   6.598  0.8746  1.0267 -1.6518
   64SAPC   C25 5175   0.231   3.622   6.803  0.6638 -0.1773 -1.2611
   64SAPC   H5R 5176   0.160   3.705   6.816 -0.0772 -0.7736 -1.4559
   64SAPC   C26 5177   0.243   3.526   6.901  0.7201 -0.0239  0.6809
   64SAPC   H6R 5178   0.177   3.526   6.988  1.2545 -1.0220  1.1005
   64SAPC   C27 5179   0.330   3.402   6.902  0.1018  0.4805 -0.4429
   64SAPC   H7R 5180   0.402   3.407   6.986 -1.6682  0.1935  1.1628
   64SAPC   H7S 5181   0.384   3.387   6.806  0.2901  1.9035 -0.5812
   64SAPC   C28 5182   0.230   3.294   6.913  0.1039  0.9911  0.4492
   64SAPC   H8R 5183   0.185   3.270   6.815  0.0399 -0.0277  0.7204
   64SAPC   C29 5184   0.208   3.213   7.019  0.0696  0.1486 -0.4959
   64SAPC   H9R 5185   0.127   3.139   7.012 -1.3701  1.7416 -1.3950
   64SAPC  C210 5186   0.268   3.219   7.154 -0.1288  0.1959  0.9151
   64SAPC  H10R 5187   0.369   3.261   7.138  0.2043 -0.3281  1.5853
   64SAPC  H10S 5188   0.289   3.116   7.190 -2.1995 -0.1658  1.2104
   64SAPC  C211 5189   0.195   3.301   7.258 -0.1011 -0.2984  0.2102
   64SAPC  H11R 5190   0.112   3.358   7.214 -2.4936 -1.3899  2.9971
   64SAPC  C212 5191   0.227   3.294   7.393  0.6584  0.4397  0.0404
   64SAPC  H12R 5192   0.164   3.353   7.461  0.5097  1.9573 -1.3342
   64SAPC  C213 5193   0.335   3.213   7.457 -0.6941 -0.1043  0.4433
   64SAPC  H13R 5194   0.392   3.281   7.524  1.2964 -1.1164 -0.1500
   64SAPC  H13S 5195   0.407   3.173   7.382 -0.4786 -0.0728  0.6349
   64SAPC  C214 5196   0.283   3.078   7.520 -0.2690  0.3187 -0.0211
   64SAPC  H14R 5197   0.233   3.003   7.457  1.4909 -1.3269  0.4314
   64SAPC  C215 5198   0.322   3.041   7.639 -0.0159 -0.1432 -0.2755
   64SAPC  H15R 5199   0.279   2.950   7.683 -1.6205  1.6638  2.1727
   64SAPC  C216 5200   0.394   3.117   7.741 -0.5759 -0.3827  0.1869
   64SAPC  H16R 5201   0.372   3.071   7.839 -0.7843  1.4458  1.0404
   64SAPC  H16S 5202   0.349   3.218   7.747  1.8365  0.6820  2.0015
   64SAPC  C217 5203   0.545   3.123   7.722  0.4445  0.0043  0.0743
   64SAPC  H17R 5204   0.577   3.171   7.627  2.3712 -1.0120  0.1575
   64SAPC  H17S 5205   0.581   3.020   7.702  0.7198 -0.2154  1.6101
   64SAPC  C218 5206   0.616   3.184   7.843  0.3437  0.4559  0.5055
   64SAPC  H18R 5207   0.725   3.171   7.822  0.3068  0.3659  0.3685
   64SAPC  H18S 5208   0.575   3.137   7.934  1.2209  1.1898  1.3109
   64SAPC  C219 5209   0.593   3.336   7.857  0.3285 -1.1215  0.3677
   64SAPC  H19R 5210   0.649   3.383   7.941  0.0431 -0.5304  0.2350
   64SAPC  H19S 5211   0.483   3.347   7.870  0.6463  0.6987  2.0202
   64SAPC  C220 5212   0.635   3.408   7.727  0.1248  0.3500  0.2790
   64SAPC  H20R 5213   0.562   3.379   7.649 -1.8888  0.9278  1.8399
   64SAPC  H20S 5214   0.741   3.388   7.702  0.1985  1.7314 -0.6038
   64SAPC  H20T 5215   0.628   3.519   7.736 -0.6655  0.1693  2.6176
   64SAPC   C33 5216  -0.118   3.534   6.532  0.6263  0.3365 -0.1967
   64SAPC   H3X 5217  -0.215   3.588   6.525  2.2091  3.0679 -4.5206
   64SAPC   H3Y 5218  -0.043   3.597   6.584  0.4349  1.5352 -1.3498
   64SAPC   C34 5219  -0.140   3.404   6.608 -0.1653  0.2779  0.5876
   64SAPC   H4X 5220  -0.071   3.325   6.569 -0.4026  0.7186 -0.8071
   64SAPC   H4Y 5221  -0.240   3.363   6.584  0.1015 -0.6998  1.1113
   64SAPC   C35 5222  -0.129   3.419   6.759  0.5142 -0.0953 -1.1057
   64SAPC   H5X 5223  -0.187   3.506   6.797  1.3357 -0.1688  0.4034
   64SAPC   H5Y 5224  -0.021   3.437   6.781  0.4842 -0.4958 -0.6124
   64SAPC   C36 5225  -0.180   3.305   6.838 -0.0740 -0.1666 -0.2424
   64SAPC   H6X 5226  -0.124   3.216   6.802  0.2710  0.7838 -2.1568
   64SAPC   H6Y 5227  -0.287   3.300   6.807 -0.4318  2.0293  0.4593
   64SAPC   C37 5228  -0.172   3.313   6.997 -0.4017  0.9309  0.0753
   64SAPC   H7X 5229  -0.230   3.401   7.032 -0.3674  1.4792 -1.1787
   64SAPC   H7Y 5230  -0.074   3.353   7.030 -1.1052  3.0007 -0.2108
   64SAPC   C38 5231  -0.206   3.179   7.064 -0.9033  0.6415  0.0348
   64SAPC   H8X 5232  -0.138   3.106   7.015 -2.3957 -1.9317  1.5595
   64SAPC   H8Y 5233  -0.306   3.146   7.030 -0.3090 -1.0081 -0.1799
   64SAPC   C39 5234  -0.182   3.188   7.214  0.4464 -0.4861  0.2023
   64SAPC   H9X 5235  -0.247   3.270   7.250  2.1315 -0.5499  3.8333
   64SAPC   H9Y 5236  -0.075   3.205   7.240  1.6456 -5.1178 -0.8232
   64SAPC  C310 5237  -0.219   3.057   7.287 -0.1686  0.5967 -0.6753
   64SAPC  H10X 5238  -0.180   2.976   7.222  2.7250  1.6200 -0.3773
   64SAPC  H10Y 5239  -0.329   3.044   7.297  0.2771 -1.5602  3.7432
   64SAPC  C311 5240  -0.172   3.053   7.435 -0.0610  0.1202  0.4732
   64SAPC  H11X 5241  -0.064   3.079   7.438  0.4005 -1.7139  0.8211
   64SAPC  H11Y 5242  -0.185   2.948   7.471  2.4567 -1.2681 -2.2794
   64SAPC  C312 5243  -0.247   3.149   7.518 -0.7230 -0.2443  0.5341
   64SAPC  H12X 5244  -0.332   3.112   7.579 -0.6901 -0.5412  0.4035
   64SAPC  H12Y 5245  -0.271   3.230   7.446 -0.8541  0.0818  0.9446
   64SAPC  C313 5246  -0.155   3.212   7.626  0.4145  0.5898 -0.2673
   64SAPC  H13X 5247  -0.209   3.290   7.683  1.5735 -0.0068  1.7666
   64SAPC  H13Y 5248  -0.063   3.257   7.583  0.6542  0.9402  0.5935
   64SAPC  C314 5249  -0.107   3.109   7.734  0.3469 -0.3568 -0.2236
   64SAPC  H14X 5250  -0.032   3.042   7.685 -0.0039  0.6494 -2.2501
   64SAPC  H14Y 5251  -0.187   3.040   7.767  1.1889 -1.5981 -0.6998
   64SAPC  C315 5252  -0.044   3.183   7.851  0.2658 -0.0014 -0.2901
   64SAPC  H15X 5253  -0.130   3.218   7.912  0.4480  0.4209 -0.2728
   64SAPC  H15Y 5254   0.010   3.273   7.815  3.1876 -1.9601 -1.1304
   64SAPC  C316 5255   0.046   3.086   7.937  0.7060 -0.5268  0.0310
   64SAPC  H16X 5256   0.128   3.044   7.874  1.3522  0.6095  0.0970
   64SAPC  H16Y 5257  -0.016   2.998   7.966 -1.2525 -0.3069 -3.0079
   64SAPC  C317 5258   0.124   3.151   8.051  0.6562  0.1889  0.3141
   64SAPC  H17X 5259   0.058   3.169   8.139 -0.2543 -2.7893  0.3466
   64SAPC  H17Y 5260   0.173   3.247   8.023  0.5667  0.2667  0.4191
   64SAPC  C318 5261   0.230   3.071   8.112 -0.0378  0.4106 -0.8112
   64SAPC  H18X 5262   0.313   3.040   8.044  0.9150  0.4674  0.2813
   64SAPC  H18Y 5263   0.184   2.985   8.165  2.0511 -2.2752 -3.0611
   64SAPC  H18Z 5264   0.278   3.133   8.191 -0.9091 -0.0504  0.1008
   65SAPC     N 5265   6.369   5.704   5.881 -0.2665  0.0862 -0.1317
   65SAPC   C12 5266   6.383   5.714   6.034  0.5446  1.1008 -0.0121
   65SAPC  H12A 5267   6.473   5.665   6.067  1.4650  3.3268  0.9564
   65SAPC  H12B 5268   6.304   5.654   6.078 -0.8325  1.7618 -1.5226
   65SAPC   C13 5269   6.313   5.575   5.849 -0.3573  0.1170 -0.1048
   65SAPC  H13A 5270   6.211   5.569   5.884 -0.0427  0.6357  0.9539
   65SAPC  H13B 5271   6.314   5.552   5.744 -3.4942 -1.6085  0.1178
   65SAPC  H13C 5272   6.372   5.489   5.876  0.1223 -0.0107 -1.5079
   65SAPC   C14 5273   6.270   5.807   5.825  0.1051 -0.1918  0.2064
   65SAPC  H14A 5274   6.266   5.808   5.717  1.1807 -1.0885  0.1423
   65SAPC  H14B 5275   6.173   5.777   5.862 -0.4619 -0.9218 -1.7533
   65SAPC  H14C 5276   6.292   5.906   5.861 -3.4225  1.2956 -1.2788
   65SAPC   C15 5277   6.503   5.724   5.817  0.3723 -0.0029  0.1116
   65SAPC  H15A 5278   6.575   5.650   5.846  0.5240  0.1296  0.0741
   65SAPC  H15B 5279   6.489   5.730   5.711 -1.8817 -1.9930  0.2245
   65SAPC  H15C 5280   6.526   5.825   5.850 -2.6947  0.1326  2.3628
   65SAPC   C11 5281   6.389   5.852   6.091  0.2829  0.8973 -0.4856
   65SAPC  H11A 5282   6.386   5.855   6.202  2.5999  3.9375 -0.3792
   65SAPC  H11B 5283   6.297   5.908   6.064 -0.2979 -0.1003 -0.6137
   65SAPC     P 5284   6.648   5.889   6.096 -0.4259  0.2215 -0.1502
   65SAPC   O13 5285   6.664   5.744   6.121 -0.0053  0.4569  0.2586
   65SAPC   O14 5286   6.742   5.959   6.003 -0.3138  0.0191 -0.2843
   65SAPC   O12 5287   6.506   5.914   6.049 -0.0667  0.0646  0.3342
   65SAPC   O11 5288   6.642   5.959   6.235  1.0001 -0.3262 -0.2976
   65SAPC    C1 5289   6.614   6.095   6.250 -0.4050 -0.1838 -0.7227
   65SAPC    HA 5290   6.694   6.162   6.213  2.5393 -1.5784  2.5547
   65SAPC    HB 5291   6.521   6.128   6.199 -0.2874 -0.6914 -1.2776
   65SAPC    C2 5292   6.591   6.124   6.395 -0.2540  0.0372  0.7056
   65SAPC    HS 5293   6.555   6.229   6.405 -0.2865  0.1648 -0.6676
   65SAPC   O21 5294   6.711   6.105   6.467 -0.1345 -0.4407  0.2116
   65SAPC   C21 5295   6.735   6.178   6.576  0.3030  0.0765  0.2570
   65SAPC   O22 5296   6.659   6.253   6.627  0.0623  0.0764  0.2427
   65SAPC   C22 5297   6.876   6.142   6.638  0.6652 -0.0929  0.2004
   65SAPC   H2R 5298   6.933   6.074   6.571 -0.2797  0.9228 -1.7250
   65SAPC   H2S 5299   6.925   6.241   6.647  2.3120 -0.8287 -0.3634
   65SAPC    C3 5300   6.476   6.041   6.460 -0.3119 -0.1213  0.5260
   65SAPC    HX 5301   6.505   5.934   6.466 -1.0030 -0.5756 -2.4228
   65SAPC    HY 5302   6.395   6.038   6.384  0.3788 -0.9185 -0.2027
   65SAPC   O31 5303   6.433   6.089   6.589  0.7449 -0.2663  0.3657
   65SAPC   C31 5304   6.360   6.197   6.597 -0.0901 -0.4065  0.4409
   65SAPC   O32 5305   6.318   6.268   6.510 -0.2604  0.0906 -0.1609
   65SAPC   C32 5306   6.334   6.216   6.754  0.1551 -0.4515  0.0442
   65SAPC   H2X 5307   6.433   6.210   6.803  0.8078 -0.6521 -1.2400
   65SAPC   H2Y 5308   6.267   6.130   6.778 -0.6684 -0.3899 -1.8290
   65SAPC   C23 5309   6.868   6.075   6.780  0.0003  0.7918 -0.5352
   65SAPC   H3R 5310   6.801   6.139   6.841 -0.1463 -0.0903  0.2638
   65SAPC   H3S 5311   6.969   6.078   6.828 -0.8274 -0.9284  1.4880
   65SAPC   C24 5312   6.817   5.927   6.782 -0.5289 -0.4061  0.3852
   65SAPC   H4R 5313   6.869   5.874   6.864 -0.0542  0.1299  0.4405
   65SAPC   H4S 5314   6.845   5.879   6.686 -1.2674 -0.1534  0.0264
   65SAPC   C25 5315   6.668   5.924   6.786  0.9321 -0.4630  0.6002
   65SAPC   H5R 5316   6.616   5.917   6.689 -0.4984  2.7720  1.0161
   65SAPC   C26 5317   6.583   5.933   6.886 -0.2140 -0.2782 -0.3248
   65SAPC   H6R 5318   6.477   5.940   6.859 -0.1906  1.8650  0.0354
   65SAPC   C27 5319   6.620   5.948   7.031 -0.1397 -0.0497  0.0045
   65SAPC   H7R 5320   6.720   5.902   7.044 -0.0517 -0.0047 -0.4909
   65SAPC   H7S 5321   6.554   5.880   7.089 -0.7412 -0.8404 -1.5296
   65SAPC   C28 5322   6.607   6.086   7.083  0.0550  0.8315 -0.2319
   65SAPC   H8R 5323   6.531   6.149   7.035  0.9506  0.0592 -2.8292
   65SAPC   C29 5324   6.682   6.136   7.183  0.2201  0.4641 -0.1159
   65SAPC   H9R 5325   6.667   6.240   7.215 -0.9573  0.3105 -0.1396
   65SAPC  C210 5326   6.792   6.058   7.256  0.1081  0.3091  0.0735
   65SAPC  H10R 5327   6.757   5.954   7.272 -1.5041  0.9847  1.3498
   65SAPC  H10S 5328   6.805   6.108   7.354 -1.6015  2.9241 -0.9114
   65SAPC  C211 5329   6.920   6.049   7.185  0.3283  0.4313 -0.3961
   65SAPC  H11R 5330   6.926   5.960   7.120 -0.7697  0.1069 -0.0738
   65SAPC  C212 5331   7.024   6.127   7.196  0.1341  0.2048  0.0021
   65SAPC  H12R 5332   7.110   6.119   7.128 -0.6687  1.6040 -1.2456
   65SAPC  C213 5333   7.048   6.248   7.277 -0.4782  0.6597 -0.4450
   65SAPC  H13R 5334   6.964   6.256   7.350 -0.8867  0.4900 -0.8953
   65SAPC  H13S 5335   7.049   6.340   7.215  1.4906  0.7073 -0.3986
   65SAPC  C214 5336   7.178   6.250   7.357  0.0224 -0.0800  0.6745
   65SAPC  H14R 5337   7.231   6.154   7.371 -0.2915 -0.2306  0.8220
   65SAPC  C215 5338   7.237   6.357   7.415  0.5413  0.1646 -0.3071
   65SAPC  H15R 5339   7.335   6.341   7.463  0.2332 -0.2801  0.1894
   65SAPC  C216 5340   7.186   6.497   7.414  0.3111 -0.2877  0.6382
   65SAPC  H16R 5341   7.098   6.505   7.347 -1.5444  0.3608  3.0109
   65SAPC  H16S 5342   7.257   6.572   7.372  0.2513 -0.7655 -0.3274
   65SAPC  C217 5343   7.156   6.552   7.559  0.0163 -0.5372 -0.0375
   65SAPC  H17R 5344   7.157   6.662   7.543  0.0752 -0.6276 -0.6896
   65SAPC  H17S 5345   7.228   6.513   7.634 -1.2113 -0.0054  1.4909
   65SAPC  C218 5346   7.020   6.503   7.606  0.1407  0.0937 -0.9631
   65SAPC  H18R 5347   7.013   6.493   7.717  3.8040 -1.1500 -0.6840
   65SAPC  H18S 5348   7.003   6.395   7.584  0.5884 -0.1517 -0.1717
   65SAPC  C219 5349   6.899   6.583   7.568 -0.0700  0.2537  0.5867
   65SAPC  H19R 5350   6.906   6.594   7.458 -0.4313 -2.4979  0.2031
   65SAPC  H19S 5351   6.899   6.681   7.620  2.1881  0.8431 -0.4475
   65SAPC  C220 5352   6.770   6.522   7.597 -0.6818  0.2554  0.0993
   65SAPC  H20R 5353   6.689   6.578   7.545 -0.9763  0.0671  0.3482
   65SAPC  H20S 5354   6.768   6.500   7.705 -0.0704 -2.5418 -0.3840
   65SAPC  H20T 5355   6.775   6.426   7.541  1.7233  0.4986 -0.1933
   65SAPC   C33 5356   6.256   6.338   6.787 -0.1841  0.1961 -0.0543
   65SAPC   H3X 5357   6.183   6.358   6.705  1.2950  0.5372 -1.3278
   65SAPC   H3Y 5358   6.323   6.426   6.782 -0.8078  0.6753 -0.1396
   65SAPC   C34 5359   6.193   6.335   6.923  0.9024  0.1727  0.2540
   65SAPC   H4X 5360   6.275   6.317   6.996  0.2717  0.5401  1.0646
   65SAPC   H4Y 5361   6.133   6.242   6.925  0.7462  0.0483 -3.2017
   65SAPC   C35 5362   6.110   6.452   6.965  0.2027 -0.0215 -0.9402
   65SAPC   H5X 5363   6.023   6.459   6.896 -0.8185 -2.6343 -0.0477
   65SAPC   H5Y 5364   6.171   6.544   6.959  0.1412  0.0530 -0.4468
   65SAPC   C36 5365   6.047   6.443   7.106  0.4045  0.7333 -0.4152
   65SAPC   H6X 5366   6.130   6.441   7.179 -0.9913  0.2270  1.2394
   65SAPC   H6Y 5367   5.990   6.348   7.116 -1.1156  1.6933  0.5189
   65SAPC   C37 5368   5.953   6.556   7.143  0.6867 -0.4370 -0.7015
   65SAPC   H7X 5369   5.863   6.555   7.078  1.3604 -0.0415 -1.6679
   65SAPC   H7Y 5370   6.014   6.648   7.131 -1.2182  1.0550  0.4330
   65SAPC   C38 5371   5.923   6.566   7.299 -0.0984 -0.0181  0.8842
   65SAPC   H8X 5372   5.860   6.653   7.326 -0.0874  0.0540  0.6806
   65SAPC   H8Y 5373   6.017   6.574   7.357  1.0074  0.6915 -0.9481
   65SAPC   C39 5374   5.846   6.438   7.338  0.2379  0.7012  0.2609
   65SAPC   H9X 5375   5.909   6.348   7.319 -0.4555  0.1180  0.6536
   65SAPC   H9Y 5376   5.748   6.432   7.284  1.3501  1.0174 -1.9163
   65SAPC  C310 5377   5.817   6.451   7.488  0.7414 -0.8346  0.3568
   65SAPC  H10X 5378   5.759   6.545   7.504  3.3542  0.8263  0.6633
   65SAPC  H10Y 5379   5.920   6.453   7.530  1.3297 -1.0763 -1.0138
   65SAPC  C311 5380   5.735   6.335   7.538  0.4946  0.6575 -0.3725
   65SAPC  H11X 5381   5.769   6.246   7.482  2.0153  0.1747  1.2460
   65SAPC  H11Y 5382   5.628   6.340   7.507  0.3760  1.0687  0.0722
   65SAPC  C312 5383   5.743   6.315   7.693 -0.0841  0.3666  0.3029
   65SAPC  H12X 5384   5.676   6.392   7.738  0.7314  2.1346 -1.3764
   65SAPC  H12Y 5385   5.843   6.337   7.735  0.3539 -2.6171  1.0557
   65SAPC  C313 5386   5.689   6.183   7.738 -0.7390  0.0453  0.3866
   65SAPC  H13X 5387   5.764   6.106   7.710  0.8569  1.7265 -0.1396
   65SAPC  H13Y 5388   5.590   6.165   7.691 -1.2390  0.4596  1.2671
   65SAPC  C314 5389   5.664   6.183   7.888  0.6329 -0.1353 -0.0919
   65SAPC  H14X 5390   5.595   6.267   7.911 -3.0834 -1.9485 -3.4059
   65SAPC  H14Y 5391   5.751   6.199   7.955  0.3320  1.5092 -0.0363
   65SAPC  C315 5392   5.594   6.057   7.938 -0.0612  0.3723 -0.1677
   65SAPC  H15X 5393   5.664   5.974   7.915  1.0973  1.4323 -0.5709
   65SAPC  H15Y 5394   5.508   6.041   7.869  0.4307  0.9947 -0.9443
   65SAPC  C316 5395   5.541   6.059   8.081 -0.3523 -0.3782 -0.1363
   65SAPC  H16X 5396   5.474   6.147   8.083  0.2252  0.0760 -0.3973
   65SAPC  H16Y 5397   5.626   6.072   8.152 -0.4776 -1.5744  0.2483
   65SAPC  C317 5398   5.454   5.932   8.114  0.1152 -0.0094 -0.5368
   65SAPC  H17X 5399   5.527   5.849   8.116 -0.3109 -0.3732  1.3861
   65SAPC  H17Y 5400   5.377   5.913   8.035 -0.7099  0.6009  0.1008
   65SAPC  C318 5401   5.368   5.936   8.249  0.1688  0.4845 -0.2325
   65SAPC  H18X 5402   5.308   6.029   8.258 -1.1285 -0.3199 -0.1362
   65SAPC  H18Y 5403   5.422   5.913   8.343 -0.5350 -0.8666 -0.1274
   65SAPC  H18Z 5404   5.283   5.864   8.239  0.7652 -0.7091  2.4371
   66SAPC     N 5405   4.155   5.249   5.790 -0.1568  0.5951  0.0331
   66SAPC   C12 5406   4.182   5.233   5.939 -0.1102 -0.0013 -0.4398
   66SAPC  H12A 5407   4.123   5.156   5.987 -1.9522 -1.2212 -4.2392
   66SAPC  H12B 5408   4.168   5.326   5.992 -2.8065 -0.7117  0.2408
   66SAPC   C13 5409   4.022   5.312   5.765 -0.0768 -0.2052  0.0436
   66SAPC  H13A 5410   3.995   5.395   5.829  0.9474  1.6852 -1.8329
   66SAPC  H13B 5411   4.021   5.360   5.668 -0.1600 -2.2492 -1.0075
   66SAPC  H13C 5412   3.940   5.243   5.764  1.5980 -2.3274  0.8466
   66SAPC   C14 5413   4.261   5.345   5.734  0.1244  0.4943  0.2430
   66SAPC  H14A 5414   4.272   5.438   5.789 -0.1579  1.4337 -1.2212
   66SAPC  H14B 5415   4.363   5.315   5.753  0.3893  0.6962 -0.7830
   66SAPC  H14C 5416   4.252   5.362   5.628  1.7045 -0.2923 -0.0380
   66SAPC   C15 5417   4.159   5.120   5.715 -0.3374  0.3592 -0.3000
   66SAPC  H15A 5418   4.123   5.130   5.614 -0.1684  1.4384 -0.2646
   66SAPC  H15B 5419   4.262   5.086   5.711 -0.9578 -1.7194  0.1211
   66SAPC  H15C 5420   4.107   5.041   5.767 -1.1085  2.5491  2.5319
   66SAPC   C11 5421   4.328   5.193   5.987  0.7122  0.2462 -0.0405
   66SAPC  H11A 5422   4.354   5.098   5.936  2.9877  0.3121  0.8901
   66SAPC  H11B 5423   4.321   5.159   6.092 -1.4700  1.6738  0.3455
   66SAPC     P 5424   4.428   5.427   6.046  0.0887 -0.2379  0.1537
   66SAPC   O13 5425   4.551   5.511   6.018  0.0465 -0.1566  0.2880
   66SAPC   O14 5426   4.298   5.493   6.019  0.4416 -0.0825  0.0931
   66SAPC   O12 5427   4.438   5.289   5.969  0.0223 -0.7236  0.1987
   66SAPC   O11 5428   4.437   5.389   6.197  0.1544  0.0680 -0.1683
   66SAPC    C1 5429   4.319   5.387   6.283  0.0507  0.8741 -0.2514
   66SAPC    HA 5430   4.245   5.469   6.271 -4.4387 -2.7608 -0.3798
   66SAPC    HB 5431   4.269   5.288   6.278  1.8207 -0.2956  2.7067
   66SAPC    C2 5432   4.367   5.405   6.432  0.1503 -0.4502 -0.4960
   66SAPC    HS 5433   4.425   5.499   6.440 -0.2119 -0.3241  0.8996
   66SAPC   O21 5434   4.442   5.287   6.474 -0.7601 -0.4992 -0.3292
   66SAPC   C21 5435   4.572   5.295   6.450 -0.0257  0.0611  0.1304
   66SAPC   O22 5436   4.626   5.393   6.401 -0.0660 -0.4848 -1.0653
   66SAPC   C22 5437   4.652   5.174   6.499  0.3635 -0.1523  0.3348
   66SAPC   H2R 5438   4.575   5.101   6.531  1.3042 -1.2069  0.2688
   66SAPC   H2S 5439   4.714   5.131   6.417  0.9174  0.4852  0.4132
   66SAPC    C3 5440   4.244   5.434   6.520  0.4313  0.4520 -0.3045
   66SAPC    HX 5441   4.179   5.347   6.543  0.5400  0.7782  1.3570
   66SAPC    HY 5442   4.185   5.503   6.455 -2.0040 -2.6310 -1.6167
   66SAPC   O31 5443   4.278   5.487   6.651  0.1905  0.0818  0.4027
   66SAPC   C31 5444   4.248   5.618   6.671 -0.0915  0.2820 -0.5782
   66SAPC   O32 5445   4.199   5.695   6.592 -0.1261  0.1286 -0.2729
   66SAPC   C32 5446   4.291   5.647   6.820 -0.3832  0.8191  1.0882
   66SAPC   H2X 5447   4.360   5.733   6.807  0.3728 -0.1335 -2.5314
   66SAPC   H2Y 5448   4.351   5.561   6.856 -2.7678 -0.2355  2.7863
   66SAPC   C23 5449   4.741   5.197   6.625  0.4524 -0.6418 -0.0061
   66SAPC   H3R 5450   4.790   5.297   6.616 -0.1345 -0.5070 -2.2567
   66SAPC   H3S 5451   4.814   5.113   6.633 -0.2135 -1.0691  2.4720
   66SAPC   C24 5452   4.658   5.200   6.753 -0.0129  0.0922 -0.4487
   66SAPC   H4R 5453   4.717   5.186   6.846 -1.5645  0.8273  0.6996
   66SAPC   H4S 5454   4.575   5.128   6.770 -0.2115  0.5972  0.9015
   66SAPC   C25 5455   4.595   5.344   6.761  0.0109 -0.0732  0.8528
   66SAPC   H5R 5456   4.490   5.347   6.728 -0.3096  1.2540  1.8810
   66SAPC   C26 5457   4.637   5.460   6.814 -1.0626 -0.0910 -0.4286
   66SAPC   H6R 5458   4.591   5.552   6.776  0.5739  1.3380  0.9531
   66SAPC   C27 5459   4.784   5.489   6.863 -0.2914  0.5291  0.5448
   66SAPC   H7R 5460   4.844   5.405   6.821 -1.5743  0.7676 -1.9967
   66SAPC   H7S 5461   4.790   5.479   6.973 -0.6795 -0.3178  0.5011
   66SAPC   C28 5462   4.843   5.615   6.806  0.1582  0.7485 -0.2212
   66SAPC   H8R 5463   4.787   5.679   6.736  2.1587  2.2387 -0.5279
   66SAPC   C29 5464   4.959   5.667   6.850  0.0035 -0.3955  0.5003
   66SAPC   H9R 5465   4.989   5.760   6.801  2.1011 -1.2314  0.0975
   66SAPC  C210 5466   5.048   5.607   6.952 -0.1385  0.6468  0.5075
   66SAPC  H10R 5467   5.145   5.607   6.898 -0.8460  2.2153 -0.8562
   66SAPC  H10S 5468   5.038   5.500   6.981  3.4250  0.3954  1.2334
   66SAPC  C211 5469   5.053   5.678   7.087 -0.2168 -0.8625  0.3258
   66SAPC  H11R 5470   4.961   5.673   7.147  0.3408 -0.7434  1.2145
   66SAPC  C212 5471   5.157   5.756   7.122  0.4291 -0.1363 -0.2176
   66SAPC  H12R 5472   5.147   5.805   7.220  0.2807  0.9317 -0.7502
   66SAPC  C213 5473   5.286   5.786   7.055  0.1543 -0.3664  0.1409
   66SAPC  H13R 5474   5.345   5.862   7.111 -2.4643  2.1827 -0.3078
   66SAPC  H13S 5475   5.262   5.851   6.968 -0.8168 -0.2694  0.4711
   66SAPC  C214 5476   5.375   5.672   7.012 -0.2737  0.1294 -0.3904
   66SAPC  H14R 5477   5.338   5.570   7.027  2.4511 -0.7672  0.9615
   66SAPC  C215 5478   5.489   5.677   6.941 -0.6115  0.3050 -0.1895
   66SAPC  H15R 5479   5.528   5.585   6.893 -1.3076  0.2281 -0.6276
   66SAPC  C216 5480   5.551   5.801   6.883  0.3273  0.1098  1.0929
   66SAPC  H16R 5481   5.650   5.817   6.930  2.0154 -0.6188 -1.9313
   66SAPC  H16S 5482   5.491   5.891   6.911  1.9273  1.6506 -0.1791
   66SAPC  C217 5483   5.564   5.805   6.733  0.3974 -0.2553 -0.3764
   66SAPC  H17R 5484   5.643   5.733   6.701 -0.8829 -1.5459 -0.7023
   66SAPC  H17S 5485   5.589   5.909   6.704  1.8234 -0.4205  0.1686
   66SAPC  C218 5486   5.439   5.777   6.652  0.2742 -0.0335 -0.8719
   66SAPC  H18R 5487   5.362   5.853   6.679 -0.5935 -0.7162 -1.3982
   66SAPC  H18S 5488   5.394   5.676   6.659 -1.8909  0.9768  1.1235
   66SAPC  C219 5489   5.451   5.795   6.503 -0.4245  0.0244 -0.0618
   66SAPC  H19R 5490   5.492   5.697   6.471 -3.8632 -1.4042 -0.5132
   66SAPC  H19S 5491   5.516   5.882   6.478 -0.2568 -0.2440 -0.5495
   66SAPC  C220 5492   5.316   5.808   6.431 -0.2097 -0.0003  0.1712
   66SAPC  H20R 5493   5.261   5.712   6.424 -0.0830 -0.0746  0.1994
   66SAPC  H20S 5494   5.319   5.855   6.330 -0.7923 -2.0409 -0.8460
   66SAPC  H20T 5495   5.242   5.861   6.496  0.3937  0.3163  0.6083
   66SAPC   C33 5496   4.167   5.676   6.914 -0.0588 -0.0067 -0.1180
   66SAPC   H3X 5497   4.110   5.590   6.956 -2.5856  1.4054 -0.4409
   66SAPC   H3Y 5498   4.090   5.727   6.851 -1.1404 -1.5156 -0.0835
   66SAPC   C34 5499   4.201   5.753   7.038 -0.2245 -0.0149 -0.0169
   66SAPC   H4X 5500   4.110   5.791   7.089 -0.9663 -0.9756 -0.5759
   66SAPC   H4Y 5501   4.250   5.849   7.013  0.5019  0.5425  3.1572
   66SAPC   C35 5502   4.284   5.669   7.134  0.5770  0.2380  0.0873
   66SAPC   H5X 5503   4.378   5.636   7.086  1.2356  2.0855  0.0517
   66SAPC   H5Y 5504   4.217   5.581   7.145 -0.2009  0.5114 -1.9639
   66SAPC   C36 5505   4.293   5.747   7.262  0.6972  0.0575 -1.0284
   66SAPC   H6X 5506   4.187   5.744   7.296  0.2032 -0.7818 -2.5541
   66SAPC   H6Y 5507   4.302   5.857   7.251  1.5259  0.0113 -0.8882
   66SAPC   C37 5508   4.371   5.687   7.380  0.4365 -0.3829  0.9397
   66SAPC   H7X 5509   4.479   5.710   7.364 -0.0616  1.4804 -0.0039
   66SAPC   H7Y 5510   4.351   5.578   7.376 -2.9616  0.1633 -3.0832
   66SAPC   C38 5511   4.324   5.746   7.504  0.6864  0.6818  0.2841
   66SAPC   H8X 5512   4.216   5.716   7.506  1.2656 -1.7560 -0.9435
   66SAPC   H8Y 5513   4.347   5.853   7.487  0.5670  0.5120 -1.0259
   66SAPC   C39 5514   4.389   5.697   7.635  0.1706 -1.0579 -0.4207
   66SAPC   H9X 5515   4.483   5.644   7.613  0.8162 -0.1091 -0.0385
   66SAPC   H9Y 5516   4.315   5.627   7.680  0.0768  0.1887  1.5119
   66SAPC  C310 5517   4.433   5.810   7.719  0.2673  0.1545 -0.5552
   66SAPC  H10X 5518   4.456   5.909   7.674 -1.5080  0.3167 -1.1869
   66SAPC  H10Y 5519   4.528   5.782   7.769  0.5098 -1.0458 -1.6134
   66SAPC  C311 5520   4.349   5.815   7.850 -0.1687  0.0871 -0.6619
   66SAPC  H11X 5521   4.347   5.705   7.871  4.9274 -0.3171 -1.1993
   66SAPC  H11Y 5522   4.245   5.847   7.827 -0.6479  0.2487  1.4991
   66SAPC  C312 5523   4.416   5.900   7.957 -0.1023 -0.5162 -0.8090
   66SAPC  H12X 5524   4.423   6.002   7.913 -0.0362  0.3031  1.0001
   66SAPC  H12Y 5525   4.510   5.845   7.981 -0.1819  0.4605  2.1164
   66SAPC  C313 5526   4.343   5.902   8.093  1.1570  0.6255 -0.3322
   66SAPC  H13X 5527   4.338   5.795   8.123  0.6617  0.3301 -1.4562
   66SAPC  H13Y 5528   4.239   5.939   8.087  0.8102 -0.5206 -2.1083
   66SAPC  C314 5529   4.417   5.970   8.202  0.5692 -0.2221  0.6897
   66SAPC  H14X 5530   4.524   5.941   8.197  1.0666  1.3585  1.3757
   66SAPC  H14Y 5531   4.367   5.932   8.293  0.3142 -2.9615 -0.4975
   66SAPC  C315 5532   4.393   6.121   8.200 -0.1112  0.0260 -0.0841
   66SAPC  H15X 5533   4.285   6.144   8.212 -0.2253  0.5563 -1.8876
   66SAPC  H15Y 5534   4.436   6.162   8.107  0.7487 -0.3443  0.1395
   66SAPC  C316 5535   4.462   6.192   8.322 -0.5339 -0.4242 -0.8210
   66SAPC  H16X 5536   4.432   6.135   8.412 -0.2371 -1.0977 -1.1438
   66SAPC  H16Y 5537   4.434   6.299   8.335  0.3757 -0.1656 -0.8976
   66SAPC  C317 5538   4.618   6.186   8.309 -0.1567 -0.3791  0.3827
   66SAPC  H17X 5539   4.656   6.239   8.220 -1.8905 -1.1162 -0.8489
   66SAPC  H17Y 5540   4.667   6.087   8.301  0.3451 -0.0774 -0.2952
   66SAPC  C318 5541   4.680   6.256   8.436 -0.3029 -0.6007  0.7772
   66SAPC  H18X 5542   4.683   6.190   8.525  1.7191  0.3849  1.4884
   66SAPC  H18Y 5543   4.605   6.335   8.459 -0.4619  0.4146 -2.7256
   66SAPC  H18Z 5544   4.780   6.303   8.427 -1.0984  2.1599  4.0243
   67SAPC     N 5545   4.021   0.244   5.723  0.0934  0.1886 -1.0753
   67SAPC   C12 5546   3.961   0.217   5.862  0.3753 -0.0799  0.5956
   67SAPC  H12A 5547   3.957   0.110   5.876  1.1390 -0.7797 -3.3884
   67SAPC  H12B 5548   3.857   0.244   5.855  0.1433 -0.9439  0.5945
   67SAPC   C13 5549   3.931   0.207   5.612 -0.2884  0.6022 -0.5554
   67SAPC  H13A 5550   3.888   0.109   5.627  1.3371 -0.1524 -0.5890
   67SAPC  H13B 5551   3.852   0.279   5.597 -0.6540  0.4111  0.4124
   67SAPC  H13C 5552   3.980   0.191   5.517  0.4961 -1.0321  0.0774
   67SAPC   C14 5553   4.046   0.390   5.712 -0.4901  0.0242 -0.3514
   67SAPC  H14A 5554   3.956   0.446   5.731 -1.3229 -1.4525  0.2623
   67SAPC  H14B 5555   4.124   0.421   5.780 -1.2951  1.0115  0.1400
   67SAPC  H14C 5556   4.086   0.415   5.615  0.7216 -1.3416 -0.2425
   67SAPC   C15 5557   4.148   0.167   5.714 -0.3849  0.0854  0.0018
   67SAPC  H15A 5558   4.124   0.064   5.694 -0.7103 -0.2775  2.0266
   67SAPC  H15B 5559   4.212   0.208   5.637  0.4180 -0.4354  0.3830
   67SAPC  H15C 5560   4.194   0.170   5.812 -1.0240  1.8736  0.2869
   67SAPC   C11 5561   4.019   0.289   5.985 -0.4730 -0.4657  0.3306
   67SAPC  H11A 5562   3.964   0.254   6.075  0.7536  0.7688  1.6215
   67SAPC  H11B 5563   4.007   0.399   5.982 -0.9360 -0.4194  2.4091
   67SAPC     P 5564   4.244   0.241   6.128 -0.0666 -0.2647  0.0091
   67SAPC   O13 5565   4.377   0.193   6.093  0.6211  0.2770  0.0512
   67SAPC   O14 5566   4.231   0.373   6.191  0.5489 -0.4200 -0.1715
   67SAPC   O12 5567   4.150   0.245   6.001  0.3212  0.2665  0.6246
   67SAPC   O11 5568   4.182   0.123   6.215  0.2210 -0.3373 -0.3807
   67SAPC    C1 5569   4.127   0.155   6.345 -0.0860 -0.2569 -0.5366
   67SAPC    HA 5570   4.071   0.250   6.354 -1.3774 -1.0937  0.7138
   67SAPC    HB 5571   4.050   0.078   6.366 -0.0825 -0.2563 -0.5227
   67SAPC    C2 5572   4.245   0.146   6.447  0.1894 -0.2732 -0.5347
   67SAPC    HS 5573   4.321   0.224   6.426  0.3444  0.1832  1.5046
   67SAPC   O21 5574   4.297   0.015   6.456 -0.1370  0.0398  0.5013
   67SAPC   C21 5575   4.432   0.003   6.437  0.0013 -0.3932 -1.0614
   67SAPC   O22 5576   4.507   0.096   6.412  0.5394  0.3606  0.2811
   67SAPC   C22 5577   4.477  -0.141   6.458  0.8845  0.3950 -0.4655
   67SAPC   H2R 5578   4.417  -0.181   6.542 -1.7103  1.0429 -1.9120
   67SAPC   H2S 5579   4.431  -0.191   6.371 -0.5348  1.3894 -0.3199
   67SAPC    C3 5580   4.183   0.181   6.582  0.1130 -0.1754  0.0561
   67SAPC    HX 5581   4.081   0.137   6.592  0.3169 -0.5649  0.4307
   67SAPC    HY 5582   4.173   0.291   6.588 -0.5141 -0.2463  0.4244
   67SAPC   O31 5583   4.256   0.132   6.683 -0.2323  0.1390  0.1690
   67SAPC   C31 5584   4.366   0.186   6.735  0.1145 -0.3151  0.6809
   67SAPC   O32 5585   4.413   0.291   6.687 -0.5820  0.0522 -0.1067
   67SAPC   C32 5586   4.409   0.108   6.856 -0.2587 -0.1008  0.0307
   67SAPC   H2X 5587   4.347   0.117   6.948  3.1738 -1.3617  2.7283
   67SAPC   H2Y 5588   4.511   0.143   6.883 -0.8413  0.1263  2.1579
   67SAPC   C23 5589   4.630  -0.160   6.460 -0.3888  0.0777 -0.2566
   67SAPC   H3R 5590   4.668  -0.095   6.543 -0.4951  1.4588 -1.2660
   67SAPC   H3S 5591   4.666  -0.127   6.360  1.1066  1.1618  0.5886
   67SAPC   C24 5592   4.681  -0.304   6.483 -0.4719  0.1132  0.0212
   67SAPC   H4R 5593   4.624  -0.374   6.419 -0.1296 -0.4325  0.3072
   67SAPC   H4S 5594   4.653  -0.344   6.583  1.5078 -2.7101 -0.4387
   67SAPC   C25 5595   4.830  -0.320   6.449  0.9079  0.1206  0.3952
   67SAPC   H5R 5596   4.848  -0.312   6.340 -0.3202 -0.1299  0.1591
   67SAPC   C26 5597   4.930  -0.305   6.533 -0.0133 -0.5053  0.2389
   67SAPC   H6R 5598   5.031  -0.311   6.488 -0.7487  3.2765 -2.4775
   67SAPC   C27 5599   4.915  -0.282   6.685 -0.9443 -0.1515 -0.0506
   67SAPC   H7R 5600   4.936  -0.376   6.740  1.5026  0.9024  1.0033
   67SAPC   H7S 5601   4.808  -0.259   6.706 -1.0330 -1.6444  1.3177
   67SAPC   C28 5602   5.017  -0.178   6.724 -0.3331 -0.4411 -0.5072
   67SAPC   H8R 5603   5.123  -0.209   6.719 -0.2299 -0.7354  2.0069
   67SAPC   C29 5604   4.996  -0.058   6.783 -0.2138  0.2686  1.1667
   67SAPC   H9R 5605   5.084   0.008   6.794  0.9080 -1.1187  0.7488
   67SAPC  C210 5606   4.865   0.018   6.818 -0.5234  0.2763  0.7838
   67SAPC  H10R 5607   4.842   0.012   6.926  1.0215 -0.6470  1.0911
   67SAPC  H10S 5608   4.781  -0.043   6.776 -0.4419  0.3455  0.5188
   67SAPC  C211 5609   4.848   0.162   6.775  0.2269  0.0733  0.0117
   67SAPC  H11R 5610   4.877   0.173   6.669 -3.6360  1.2922 -1.0900
   67SAPC  C212 5611   4.796   0.268   6.838  0.1594 -0.2146 -0.0077
   67SAPC  H12R 5612   4.803   0.367   6.791 -0.2394 -0.3471 -0.3535
   67SAPC  C213 5613   4.735   0.279   6.976  0.1147  0.6626 -0.3690
   67SAPC  H13R 5614   4.808   0.333   7.041 -0.5424  2.1237 -0.7878
   67SAPC  H13S 5615   4.719   0.178   7.019 -0.3458  1.7599  2.2443
   67SAPC  C214 5616   4.616   0.366   6.981 -0.3986  0.5396  0.5064
   67SAPC  H14R 5617   4.587   0.401   6.881  2.1502  0.9045 -0.1597
   67SAPC  C215 5618   4.548   0.383   7.094  0.0693 -0.4779 -0.1305
   67SAPC  H15R 5619   4.452   0.436   7.094 -0.4850 -1.4667 -0.3793
   67SAPC  C216 5620   4.571   0.323   7.229 -0.0394 -0.0680  0.9136
   67SAPC  H16R 5621   4.575   0.401   7.308  0.4416 -0.4324  1.2556
   67SAPC  H16S 5622   4.665   0.264   7.225  0.0161  0.0831 -0.0654
   67SAPC  C217 5623   4.448   0.243   7.278  0.3892  0.2812  1.0022
   67SAPC  H17R 5624   4.473   0.204   7.379  0.6593 -0.5960  0.6084
   67SAPC  H17S 5625   4.430   0.155   7.213  0.5209  1.6700 -0.9997
   67SAPC  C218 5626   4.315   0.311   7.287  0.2292  0.1268  0.4965
   67SAPC  H18R 5627   4.290   0.344   7.183 -1.5625 -2.7687 -0.0827
   67SAPC  H18S 5628   4.320   0.401   7.353 -2.0344  1.7196 -1.3276
   67SAPC  C219 5629   4.200   0.218   7.324 -0.7409 -0.0015  0.3989
   67SAPC  H19R 5630   4.210   0.129   7.258  0.4230  1.1385 -1.0221
   67SAPC  H19S 5631   4.100   0.263   7.308  0.1473  1.5742 -0.9955
   67SAPC  C220 5632   4.195   0.187   7.475 -0.2440 -0.1488 -0.1209
   67SAPC  H20R 5633   4.094   0.150   7.502  0.4893 -2.5876 -0.4564
   67SAPC  H20S 5634   4.218   0.276   7.537  1.1063 -0.1329 -0.6137
   67SAPC  H20T 5635   4.266   0.105   7.497 -0.1052 -0.4640 -1.6008
   67SAPC   C33 5636   4.414  -0.043   6.822  0.5108 -0.7436  0.0091
   67SAPC   H3X 5637   4.436  -0.065   6.716  0.8523  0.8601 -0.2814
   67SAPC   H3Y 5638   4.311  -0.081   6.838  0.2509 -0.4003 -0.8046
   67SAPC   C34 5639   4.504  -0.124   6.918 -0.1091 -0.1140 -0.5889
   67SAPC   H4X 5640   4.460  -0.123   7.020  1.8266  0.8421  0.2865
   67SAPC   H4Y 5641   4.607  -0.083   6.913 -0.1050 -0.0870 -0.3062
   67SAPC   C35 5642   4.499  -0.275   6.885  0.6842 -0.3308 -0.3909
   67SAPC   H5X 5643   4.514  -0.283   6.776 -0.8655 -0.4994 -0.6084
   67SAPC   H5Y 5644   4.395  -0.312   6.902  0.9047 -1.4811 -1.3894
   67SAPC   C36 5645   4.591  -0.362   6.981  0.5778 -0.0859  0.1632
   67SAPC   H6X 5646   4.698  -0.332   6.978  0.4270  0.3821 -0.7754
   67SAPC   H6Y 5647   4.586  -0.468   6.948  0.0660 -0.3246  0.9671
   67SAPC   C37 5648   4.545  -0.361   7.123 -0.4685  0.1087  0.0548
   67SAPC   H7X 5649   4.438  -0.332   7.128 -0.6892 -0.4147 -1.2363
   67SAPC   H7Y 5650   4.604  -0.288   7.183  0.7698 -0.8024 -0.0181
   67SAPC   C38 5651   4.557  -0.497   7.196 -0.4138  0.5958 -0.8507
   67SAPC   H8X 5652   4.663  -0.530   7.203 -0.5287  0.3752 -0.1148
   67SAPC   H8Y 5653   4.495  -0.567   7.136  0.1783  0.0277 -0.8087
   67SAPC   C39 5654   4.510  -0.488   7.343 -0.1954  0.2782  0.0632
   67SAPC   H9X 5655   4.408  -0.530   7.348  0.1361 -0.3975  3.5150
   67SAPC   H9Y 5656   4.504  -0.379   7.367  0.0062  0.4400 -0.5791
   67SAPC  C310 5657   4.602  -0.549   7.445  0.1882 -0.0637  0.3078
   67SAPC  H10X 5658   4.711  -0.535   7.428  0.4189 -1.3692  0.6105
   67SAPC  H10Y 5659   4.576  -0.657   7.433 -1.5131  0.4677 -1.3114
   67SAPC  C311 5660   4.572  -0.521   7.591  0.2057 -0.1115 -0.0908
   67SAPC  H11X 5661   4.468  -0.551   7.619 -0.2230 -0.4735 -1.9571
   67SAPC  H11Y 5662   4.575  -0.412   7.614  3.1321 -0.4804  1.7406
   67SAPC  C312 5663   4.677  -0.577   7.691 -0.3415  0.2703  0.7062
   67SAPC  H12X 5664   4.770  -0.516   7.689 -1.1702  1.5682 -0.6787
   67SAPC  H12Y 5665   4.692  -0.683   7.662  2.1452  0.7136  0.1614
   67SAPC  C313 5666   4.616  -0.581   7.830  0.9939 -0.0848  0.6252
   67SAPC  H13X 5667   4.522  -0.640   7.826  0.3584  0.9707 -1.2203
   67SAPC  H13Y 5668   4.589  -0.478   7.863  4.0456  0.3870  1.9820
   67SAPC  C314 5669   4.703  -0.647   7.931  0.1402 -0.1772  0.0883
   67SAPC  H14X 5670   4.736  -0.749   7.903  2.4575  0.3807  0.5627
   67SAPC  H14Y 5671   4.638  -0.668   8.018 -2.2753  1.2931 -1.2691
   67SAPC  C315 5672   4.828  -0.573   7.973  0.1411 -0.4911 -0.7115
   67SAPC  H15X 5673   4.789  -0.482   8.023 -0.4791 -0.9837 -0.2779
   67SAPC  H15Y 5674   4.894  -0.534   7.893 -0.3796  0.6992 -0.5789
   67SAPC  C316 5675   4.901  -0.669   8.076  0.0444 -0.4836  0.8089
   67SAPC  H16X 5676   4.924  -0.761   8.017  1.7477  0.7818 -0.6124
   67SAPC  H16Y 5677   4.833  -0.709   8.154  0.9016 -1.3353  1.1401
   67SAPC  C317 5678   5.031  -0.622   8.135  0.0640  0.1270  0.3650
   67SAPC  H17X 5679   5.064  -0.546   8.060  1.7653 -2.1609 -1.3703
   67SAPC  H17Y 5680   5.102  -0.706   8.118 -1.8135 -1.1749 -1.7079
   67SAPC  C318 5681   5.026  -0.583   8.279  0.7069 -0.2872  0.3747
   67SAPC  H18X 5682   5.107  -0.510   8.303  0.5530 -0.1277  0.4105
   67SAPC  H18Y 5683   5.045  -0.656   8.360 -0.3382  1.6374  2.4819
   67SAPC  H18Z 5684   4.934  -0.524   8.301  1.1618  0.8219 -0.5645
   68SAPC     N 5685   3.799   6.350   6.097  0.3380 -0.1412 -0.1227
   68SAPC   C12 5686   3.662   6.372   6.047 -1.4557  0.4091 -0.1501
   68SAPC  H12A 5687   3.588   6.327   6.112 -0.1256 -2.2839 -0.3679
   68SAPC  H12B 5688   3.647   6.321   5.953  4.1848 -1.0281 -0.6146
   68SAPC   C13 5689   3.825   6.206   6.090  0.1174  0.3945 -0.5982
   68SAPC  H13A 5690   3.761   6.148   6.155 -0.1378 -0.0352 -1.2302
   68SAPC  H13B 5691   3.815   6.171   5.989  0.5127  1.6504 -1.1022
   68SAPC  H13C 5692   3.919   6.188   6.139 -0.6676  1.2045  1.3172
   68SAPC   C14 5693   3.886   6.434   6.013 -0.3126 -0.6890  0.4673
   68SAPC  H14A 5694   3.847   6.534   6.012  0.0077 -0.5627  0.2114
   68SAPC  H14B 5695   3.983   6.437   6.060 -0.7197 -1.2972  1.3635
   68SAPC  H14C 5696   3.891   6.394   5.912 -0.8291 -1.3992  0.7177
   68SAPC   C15 5697   3.817   6.386   6.238 -0.0149 -0.2251 -0.4572
   68SAPC  H15A 5698   3.800   6.491   6.252 -0.3669 -0.1027 -1.7508
   68SAPC  H15B 5699   3.743   6.337   6.299 -2.8178  3.6515 -0.4190
   68SAPC  H15C 5700   3.912   6.362   6.285 -1.4697  1.2179  3.7165
   68SAPC   C11 5701   3.604   6.520   6.037 -0.0467 -0.1732  0.2779
   68SAPC  H11A 5702   3.511   6.509   5.977 -0.8364  1.4874  1.1263
   68SAPC  H11B 5703   3.676   6.583   5.981 -0.9761 -0.9261 -1.8925
   68SAPC     P 5704   3.468   6.689   6.179  0.3328  0.3031 -0.5516
   68SAPC   O13 5705   3.474   6.786   6.068 -0.4388  0.0294  0.1959
   68SAPC   O14 5706   3.335   6.625   6.195  0.8222  0.1950  0.0918
   68SAPC   O12 5707   3.578   6.579   6.160 -0.3425  0.8597 -0.3416
   68SAPC   O11 5708   3.534   6.746   6.308  0.3205 -0.4518  0.3279
   68SAPC    C1 5709   3.457   6.757   6.433 -0.8838  0.0342  0.2502
   68SAPC    HA 5710   3.491   6.847   6.489 -0.0792  1.4422 -2.2981
   68SAPC    HB 5711   3.351   6.781   6.408 -0.9219 -1.2686 -0.9612
   68SAPC    C2 5712   3.476   6.643   6.530 -0.2898  0.1766 -0.0266
   68SAPC    HS 5713   3.429   6.552   6.486 -1.0798  0.8078 -0.5143
   68SAPC   O21 5714   3.433   6.683   6.660 -0.3270  0.0184  0.2464
   68SAPC   C21 5715   3.378   6.584   6.724  0.5838 -0.3607 -0.6657
   68SAPC   O22 5716   3.367   6.466   6.692  0.2372 -0.3373  0.1003
   68SAPC   C22 5717   3.309   6.646   6.853  0.4649  0.4370 -0.4363
   68SAPC   H2R 5718   3.387   6.690   6.919  1.3396  0.3242 -1.3761
   68SAPC   H2S 5719   3.236   6.720   6.814 -1.6986 -1.6562 -0.6243
   68SAPC    C3 5720   3.627   6.630   6.537  0.5714  0.3055 -0.6729
   68SAPC    HX 5721   3.676   6.726   6.560 -1.3161  1.6007 -1.7866
   68SAPC    HY 5722   3.657   6.579   6.442  0.4183 -1.4817  0.1935
   68SAPC   O31 5723   3.664   6.547   6.645  0.6934 -0.3867 -0.2231
   68SAPC   C31 5724   3.669   6.416   6.614 -0.5397  0.4681  0.0398
   68SAPC   O32 5725   3.672   6.362   6.507  0.7092  0.2580 -0.4059
   68SAPC   C32 5726   3.679   6.338   6.747  0.1833  0.4874 -0.3856
   68SAPC   H2X 5727   3.754   6.261   6.718 -0.1612  0.6181 -1.7233
   68SAPC   H2Y 5728   3.575   6.301   6.755  0.4158  0.2706  2.7860
   68SAPC   C23 5729   3.238   6.538   6.947  0.7358  0.0833 -0.0209
   68SAPC   H3R 5730   3.172   6.485   6.874 -1.5831  1.7784  0.7148
   68SAPC   H3S 5731   3.180   6.583   7.031  0.8924  0.0354  0.1119
   68SAPC   C24 5732   3.332   6.423   6.993 -0.0156 -0.6596  0.4484
   68SAPC   H4R 5733   3.416   6.474   7.045  0.8264 -0.9075 -0.6226
   68SAPC   H4S 5734   3.377   6.361   6.912  0.5851  1.8198 -1.2178
   68SAPC   C25 5735   3.251   6.325   7.080  0.0150  0.5401  0.0331
   68SAPC   H5R 5736   3.192   6.247   7.028 -0.7667  2.1680 -1.6546
   68SAPC   C26 5737   3.253   6.328   7.213  0.0519 -0.2443 -0.9583
   68SAPC   H6R 5738   3.196   6.254   7.272  1.0961 -0.6449 -0.4381
   68SAPC   C27 5739   3.328   6.417   7.303  0.0811 -0.9232 -0.7841
   68SAPC   H7R 5740   3.412   6.467   7.252  0.2519  0.3929  0.7040
   68SAPC   H7S 5741   3.374   6.364   7.389  1.2464 -0.0576 -0.8439
   68SAPC   C28 5742   3.231   6.530   7.345  0.0774 -0.7517 -0.4353
   68SAPC   H8R 5743   3.181   6.583   7.263 -1.0066 -1.3555 -0.1767
   68SAPC   C29 5744   3.191   6.564   7.469  0.2066  0.1458 -0.1056
   68SAPC   H9R 5745   3.123   6.650   7.479  2.1311  1.6602  0.9424
   68SAPC  C210 5746   3.237   6.505   7.603 -0.7657 -0.5552  0.3903
   68SAPC  H10R 5747   3.249   6.586   7.677 -0.2524 -0.0001 -0.2799
   68SAPC  H10S 5748   3.339   6.462   7.590 -0.6178 -1.1601  3.0526
   68SAPC  C211 5749   3.141   6.408   7.659  0.5053 -0.0293  0.0113
   68SAPC  H11R 5750   3.158   6.305   7.622 -1.6730 -0.7594  0.8795
   68SAPC  C212 5751   3.051   6.431   7.752  0.2161  0.3450  0.1827
   68SAPC  H12R 5752   2.989   6.343   7.775 -2.0414  1.4721 -1.2441
   68SAPC  C213 5753   3.010   6.557   7.826  0.9289  0.4890 -0.4568
   68SAPC  H13R 5754   2.906   6.552   7.864  0.6541 -0.8510 -1.3246
   68SAPC  H13S 5755   3.006   6.649   7.764 -1.4484  0.5888 -0.2393
   68SAPC  C214 5756   3.111   6.570   7.941 -0.1888  0.6854 -0.2222
   68SAPC  H14R 5757   3.198   6.638   7.941  1.7224 -1.5606  1.4893
   68SAPC  C215 5758   3.095   6.505   8.062 -0.1600  0.1097 -0.0837
   68SAPC  H15R 5759   3.169   6.522   8.141 -0.2030  0.7899 -0.1846
   68SAPC  C216 5760   2.975   6.406   8.091 -0.2275  0.6106  0.6584
   68SAPC  H16R 5761   3.025   6.307   8.090  2.0090  1.6795  0.0104
   68SAPC  H16S 5762   2.889   6.412   8.021 -0.9131  2.2514  1.6047
   68SAPC  C217 5763   2.921   6.426   8.234  0.0504  0.6655 -0.1892
   68SAPC  H17R 5764   2.810   6.425   8.228 -0.0072  2.6798  0.0499
   68SAPC  H17S 5765   2.942   6.528   8.274 -5.4301  1.6404  0.9786
   68SAPC  C218 5766   2.973   6.315   8.326 -0.3593 -0.2375  0.5360
   68SAPC  H18R 5767   3.083   6.308   8.325 -0.0980  2.1671 -1.9056
   68SAPC  H18S 5768   2.918   6.222   8.301 -0.1948 -0.6132  1.5599
   68SAPC  C219 5769   2.926   6.343   8.468 -0.5968  0.2159 -0.1322
   68SAPC  H19R 5770   2.979   6.433   8.508 -1.6019  1.0039 -0.5213
   68SAPC  H19S 5771   2.981   6.261   8.519  0.3081 -0.5070 -2.1662
   68SAPC  C220 5772   2.777   6.353   8.497 -0.4485  0.3554  0.2557
   68SAPC  H20R 5773   2.766   6.330   8.605 -0.3462  0.0475  0.1999
   68SAPC  H20S 5774   2.720   6.282   8.434 -1.9485  0.9987  0.8402
   68SAPC  H20T 5775   2.731   6.454   8.485 -1.0726  0.0723  0.2254
   68SAPC   C33 5776   3.717   6.423   6.871  0.2163  0.6029 -0.3281
   68SAPC   H3X 5777   3.642   6.502   6.891  1.4483  1.8621 -0.5112
   68SAPC   H3Y 5778   3.819   6.467   6.861 -0.4376  2.1022 -0.7065
   68SAPC   C34 5779   3.731   6.329   6.997  0.7886 -0.1849  0.8350
   68SAPC   H4X 5780   3.825   6.269   6.991  0.2589 -1.0907  1.3628
   68SAPC   H4Y 5781   3.641   6.265   7.003 -0.4278  1.5232  1.7363
   68SAPC   C35 5782   3.738   6.404   7.130  0.0360 -0.0390 -0.3486
   68SAPC   H5X 5783   3.646   6.465   7.139 -0.1845 -0.5154  0.9357
   68SAPC   H5Y 5784   3.829   6.468   7.128 -0.0090  0.1854  2.0471
   68SAPC   C36 5785   3.737   6.315   7.259 -0.1739 -1.2981 -0.1759
   68SAPC   H6X 5786   3.832   6.257   7.263 -0.3730 -1.8059 -1.9259
   68SAPC   H6Y 5787   3.652   6.243   7.256 -2.4630  1.2489 -1.2077
   68SAPC   C37 5788   3.721   6.405   7.385  0.5911  0.6905 -0.4423
   68SAPC   H7X 5789   3.653   6.490   7.359  0.2437 -0.1022 -2.2714
   68SAPC   H7Y 5790   3.821   6.447   7.406  0.7499  0.0124  0.1859
   68SAPC   C38 5791   3.691   6.332   7.516 -0.2665  0.7728  0.3354
   68SAPC   H8X 5792   3.788   6.285   7.545 -0.2570 -0.7076 -1.8176
   68SAPC   H8Y 5793   3.626   6.246   7.490  1.1364 -0.3156  0.3123
   68SAPC   C39 5794   3.634   6.415   7.635  0.9397  0.2828 -0.0818
   68SAPC   H9X 5795   3.580   6.350   7.707 -1.1161  0.5078 -1.3325
   68SAPC   H9Y 5796   3.556   6.482   7.592  0.0458 -0.5533  0.2139
   68SAPC  C310 5797   3.748   6.487   7.707 -0.0995 -0.6861  0.5941
   68SAPC  H10X 5798   3.806   6.539   7.628  0.0573  1.2564  1.9416
   68SAPC  H10Y 5799   3.812   6.409   7.753  1.3480  0.1731  0.0755
   68SAPC  C311 5800   3.692   6.582   7.810 -0.3534  0.5211  0.0136
   68SAPC  H11X 5801   3.618   6.655   7.769 -0.6812 -0.4673 -1.2286
   68SAPC  H11Y 5802   3.775   6.641   7.853 -0.4197 -0.3332  1.3552
   68SAPC  C312 5803   3.650   6.504   7.939 -0.1764 -0.0544 -0.1014
   68SAPC  H12X 5804   3.736   6.451   7.985 -0.5360  0.8173  1.6562
   68SAPC  H12Y 5805   3.576   6.425   7.916 -2.2029  1.5260  0.6902
   68SAPC  C313 5806   3.580   6.592   8.042 -0.3263 -0.3411  0.0300
   68SAPC  H13X 5807   3.489   6.639   8.000 -0.7011  3.1773  4.1677
   68SAPC  H13Y 5808   3.645   6.672   8.081 -0.3873  0.5532 -1.6068
   68SAPC  C314 5809   3.534   6.525   8.176  0.0006  0.3311  0.7981
   68SAPC  H14X 5810   3.614   6.464   8.224 -0.3108 -0.9121 -0.1919
   68SAPC  H14Y 5811   3.458   6.454   8.135  0.1322  0.7397 -0.1750
   68SAPC  C315 5812   3.470   6.619   8.281  0.6736 -0.0701 -0.4466
   68SAPC  H15X 5813   3.389   6.681   8.238 -0.2765 -0.3623  0.8438
   68SAPC  H15Y 5814   3.540   6.695   8.322  0.9884 -0.1666 -0.7989
   68SAPC  C316 5815   3.408   6.535   8.399  0.0256 -0.1381  0.4077
   68SAPC  H16X 5816   3.496   6.521   8.465 -0.4495  0.3292  1.1442
   68SAPC  H16Y 5817   3.367   6.435   8.374  2.1314 -1.4374  1.7831
   68SAPC  C317 5818   3.306   6.610   8.483 -0.1151 -0.1746  0.1865
   68SAPC  H17X 5819   3.222   6.607   8.411  0.0132  0.5246 -0.0028
   68SAPC  H17Y 5820   3.337   6.713   8.512  0.7120 -0.8186  1.6964
   68SAPC  C318 5821   3.257   6.523   8.605 -0.6516 -0.1669 -0.0394
   68SAPC  H18X 5822   3.342   6.506   8.674 -1.0876 -2.5387 -0.0112
   68SAPC  H18Y 5823   3.205   6.430   8.573 -2.7064  1.5623 -2.1676
   68SAPC  H18Z 5824   3.175   6.573   8.661 -0.7490 -0.8906  0.4696
   69SLPC     N 5825   4.165   3.586  11.026 -0.6427  0.7689  0.1627
   69SLPC   C13 5826   4.243   3.462  11.059 -0.4009 -0.4645  0.3609
   69SLPC  H13A 5827   4.317   3.436  10.986 -0.2117  0.7308  0.1108
   69SLPC  H13B 5828   4.290   3.472  11.156  1.1932  1.4978 -0.5358
   69SLPC  H13C 5829   4.182   3.373  11.060 -0.6948 -0.2643  0.7262
   69SLPC   C14 5830   4.256   3.707  11.042  0.3197  0.2761  0.4188
   69SLPC  H14A 5831   4.334   3.711  10.968 -1.5871 -1.8371 -1.8999
   69SLPC  H14B 5832   4.196   3.790  11.007 -1.6120 -1.0574  0.3896
   69SLPC  H14C 5833   4.286   3.727  11.144  2.1846  0.7866 -0.1903
   69SLPC   C15 5834   4.057   3.610  11.129  0.0004 -0.0031 -0.5619
   69SLPC  H15A 5835   3.995   3.693  11.101  1.1532  0.9585 -0.3706
   69SLPC  H15B 5836   3.992   3.525  11.137  0.1116 -0.0993 -0.6701
   69SLPC  H15C 5837   4.086   3.619  11.233 -0.7466 -1.1044 -0.2453
   69SLPC   C12 5838   4.104   3.582  10.886  0.4830 -0.2876 -0.8858
   69SLPC  H12A 5839   4.038   3.497  10.879  0.0762 -0.0989  0.3551
   69SLPC  H12B 5840   4.187   3.574  10.818  1.7220  0.5935  0.4676
   69SLPC   C11 5841   4.008   3.701  10.845  0.4021 -0.3029  0.1927
   69SLPC  H11A 5842   3.916   3.694  10.907  1.3660 -1.4251  1.5509
   69SLPC  H11B 5843   3.978   3.674  10.742  0.5898  2.3552 -0.6217
   69SLPC     P 5844   4.138   3.891  10.724  0.4090  0.1228 -0.0725
   69SLPC   O13 5845   4.195   4.017  10.772  0.0453 -0.2029 -0.2195
   69SLPC   O14 5846   4.238   3.796  10.671 -0.1871  1.0313 -0.1780
   69SLPC   O12 5847   4.069   3.829  10.850  0.1210  0.2975 -0.0959
   69SLPC   O11 5848   4.020   3.909  10.617 -0.0813  0.1822 -0.1388
   69SLPC    C1 5849   4.019   4.039  10.543 -0.1555 -0.1971  0.0889
   69SLPC    HA 5850   3.912   4.071  10.542  0.1735  0.9594 -0.0436
   69SLPC    HB 5851   4.077   4.126  10.582  0.4269  0.0488 -1.2955
   69SLPC    C2 5852   4.071   4.016  10.397 -0.0285 -0.7789 -0.1669
   69SLPC    HS 5853   4.018   4.093  10.337 -1.1683 -1.7858 -0.5100
   69SLPC   O21 5854   4.050   3.881  10.351  0.1602 -0.0957 -0.7359
   69SLPC   C21 5855   3.930   3.837  10.342 -0.3100  0.3989  1.2712
   69SLPC   O22 5856   3.828   3.898  10.342 -0.0676 -0.0271 -0.3946
   69SLPC   C22 5857   3.936   3.685  10.307 -0.0421  0.5686 -0.8517
   69SLPC   H2R 5858   4.044   3.664  10.323 -0.4106 -0.5947  0.2857
   69SLPC   H2S 5859   3.878   3.634  10.386  1.3618  0.7203  0.3094
   69SLPC    C3 5860   4.222   4.059  10.381  0.7787  0.3467  0.3583
   69SLPC    HX 5861   4.291   3.989  10.431  0.7799 -0.7431 -1.1193
   69SLPC    HY 5862   4.249   4.151  10.438 -0.4263  3.0085 -2.9455
   69SLPC   O31 5863   4.266   4.058  10.247 -0.3580  0.1830  0.4246
   69SLPC   C31 5864   4.292   4.164  10.186  0.4490  0.0916 -0.1220
   69SLPC   O32 5865   4.290   4.275  10.237  0.4357 -0.6230  0.4276
   69SLPC   C32 5866   4.334   4.134  10.040 -0.1713  0.0984 -0.8038
   69SLPC   H2X 5867   4.289   4.218   9.981 -1.1325 -1.0190 -1.7091
   69SLPC   H2Y 5868   4.284   4.043  10.001 -0.3165  1.3228 -3.7631
   69SLPC   C23 5869   3.875   3.645  10.177 -0.9375 -0.3184 -0.7221
   69SLPC   H3R 5870   3.778   3.700  10.174 -1.0147 -0.4311 -0.2603
   69SLPC   H3S 5871   3.857   3.536  10.174 -0.4437 -0.5305  1.7279
   69SLPC   C24 5872   3.956   3.686  10.054  0.0303 -0.1900  0.5709
   69SLPC   H4R 5873   4.051   3.628  10.047 -1.0039 -1.9377  0.5665
   69SLPC   H4S 5874   3.984   3.793  10.052 -0.7782  0.0471  1.3094
   69SLPC   C25 5875   3.877   3.659   9.925 -0.1073 -0.0713  0.3627
   69SLPC   H5R 5876   3.779   3.711   9.935 -0.4155 -0.6461  0.3564
   69SLPC   H5S 5877   3.864   3.549   9.923  1.9011 -0.3326 -0.4559
   69SLPC   C26 5878   3.930   3.706   9.787  0.3077  0.4584  0.4049
   69SLPC   H6R 5879   4.031   3.661   9.776 -0.2766 -1.0647  0.9201
   69SLPC   H6S 5880   3.920   3.816   9.791 -0.0318  0.4367  0.1952
   69SLPC   C27 5881   3.831   3.633   9.685 -0.0373 -0.1835 -0.4436
   69SLPC   H7R 5882   3.724   3.654   9.710  0.0186 -0.7543  0.3210
   69SLPC   H7S 5883   3.854   3.527   9.709  0.3850  0.3291  1.6253
   69SLPC   C28 5884   3.860   3.659   9.540 -0.1842 -0.2506  0.4069
   69SLPC   H8R 5885   3.970   3.666   9.526  0.2852 -3.3237  1.5635
   69SLPC   H8S 5886   3.814   3.757   9.514 -0.8202 -0.3834  0.9920
   69SLPC   C29 5887   3.812   3.547   9.457 -0.0703 -0.2886  0.8226
   69SLPC   H9R 5888   3.761   3.465   9.510  2.3754 -1.2391  1.8727
   69SLPC  C210 5889   3.827   3.540   9.322  0.1895 -0.2811 -0.2846
   69SLPC  H10R 5890   3.794   3.449   9.270 -0.3700  1.1921 -2.7024
   69SLPC  C211 5891   3.908   3.642   9.240 -0.8580 -0.1704  0.3822
   69SLPC  H11R 5892   3.999   3.589   9.204 -1.2000  0.1133 -0.9296
   69SLPC  H11S 5893   3.940   3.737   9.289 -2.1250  0.2828  0.3565
   69SLPC  C212 5894   3.829   3.673   9.121  0.0340  0.3041 -0.0782
   69SLPC  H12R 5895   3.743   3.739   9.140 -0.9109 -1.1977  1.0974
   69SLPC  C213 5896   3.836   3.616   8.998  0.1779  0.6953  0.6227
   69SLPC  H13R 5897   3.767   3.652   8.920  0.6400  0.3762  0.0642
   69SLPC  C214 5898   3.929   3.507   8.952 -0.2672  0.4405  0.5269
   69SLPC  H14R 5899   3.975   3.461   9.043 -2.2785 -0.7917  0.9895
   69SLPC  H14S 5900   4.002   3.541   8.876 -0.4602 -2.2942 -1.0236
   69SLPC  C215 5901   3.863   3.382   8.874 -0.0977 -0.0502  0.0693
   69SLPC  H15R 5902   3.935   3.298   8.886 -0.4925 -0.2012  1.4542
   69SLPC  H15S 5903   3.845   3.411   8.768 -2.2717  1.3637  0.7631
   69SLPC  C216 5904   3.734   3.331   8.934 -0.0789  0.3863  0.4698
   69SLPC  H16R 5905   3.667   3.419   8.938  0.8812  1.3858 -2.5745
   69SLPC  H16S 5906   3.747   3.301   9.040 -0.2933 -0.9560  0.1403
   69SLPC  C217 5907   3.671   3.222   8.843  0.0869 -0.1696  0.2973
   69SLPC  H17R 5908   3.580   3.189   8.898  1.2753 -2.8804  0.8229
   69SLPC  H17S 5909   3.740   3.137   8.824  0.9979  0.9186 -1.5077
   69SLPC  C218 5910   3.615   3.267   8.701 -0.0907 -0.0766 -0.6831
   69SLPC  H18R 5911   3.584   3.173   8.651  0.8835 -1.0879  0.5306
   69SLPC  H18S 5912   3.699   3.311   8.642  1.0091 -0.5147  0.5072
   69SLPC  H18T 5913   3.531   3.338   8.718  1.1469  0.8377  2.1691
   69SLPC   C33 5914   4.488   4.110  10.021  0.3249  0.3738 -0.4007
   69SLPC   H3X 5915   4.519   4.031  10.093 -2.4709  0.5679  1.1820
   69SLPC   H3Y 5916   4.546   4.203  10.036 -0.9377  0.8569  2.0628
   69SLPC   C34 5917   4.516   4.054   9.881 -0.1253  0.2054 -0.7109
   69SLPC   H4X 5918   4.420   4.024   9.833 -2.0337 -0.4043  3.0949
   69SLPC   H4Y 5919   4.578   3.962   9.886  2.2142  1.7356 -0.0190
   69SLPC   C35 5920   4.590   4.162   9.799  0.5448  0.1525  0.4569
   69SLPC   H5X 5921   4.696   4.171   9.829  0.5839  1.7872 -0.0717
   69SLPC   H5Y 5922   4.550   4.265   9.812  0.8643  0.4294 -0.6430
   69SLPC   C36 5923   4.599   4.132   9.645  0.7330 -0.0749  0.8243
   69SLPC   H6X 5924   4.584   4.025   9.621 -2.0152  0.8563 -2.3759
   69SLPC   H6Y 5925   4.693   4.178   9.607  0.0878  0.9010  0.3644
   69SLPC   C37 5926   4.474   4.200   9.571  0.2245 -0.0422 -0.2458
   69SLPC   H7X 5927   4.473   4.307   9.601 -0.5383  0.9449 -3.3842
   69SLPC   H7Y 5928   4.384   4.147   9.608 -0.3730  0.6871 -0.6294
   69SLPC   C38 5929   4.476   4.178   9.416 -0.2799 -0.4693 -0.4708
   69SLPC   H8X 5930   4.472   4.069   9.394 -2.1284 -0.2456 -1.4830
   69SLPC   H8Y 5931   4.571   4.214   9.370 -0.7435 -0.0242 -1.0967
   69SLPC   C39 5932   4.350   4.247   9.355  0.6278 -0.1485 -0.2427
   69SLPC   H9X 5933   4.352   4.357   9.371 -1.8019 -0.0320 -0.3320
   69SLPC   H9Y 5934   4.256   4.216   9.407  1.6312  0.0061  1.7761
   69SLPC  C310 5935   4.345   4.213   9.206  0.2383  0.2549 -0.0301
   69SLPC  H10X 5936   4.348   4.102   9.197 -0.5111  0.1860  0.4946
   69SLPC  H10Y 5937   4.445   4.243   9.167  1.2173 -1.6616  0.8206
   69SLPC  C311 5938   4.229   4.276   9.131  0.2694 -0.2225  0.1010
   69SLPC  H11X 5939   4.229   4.387   9.134 -0.3415 -0.1862 -0.7387
   69SLPC  H11Y 5940   4.135   4.237   9.175  0.2937  0.4041  0.7276
   69SLPC  C312 5941   4.229   4.245   8.975 -0.2485 -0.1889 -0.6510
   69SLPC  H12X 5942   4.336   4.237   8.946 -0.0775  0.5281 -0.2196
   69SLPC  H12Y 5943   4.177   4.330   8.926 -1.1547  0.6275  1.6033
   69SLPC  C313 5944   4.151   4.120   8.932  0.3618  0.2168  0.1403
   69SLPC  H13X 5945   4.175   4.029   8.992  1.3470 -0.5042 -1.2963
   69SLPC  H13Y 5946   4.179   4.101   8.826 -2.3226 -2.6618 -0.2051
   69SLPC  C314 5947   4.001   4.132   8.912  0.4796 -0.4513 -0.2435
   69SLPC  H14X 5948   3.977   4.224   8.854 -0.6646 -0.4385  0.2389
   69SLPC  H14Y 5949   3.952   4.160   9.007  2.1893 -0.4675  0.6946
   69SLPC  C315 5950   3.939   4.013   8.854 -0.7712  0.5278  0.3178
   69SLPC  H15X 5951   3.960   3.931   8.926  3.9108  0.5629 -0.6460
   69SLPC  H15Y 5952   4.000   3.972   8.771 -0.0455  0.5492  0.8275
   69SLPC  C316 5953   3.794   4.017   8.811  0.1337  0.1002  0.1314
   69SLPC  H16X 5954   3.741   4.068   8.895 -0.9931  1.4249 -1.3230
   69SLPC  H16Y 5955   3.756   3.913   8.803 -0.8773  0.4878 -0.2195
   69SLPC  C317 5956   3.766   4.093   8.684  0.1138 -0.4632 -0.2023
   69SLPC  H17X 5957   3.753   4.038   8.589 -2.6073  1.5272 -1.0949
   69SLPC  H17Y 5958   3.850   4.159   8.654  0.1262 -0.3369  0.1041
   69SLPC  C318 5959   3.642   4.182   8.705 -0.6651  0.5552  0.4847
   69SLPC  H18X 5960   3.660   4.243   8.796  0.2778 -0.3122  0.9011
   69SLPC  H18Y 5961   3.555   4.113   8.716 -0.0485 -0.1540  1.0005
   69SLPC  H18Z 5962   3.615   4.259   8.630 -2.7459 -2.1654 -1.8285
   70SLPC     N 5963   3.322   3.830  10.680 -0.4461  0.5026 -0.3441
   70SLPC   C13 5964   3.294   3.945  10.769 -0.0024 -0.2272  0.1544
   70SLPC  H13A 5965   3.365   3.953  10.850  0.1519 -1.4388  0.1619
   70SLPC  H13B 5966   3.291   4.041  10.720  2.9554 -1.1341 -2.1003
   70SLPC  H13C 5967   3.196   3.928  10.811  0.1581  0.4544  0.8225
   70SLPC   C14 5968   3.218   3.832  10.572 -0.2559  0.1549  0.0124
   70SLPC  H14A 5969   3.141   3.763  10.603 -1.4293  0.6568 -1.6769
   70SLPC  H14B 5970   3.172   3.929  10.561 -1.2231 -0.3334 -0.3689
   70SLPC  H14C 5971   3.254   3.791  10.479 -0.7902 -0.1966 -0.0447
   70SLPC   C15 5972   3.298   3.705  10.770 -0.0365  0.2684  0.0036
   70SLPC  H15A 5973   3.318   3.619  10.708 -1.2030  0.3082 -0.4615
   70SLPC  H15B 5974   3.368   3.702  10.852 -0.0208 -0.6571 -0.0318
   70SLPC  H15C 5975   3.202   3.694  10.819  0.2615 -1.8670  0.1996
   70SLPC   C12 5976   3.460   3.823  10.630 -0.4119 -0.4691  0.0401
   70SLPC  H12A 5977   3.522   3.813  10.718 -0.7045 -1.4702  0.1374
   70SLPC  H12B 5978   3.492   3.914  10.580  0.6346  0.1259  1.7053
   70SLPC   C11 5979   3.497   3.696  10.545 -0.0826 -0.4077  0.5431
   70SLPC  H11A 5980   3.597   3.716  10.500 -0.6747  1.1863 -0.1587
   70SLPC  H11B 5981   3.435   3.687  10.453  2.8086  0.1496 -1.5996
   70SLPC     P 5982   3.627   3.550  10.718  0.1092 -0.1287  0.2772
   70SLPC   O13 5983   3.681   3.673  10.779 -0.7047 -0.7778 -0.2003
   70SLPC   O14 5984   3.590   3.439  10.809  0.2192 -0.2994  0.7501
   70SLPC   O12 5985   3.494   3.590  10.635  0.4037  0.3208 -0.3139
   70SLPC   O11 5986   3.725   3.499  10.608 -0.3075  0.1293  0.7086
   70SLPC    C1 5987   3.672   3.421  10.495 -0.1517 -0.9710 -0.5037
   70SLPC    HA 5988   3.582   3.360  10.517 -1.0414 -0.1846 -1.7609
   70SLPC    HB 5989   3.651   3.480  10.403 -0.4905 -3.0657 -1.8269
   70SLPC    C2 5990   3.781   3.311  10.469  0.7575  0.0159  0.4077
   70SLPC    HS 5991   3.802   3.249  10.559  1.2305 -1.2407 -0.5379
   70SLPC   O21 5992   3.899   3.378  10.420 -0.1373 -0.0607  0.0694
   70SLPC   C21 5993   4.001   3.288  10.401  0.1342 -0.3360 -0.1206
   70SLPC   O22 5994   4.005   3.177  10.451  0.5304 -0.1872  0.0254
   70SLPC   C22 5995   4.115   3.356  10.323 -0.5320  0.4772 -0.7113
   70SLPC   H2R 5996   4.091   3.463  10.308  2.1249  1.5144  1.5413
   70SLPC   H2S 5997   4.207   3.350  10.386  0.3873  1.2490 -1.9505
   70SLPC    C3 5998   3.725   3.204  10.367 -0.7443  0.2543  0.4107
   70SLPC    HX 5999   3.618   3.187  10.393 -0.6448  0.4883  0.9974
   70SLPC    HY 6000   3.795   3.117  10.373  0.1447  0.7903 -1.4228
   70SLPC   O31 6001   3.732   3.261  10.230  0.5842  0.1103  0.0547
   70SLPC   C31 6002   3.700   3.172  10.132  0.2067 -0.8726 -0.4109
   70SLPC   O32 6003   3.665   3.059  10.146  0.1150  0.2523  0.5829
   70SLPC   C32 6004   3.730   3.241  10.001 -0.0539 -0.0355  0.8851
   70SLPC   H2X 6005   3.821   3.303  10.014  1.0992 -1.8978  2.1883
   70SLPC   H2Y 6006   3.644   3.305   9.973  1.1442  1.6979  1.0438
   70SLPC   C23 6007   4.130   3.278  10.188 -0.5331  0.4380  0.4880
   70SLPC   H3R 6008   4.039   3.268  10.126  0.5339  1.2803 -1.2971
   70SLPC   H3S 6009   4.159   3.172  10.208  0.7761  1.0147  1.8888
   70SLPC   C24 6010   4.230   3.344  10.087 -0.0636  0.5283 -1.3984
   70SLPC   H4R 6011   4.337   3.335  10.115  0.3031  1.3579 -2.4573
   70SLPC   H4S 6012   4.195   3.449  10.090  2.1950  1.3806 -2.4857
   70SLPC   C25 6013   4.215   3.288   9.946 -0.4350 -0.0279 -0.2054
   70SLPC   H5R 6014   4.113   3.309   9.906  0.5691 -0.5727 -3.3016
   70SLPC   H5S 6015   4.222   3.178   9.954  1.1967 -0.0025 -1.0326
   70SLPC   C26 6016   4.324   3.339   9.844  0.3065  0.0831  0.1987
   70SLPC   H6R 6017   4.422   3.338   9.897  0.6563  1.6812 -0.3533
   70SLPC   H6S 6018   4.291   3.440   9.811 -1.1994 -0.0657  1.1511
   70SLPC   C27 6019   4.350   3.237   9.726  0.5120 -0.0144 -0.6683
   70SLPC   H7R 6020   4.367   3.139   9.775 -2.2399  0.6887  1.9796
   70SLPC   H7S 6021   4.443   3.268   9.674  0.1401  0.1268 -1.2536
   70SLPC   C28 6022   4.237   3.212   9.619  0.6582  0.7231  0.2250
   70SLPC   H8R 6023   4.145   3.183   9.674  0.6281  2.1027  0.9686
   70SLPC   H8S 6024   4.278   3.126   9.562  2.2261  0.6979  1.2937
   70SLPC   C29 6025   4.196   3.333   9.535 -0.0830 -0.7715 -0.2756
   70SLPC   H9R 6026   4.110   3.395   9.567 -0.4688 -0.9133 -1.0088
   70SLPC  C210 6027   4.266   3.368   9.426  0.1758  0.2786 -0.1502
   70SLPC  H10R 6028   4.232   3.448   9.359  0.3623  1.9132  1.5991
   70SLPC  C211 6029   4.392   3.304   9.368  0.1450 -0.1951 -0.7367
   70SLPC  H11R 6030   4.444   3.257   9.454 -2.1703  0.0693  0.9114
   70SLPC  H11S 6031   4.463   3.386   9.341 -0.1911 -0.1456 -1.4782
   70SLPC  C212 6032   4.374   3.198   9.268  0.2228 -0.0415  0.5052
   70SLPC  H12R 6033   4.383   3.099   9.314  0.5091 -0.0043  0.5304
   70SLPC  C213 6034   4.340   3.228   9.138 -0.8308 -0.6313  0.4903
   70SLPC  H13R 6035   4.323   3.143   9.071  0.3909 -0.5117 -0.0116
   70SLPC  C214 6036   4.325   3.364   9.072 -1.0631  0.2682 -0.1277
   70SLPC  H14R 6037   4.355   3.450   9.137 -1.0086  0.3470 -0.2554
   70SLPC  H14S 6038   4.218   3.381   9.051 -0.5354  1.3388 -2.1656
   70SLPC  C215 6039   4.379   3.378   8.931 -0.0493  0.4443  0.6223
   70SLPC  H15R 6040   4.489   3.390   8.935  0.0081  0.4028 -0.3866
   70SLPC  H15S 6041   4.344   3.478   8.899  1.3364  0.3209 -1.5360
   70SLPC  C216 6042   4.325   3.272   8.832 -0.2085 -0.3804  0.2546
   70SLPC  H16R 6043   4.216   3.257   8.844 -0.1163 -1.5203 -0.2399
   70SLPC  H16S 6044   4.377   3.178   8.861  1.9828  0.7677  0.3006
   70SLPC  C217 6045   4.331   3.314   8.683 -0.3138  0.2815  0.4148
   70SLPC  H17R 6046   4.419   3.378   8.659 -0.9335  0.2348 -2.3118
   70SLPC  H17S 6047   4.246   3.381   8.660 -0.8112 -0.3684  0.3497
   70SLPC  C218 6048   4.313   3.203   8.576  0.1297  0.0420 -0.0038
   70SLPC  H18R 6049   4.217   3.153   8.599  0.4035 -1.8147 -2.4984
   70SLPC  H18S 6050   4.395   3.129   8.586  0.7925  0.1517 -3.3408
   70SLPC  H18T 6051   4.314   3.256   8.478  0.9499  2.1185  1.0634
   70SLPC   C33 6052   3.751   3.137   9.889  0.0876 -0.2606  0.0848
   70SLPC   H3X 6053   3.667   3.066   9.870  0.2984 -0.9553  1.5482
   70SLPC   H3Y 6054   3.841   3.074   9.907 -0.3900 -0.7012  0.9747
   70SLPC   C34 6055   3.782   3.205   9.760 -0.3165  0.1452  0.3527
   70SLPC   H4X 6056   3.881   3.254   9.773  0.8623 -1.6464 -1.3617
   70SLPC   H4Y 6057   3.707   3.281   9.728 -1.3042 -1.8183 -2.3626
   70SLPC   C35 6058   3.800   3.112   9.641 -0.1887 -0.0300  0.4653
   70SLPC   H5X 6059   3.709   3.054   9.617  0.4144 -0.5821 -0.5690
   70SLPC   H5Y 6060   3.874   3.033   9.665 -1.6924 -1.7933 -0.4957
   70SLPC   C36 6061   3.850   3.189   9.524  0.4734 -0.1041 -0.5217
   70SLPC   H6X 6062   3.918   3.266   9.567  0.2199 -1.2488  2.1525
   70SLPC   H6Y 6063   3.756   3.240   9.493  1.2334  0.3153 -2.2025
   70SLPC   C37 6064   3.910   3.109   9.410  1.2550  0.1712 -0.0062
   70SLPC   H7X 6065   3.842   3.023   9.391  0.9277  0.6035 -0.8380
   70SLPC   H7Y 6066   4.007   3.076   9.453  1.0717 -0.5874 -0.1540
   70SLPC   C38 6067   3.935   3.192   9.287 -0.0099  1.1363  0.2228
   70SLPC   H8X 6068   3.980   3.290   9.310 -2.1669  2.1455  0.3501
   70SLPC   H8Y 6069   3.841   3.209   9.229 -0.4432 -0.4571  0.3922
   70SLPC   C39 6070   4.028   3.112   9.189 -0.3526 -0.1850 -0.3741
   70SLPC   H9X 6071   4.118   3.085   9.249  0.0594  1.7157 -0.0865
   70SLPC   H9Y 6072   4.065   3.172   9.103  1.5691 -0.3308  0.2930
   70SLPC  C310 6073   3.969   2.972   9.142  0.7779 -0.0165  0.3398
   70SLPC  H10X 6074   3.928   2.910   9.225 -0.0454  0.4185  0.2637
   70SLPC  H10Y 6075   4.055   2.922   9.092 -0.1899 -1.2267 -0.1514
   70SLPC  C311 6076   3.852   2.986   9.036 -0.0498 -0.1493 -0.1675
   70SLPC  H11X 6077   3.884   3.036   8.942  1.8914 -0.9416  0.0334
   70SLPC  H11Y 6078   3.779   3.056   9.083 -0.1092  0.6546 -1.4279
   70SLPC  C312 6079   3.771   2.861   9.006  0.0225 -0.4467  0.0171
   70SLPC  H12X 6080   3.727   2.824   9.100 -2.4471  2.9309  0.3975
   70SLPC  H12Y 6081   3.846   2.790   8.966 -1.0088 -1.4702 -0.1680
   70SLPC  C313 6082   3.660   2.882   8.900  0.5915 -0.1122 -0.0972
   70SLPC  H13X 6083   3.704   2.938   8.814  0.1017 -1.0306 -0.9657
   70SLPC  H13Y 6084   3.576   2.939   8.946 -0.4267 -0.6736 -1.2186
   70SLPC  C314 6085   3.603   2.752   8.849 -0.4935 -0.5934 -0.7341
   70SLPC  H14X 6086   3.557   2.701   8.936  0.8067  0.9790  0.9565
   70SLPC  H14Y 6087   3.685   2.687   8.811  1.9047  0.5599  2.0541
   70SLPC  C315 6088   3.502   2.772   8.733  0.3541  0.1763 -0.1494
   70SLPC  H15X 6089   3.432   2.853   8.762 -1.2097 -1.3516  0.4862
   70SLPC  H15Y 6090   3.444   2.683   8.700  0.4957  0.8142 -2.3086
   70SLPC  C316 6091   3.573   2.836   8.604  0.1640  0.6505  0.1968
   70SLPC  H16X 6092   3.662   2.772   8.585  0.0153 -0.6381  3.2650
   70SLPC  H16Y 6093   3.601   2.942   8.622  1.5034  0.7081 -1.8059
   70SLPC  C317 6094   3.480   2.834   8.478 -0.5178 -0.4131  0.1288
   70SLPC  H17X 6095   3.458   2.729   8.450  1.6678 -0.8025 -0.3663
   70SLPC  H17Y 6096   3.540   2.868   8.390 -0.9045  0.1846  0.0919
   70SLPC  C318 6097   3.356   2.919   8.488 -0.3672 -0.4005 -0.2195
   70SLPC  H18X 6098   3.383   3.021   8.524  0.4316 -0.5744 -0.3043
   70SLPC  H18Y 6099   3.286   2.870   8.559 -0.1311  0.8245  0.9190
   70SLPC  H18Z 6100   3.308   2.920   8.388  1.2650 -0.6305 -1.0417
   71SLPC     N 6101   3.801   6.082  10.890  0.0813  0.2895 -0.1951
   71SLPC   C13 6102   3.753   5.981  10.984 -0.1367  0.5990  0.6468
   71SLPC  H13A 6103   3.645   5.976  10.980 -0.1801  1.9461 -1.0524
   71SLPC  H13B 6104   3.798   5.884  10.967 -0.1867 -0.2772  4.5988
   71SLPC  H13C 6105   3.778   6.010  11.085 -1.4283  1.2144  0.8107
   71SLPC   C14 6106   3.956   6.067  10.879 -0.0172  0.0624  0.2614
   71SLPC  H14A 6107   3.980   5.967  10.847 -1.0333  0.5263 -2.1392
   71SLPC  H14B 6108   3.992   6.131  10.800  0.8344 -0.7561 -0.0201
   71SLPC  H14C 6109   3.989   6.095  10.978 -0.5003 -1.2878  0.8352
   71SLPC   C15 6110   3.772   6.226  10.929  0.6607 -0.6108 -0.6264
   71SLPC  H15A 6111   3.829   6.252  11.017 -0.1754  1.6324 -0.6804
   71SLPC  H15B 6112   3.815   6.295  10.858  0.4115 -1.0314 -1.1948
   71SLPC  H15C 6113   3.666   6.241  10.947  1.1222  1.3142  0.7854
   71SLPC   C12 6114   3.758   6.056  10.747 -0.3657 -0.6896 -0.2223
   71SLPC  H12A 6115   3.758   5.949  10.739  1.3855 -0.7914  0.6301
   71SLPC  H12B 6116   3.839   6.088  10.684  3.3607 -2.3659  3.2787
   71SLPC   C11 6117   3.620   6.104  10.705  0.6401 -0.0501 -0.1365
   71SLPC  H11A 6118   3.613   6.076  10.598  0.1087  1.9905 -0.6839
   71SLPC  H11B 6119   3.617   6.215  10.713 -0.1090 -0.1232  0.7943
   71SLPC     P 6120   3.435   5.938  10.765 -0.5952  0.2485 -0.2893
   71SLPC   O13 6121   3.522   5.825  10.811 -0.0648  0.2678  0.6926
   71SLPC   O14 6122   3.297   5.951  10.825 -0.5281 -0.2917  0.1015
   71SLPC   O12 6123   3.517   6.066  10.798 -0.0627  0.0359  0.4974
   71SLPC   O11 6124   3.426   5.933  10.607  0.2152  0.0031  0.7490
   71SLPC    C1 6125   3.483   5.833  10.526 -0.1599  0.4294 -0.0596
   71SLPC    HA 6126   3.592   5.845  10.511  0.2815 -1.8290  0.8485
   71SLPC    HB 6127   3.462   5.734  10.572 -0.7532  0.0072 -1.1958
   71SLPC    C2 6128   3.410   5.813  10.392  0.3437  0.4795  0.0944
   71SLPC    HS 6129   3.455   5.719  10.354 -0.2700 -0.0797  0.7241
   71SLPC   O21 6130   3.433   5.933  10.319  0.3466 -0.1641  0.0023
   71SLPC   C21 6131   3.532   5.918  10.220  1.3129 -0.2469 -0.4149
   71SLPC   O22 6132   3.574   5.816  10.171 -0.0847  0.2381  0.3592
   71SLPC   C22 6133   3.566   6.062  10.179 -0.4112 -0.0700 -0.7668
   71SLPC   H2R 6134   3.568   6.133  10.264  0.4022 -1.2491  0.2269
   71SLPC   H2S 6135   3.669   6.049  10.138  1.1646  3.2081  1.6590
   71SLPC    C3 6136   3.256   5.782  10.405 -0.8141 -0.7571 -0.0810
   71SLPC    HX 6137   3.210   5.860  10.469  2.8129  2.5071 -1.0797
   71SLPC    HY 6138   3.237   5.681  10.447 -1.0223 -0.1171  1.4473
   71SLPC   O31 6139   3.181   5.809  10.283 -0.7938  0.4705  0.1810
   71SLPC   C31 6140   3.172   5.707  10.197  0.0139  0.6609  0.0184
   71SLPC   O32 6141   3.185   5.587  10.218  0.3049 -0.0010  0.1693
   71SLPC   C32 6142   3.153   5.760  10.056 -0.2866 -0.6848  0.2368
   71SLPC   H2X 6143   3.255   5.749  10.014 -0.8879 -2.4325 -0.8864
   71SLPC   H2Y 6144   3.126   5.867  10.065 -1.1148 -0.9675  1.2893
   71SLPC   C23 6145   3.463   6.107  10.077 -0.2960 -0.8090 -0.0747
   71SLPC   H3R 6146   3.465   6.218  10.071  0.6352 -0.7410  1.1299
   71SLPC   H3S 6147   3.363   6.088  10.121  0.6529  0.3363  2.7854
   71SLPC   C24 6148   3.492   6.046   9.940  0.9936  0.8057 -0.0507
   71SLPC   H4R 6149   3.508   5.937   9.954  0.4516  0.9302  1.8893
   71SLPC   H4S 6150   3.595   6.076   9.912  1.3600  0.3273  0.7300
   71SLPC   C25 6151   3.386   6.089   9.837 -0.0220 -0.4733 -0.6865
   71SLPC   H5R 6152   3.386   6.199   9.844  2.4091 -0.3966 -0.7555
   71SLPC   H5S 6153   3.283   6.051   9.851 -0.9224  2.7002  2.6909
   71SLPC   C26 6154   3.436   6.057   9.701 -0.2719  1.0283  0.6452
   71SLPC   H6R 6155   3.431   5.947   9.687  0.5202  0.6690  2.8343
   71SLPC   H6S 6156   3.544   6.077   9.687  0.0079 -0.4689  0.5344
   71SLPC   C27 6157   3.353   6.124   9.592  0.1452 -0.9321 -0.1867
   71SLPC   H7R 6158   3.389   6.228   9.577 -1.0372 -0.5407 -0.4222
   71SLPC   H7S 6159   3.245   6.121   9.618  0.2484 -0.2269  0.3616
   71SLPC   C28 6160   3.382   6.056   9.453  0.6524 -0.5464 -0.5219
   71SLPC   H8R 6161   3.349   5.950   9.465 -0.1736 -0.2561 -0.1161
   71SLPC   H8S 6162   3.489   6.050   9.426  0.7061 -0.8648 -0.2448
   71SLPC   C29 6163   3.289   6.128   9.351 -0.4332  0.1903  0.6276
   71SLPC   H9R 6164   3.193   6.153   9.398  0.0259  1.0157  1.1596
   71SLPC  C210 6165   3.327   6.185   9.241 -0.3334 -0.7112  0.5040
   71SLPC  H10R 6166   3.253   6.251   9.194 -1.1393 -1.8837  0.0763
   71SLPC  C211 6167   3.461   6.182   9.171  0.3058 -0.2122 -0.6739
   71SLPC  H11R 6168   3.532   6.148   9.250 -1.9717 -0.2561  1.4628
   71SLPC  H11S 6169   3.476   6.283   9.129  0.5787  1.4015  2.8912
   71SLPC  C212 6170   3.475   6.063   9.082 -0.4563  0.3171  0.4806
   71SLPC  H12R 6171   3.452   5.963   9.122 -0.3972 -0.5307 -1.4907
   71SLPC  C213 6172   3.494   6.070   8.949 -0.9119 -0.5095  0.7939
   71SLPC  H13R 6173   3.501   5.974   8.897  2.2769 -0.0362  0.1563
   71SLPC  C214 6174   3.503   6.191   8.853 -0.0315  0.2069 -0.4833
   71SLPC  H14R 6175   3.489   6.284   8.913  2.5248  0.8936 -0.8308
   71SLPC  H14S 6176   3.430   6.184   8.770  1.0888  0.9648 -1.5787
   71SLPC  C215 6177   3.636   6.196   8.782  0.0889 -0.2101 -0.1566
   71SLPC  H15R 6178   3.656   6.096   8.737 -3.0272 -0.8033 -0.4524
   71SLPC  H15S 6179   3.719   6.220   8.852 -0.4871  0.7376  0.2103
   71SLPC  C216 6180   3.641   6.299   8.673 -0.1985  0.1517 -0.4612
   71SLPC  H16R 6181   3.619   6.388   8.736 -4.1113 -0.3068 -0.9220
   71SLPC  H16S 6182   3.564   6.279   8.596 -2.2163 -1.1749  1.7457
   71SLPC  C217 6183   3.779   6.300   8.601  0.6505  0.3313 -0.0744
   71SLPC  H17R 6184   3.760   6.212   8.536  1.1492 -0.7624  1.2123
   71SLPC  H17S 6185   3.874   6.282   8.655  2.1982  0.6048 -2.5535
   71SLPC  C218 6186   3.775   6.422   8.512  0.1293  0.1156  0.8700
   71SLPC  H18R 6187   3.744   6.520   8.556  0.3002  1.1075 -1.1325
   71SLPC  H18S 6188   3.716   6.395   8.423  0.7246  0.0491  0.4900
   71SLPC  H18T 6189   3.874   6.448   8.468 -0.0015 -0.8031  0.0187
   71SLPC   C33 6190   3.060   5.677   9.970  0.2294 -0.0515 -0.4163
   71SLPC   H3X 6191   2.960   5.686  10.017  0.3604 -1.7944  0.2739
   71SLPC   H3Y 6192   3.093   5.570   9.972  0.7205  0.0999 -0.3439
   71SLPC   C34 6193   3.053   5.722   9.828 -0.4479 -0.0420 -0.0272
   71SLPC   H4X 6194   2.998   5.642   9.773 -0.5158  1.1531 -1.7951
   71SLPC   H4Y 6195   3.155   5.721   9.783 -0.4905 -1.9048 -0.1597
   71SLPC   C35 6196   2.990   5.861   9.802  0.6625 -0.0951  0.0987
   71SLPC   H5X 6197   3.031   5.935   9.875  1.0060 -0.3343  0.1522
   71SLPC   H5Y 6198   2.881   5.860   9.822  0.4381  1.5345 -0.8924
   71SLPC   C36 6199   3.002   5.896   9.651 -0.5224 -0.0381  0.1038
   71SLPC   H6X 6200   3.104   5.930   9.624 -1.2291  0.4568 -2.1679
   71SLPC   H6Y 6201   2.942   5.985   9.622  0.9931  0.8784 -0.3048
   71SLPC   C37 6202   2.963   5.782   9.561  0.2096 -0.5990  0.3795
   71SLPC   H7X 6203   2.860   5.760   9.597 -0.7878  3.0506  0.1338
   71SLPC   H7Y 6204   3.016   5.684   9.569 -0.5784 -1.3813 -2.6125
   71SLPC   C38 6205   2.952   5.809   9.412  0.0572  0.8294  0.7431
   71SLPC   H8X 6206   3.052   5.848   9.382  0.1524  0.0437 -0.0076
   71SLPC   H8Y 6207   2.875   5.888   9.401  0.9111  1.4507 -1.0459
   71SLPC   C39 6208   2.916   5.681   9.335  0.5584  0.6274  0.0313
   71SLPC   H9X 6209   2.812   5.643   9.350  0.5273  0.4746 -0.5458
   71SLPC   H9Y 6210   2.983   5.593   9.345 -0.7237 -0.4641 -0.6288
   71SLPC  C310 6211   2.916   5.703   9.182  0.3837 -0.6753  0.1800
   71SLPC  H10X 6212   2.859   5.619   9.139 -2.6956  0.4789  1.7072
   71SLPC  H10Y 6213   3.020   5.694   9.142  0.4757  0.5359  0.1068
   71SLPC  C311 6214   2.854   5.824   9.110 -0.3424 -0.0658  0.0781
   71SLPC  H11X 6215   2.935   5.900   9.116 -0.9015  0.4655  1.0551
   71SLPC  H11Y 6216   2.767   5.854   9.173 -0.8065 -0.2787 -0.4492
   71SLPC  C312 6217   2.800   5.801   8.965  0.4795 -0.3869 -0.3167
   71SLPC  H12X 6218   2.765   5.902   8.937  1.9803  0.8248  1.8293
   71SLPC  H12Y 6219   2.713   5.732   8.960  2.0023 -2.7279  2.4795
   71SLPC  C313 6220   2.912   5.758   8.868 -0.2316 -0.8862  0.3211
   71SLPC  H13X 6221   2.937   5.651   8.886 -1.8105 -1.0192  1.8890
   71SLPC  H13Y 6222   3.004   5.820   8.879 -0.8804 -0.0251  0.9644
   71SLPC  C314 6223   2.848   5.760   8.725 -0.4009  0.2777  0.4823
   71SLPC  H14X 6224   2.787   5.668   8.712  2.4444 -1.7672  0.7526
   71SLPC  H14Y 6225   2.936   5.748   8.659  1.5980  2.6606  2.4935
   71SLPC  C315 6226   2.777   5.886   8.678  0.5676  0.1430  0.3062
   71SLPC  H15X 6227   2.851   5.967   8.696  0.3036  0.3601  0.4200
   71SLPC  H15Y 6228   2.682   5.897   8.736 -1.1849 -0.6108 -2.2616
   71SLPC  C316 6229   2.758   5.881   8.529 -0.1612  0.6600 -0.6795
   71SLPC  H16X 6230   2.724   5.778   8.501 -1.5484  1.2165 -1.1254
   71SLPC  H16Y 6231   2.863   5.898   8.498  0.4912 -0.1303  1.0153
   71SLPC  C317 6232   2.658   5.972   8.470 -0.0362  0.1049  0.4075
   71SLPC  H17X 6233   2.669   6.077   8.507 -0.3701  0.3726 -0.2340
   71SLPC  H17Y 6234   2.556   5.947   8.507  0.4527  0.0123  1.7614
   71SLPC  C318 6235   2.653   5.980   8.312  0.2382 -0.1491  0.5688
   71SLPC  H18X 6236   2.582   6.058   8.278 -1.3351 -1.5224  0.5978
   71SLPC  H18Y 6237   2.620   5.882   8.272 -0.9192  0.5150 -0.1652
   71SLPC  H18Z 6238   2.754   5.999   8.270 -0.1314 -0.6426 -0.5894
   72SLPC     N 6239   5.866   4.911  10.800  0.1052 -0.2977 -0.0822
   72SLPC   C13 6240   5.908   5.010  10.905  0.2510 -0.8252  0.0469
   72SLPC  H13A 6241   5.928   4.958  10.998 -0.1937 -1.2442 -0.0860
   72SLPC  H13B 6242   5.995   5.068  10.881 -0.8320  0.1315 -1.7703
   72SLPC  H13C 6243   5.824   5.075  10.923 -0.7199 -1.8639 -0.5875
   72SLPC   C14 6244   5.973   4.809  10.783 -1.0036 -0.0675  0.0856
   72SLPC  H14A 6245   5.931   4.722  10.734  1.1277 -0.9775 -0.2469
   72SLPC  H14B 6246   6.057   4.851  10.730  0.9504 -2.3438  1.2063
   72SLPC  H14C 6247   6.020   4.766  10.870  2.1401 -2.1556 -2.4247
   72SLPC   C15 6248   5.846   4.978  10.673  0.1646 -0.8304  0.2514
   72SLPC  H15A 6249   5.749   5.025  10.674  0.2130 -0.6379 -1.4895
   72SLPC  H15B 6250   5.927   5.045  10.650 -0.0206  0.0894  2.0927
   72SLPC  H15C 6251   5.847   4.898  10.601  1.3107  0.9145 -1.7661
   72SLPC   C12 6252   5.743   4.842  10.850  0.4201 -0.9576 -0.0763
   72SLPC  H12A 6253   5.677   4.922  10.880  3.1711  1.0366  1.0856
   72SLPC  H12B 6254   5.763   4.781  10.938  0.0090  2.4517  2.5843
   72SLPC   C11 6255   5.659   4.755  10.741 -0.3575  0.3260  0.2037
   72SLPC  H11A 6256   5.642   4.820  10.653 -0.1946 -1.5301 -1.2454
   72SLPC  H11B 6257   5.557   4.739  10.784 -0.6749 -1.3396 -1.0789
   72SLPC     P 6258   5.655   4.511  10.662  0.1698  0.2789  0.1622
   72SLPC   O13 6259   5.599   4.419  10.762 -0.1251 -0.3954  0.4025
   72SLPC   O14 6260   5.551   4.549  10.558  0.3405 -0.8900 -0.2426
   72SLPC   O12 6261   5.729   4.629  10.715  0.2805  0.2757 -0.2899
   72SLPC   O11 6262   5.756   4.427  10.580  0.4479  0.0845  0.1281
   72SLPC    C1 6263   5.877   4.494  10.527  0.1493 -0.4117 -0.3008
   72SLPC    HA 6264   5.928   4.551  10.607 -0.6753 -0.8166  0.5316
   72SLPC    HB 6265   5.951   4.423  10.485  1.2654  1.2633 -1.2563
   72SLPC    C2 6266   5.838   4.593  10.410 -0.8040  0.2450  0.3075
   72SLPC    HS 6267   5.760   4.664  10.445  0.0075  0.5709  1.5209
   72SLPC   O21 6268   5.793   4.520  10.301  0.0566 -0.2895  0.2082
   72SLPC   C21 6269   5.710   4.578  10.213  0.1612 -0.0443  0.7854
   72SLPC   O22 6270   5.642   4.674  10.224 -0.0906 -0.3794 -0.4664
   72SLPC   C22 6271   5.718   4.489  10.088  0.3783 -0.1641 -0.7010
   72SLPC   H2R 6272   5.808   4.518  10.030 -0.1476 -1.0072 -1.9829
   72SLPC   H2S 6273   5.743   4.390  10.132  4.8965  0.6109 -1.0748
   72SLPC    C3 6274   5.962   4.679  10.375  0.2350 -0.0820 -0.8403
   72SLPC    HX 6275   6.049   4.611  10.375  0.1569 -0.1837 -0.5060
   72SLPC    HY 6276   5.985   4.753  10.454 -2.1890 -0.3390  0.1726
   72SLPC   O31 6277   5.945   4.735  10.243  0.2597 -0.2529 -0.9432
   72SLPC   C31 6278   5.899   4.853  10.230  0.2009 -0.0790 -0.6266
   72SLPC   O32 6279   5.859   4.931  10.318 -0.4951  0.0500 -0.6804
   72SLPC   C32 6280   5.897   4.891  10.083 -0.7342 -0.3755 -0.0579
   72SLPC   H2X 6281   5.848   4.990  10.077  0.9232  0.4568 -0.4679
   72SLPC   H2Y 6282   5.837   4.810  10.035  0.6110 -1.8405  0.6520
   72SLPC   C23 6283   5.597   4.482   9.996  0.5649 -0.5758  0.1442
   72SLPC   H3R 6284   5.575   4.583   9.956 -0.6757 -1.0117 -0.3258
   72SLPC   H3S 6285   5.507   4.450  10.054  0.2316  1.0697  0.5940
   72SLPC   C24 6286   5.635   4.386   9.887  0.0564 -0.6615  0.2521
   72SLPC   H4R 6287   5.541   4.359   9.834  0.2261 -2.7975  0.9189
   72SLPC   H4S 6288   5.659   4.289   9.936 -1.6027 -0.1346  2.2196
   72SLPC   C25 6289   5.740   4.448   9.794  0.5440  0.2478 -0.8751
   72SLPC   H5R 6290   5.841   4.459   9.839 -0.5637  1.2053  1.5644
   72SLPC   H5S 6291   5.717   4.555   9.775  1.1441  0.8101  1.2408
   72SLPC   C26 6292   5.734   4.383   9.654  0.6085  0.2649 -0.1816
   72SLPC   H6R 6293   5.625   4.386   9.631  0.1215 -0.7821  1.7696
   72SLPC   H6S 6294   5.774   4.280   9.655  2.6894  1.0186 -0.9516
   72SLPC   C27 6295   5.818   4.449   9.546  0.2073  0.4488  0.1909
   72SLPC   H7R 6296   5.916   4.476   9.591  1.1775  1.7916 -2.5490
   72SLPC   H7S 6297   5.775   4.543   9.506 -1.9431 -0.5018  0.1276
   72SLPC   C28 6298   5.845   4.355   9.427  0.4882  0.1176  0.1443
   72SLPC   H8R 6299   5.923   4.280   9.452 -1.2702 -1.5710  0.8272
   72SLPC   H8S 6300   5.891   4.421   9.350 -1.6231  0.9174 -0.5086
   72SLPC   C29 6301   5.727   4.278   9.366  0.1028 -0.3456 -0.4780
   72SLPC   H9R 6302   5.647   4.241   9.433  2.0675 -1.6286  1.2964
   72SLPC  C210 6303   5.706   4.239   9.242  0.1372  0.1860 -0.2332
   72SLPC  H10R 6304   5.623   4.168   9.227  1.3498 -1.5215  0.8002
   72SLPC  C211 6305   5.789   4.259   9.119  0.5180  0.0561  0.2382
   72SLPC  H11R 6306   5.824   4.365   9.117  0.7238  0.0418  1.7724
   72SLPC  H11S 6307   5.720   4.244   9.033 -0.1343  1.8074  0.4079
   72SLPC  C212 6308   5.921   4.185   9.112  0.0013  0.4074 -0.5394
   72SLPC  H12R 6309   5.952   4.141   9.207 -0.3384  2.9674  0.8409
   72SLPC  C213 6310   6.003   4.169   9.008 -0.1233 -0.1812 -0.7045
   72SLPC  H13R 6311   6.087   4.100   9.025 -1.9399 -1.6327  4.0623
   72SLPC  C214 6312   5.983   4.222   8.866 -0.8827 -0.4221  0.0453
   72SLPC  H14R 6313   6.064   4.294   8.845 -0.0303 -1.5023 -0.4741
   72SLPC  H14S 6314   5.884   4.273   8.862 -0.7804 -0.2874 -1.9663
   72SLPC  C215 6315   5.975   4.109   8.754  0.0110 -0.6741 -0.2916
   72SLPC  H15R 6316   5.878   4.059   8.771 -0.2191  0.3002  1.4286
   72SLPC  H15S 6317   6.055   4.031   8.756 -1.3838 -2.1736 -0.7632
   72SLPC  C216 6318   5.980   4.184   8.627  0.3487 -0.2715 -0.2212
   72SLPC  H16R 6319   6.075   4.241   8.617  0.1200  0.0645 -0.5044
   72SLPC  H16S 6320   5.897   4.258   8.619 -0.5704 -1.1546  0.8781
   72SLPC  C217 6321   5.963   4.083   8.513 -1.2610  0.4066  0.3634
   72SLPC  H17R 6322   5.854   4.062   8.504 -1.3430  0.3667  1.3153
   72SLPC  H17S 6323   6.006   3.985   8.541  0.5372  1.1819  0.4449
   72SLPC  C218 6324   6.009   4.139   8.372  0.1765 -0.3058 -0.0515
   72SLPC  H18R 6325   5.977   4.069   8.291 -1.3529  0.6268 -0.2958
   72SLPC  H18S 6326   6.119   4.131   8.369  0.1656 -1.2468  1.2119
   72SLPC  H18T 6327   5.968   4.241   8.359  2.4324  0.5731 -0.7363
   72SLPC   C33 6328   6.038   4.890  10.020  0.3055 -0.2866  0.2080
   72SLPC   H3X 6329   6.076   4.786  10.015 -0.3555 -0.4912 -0.8475
   72SLPC   H3Y 6330   6.102   4.945  10.093 -1.3256  1.2215  0.5783
   72SLPC   C34 6331   6.039   4.971   9.887 -0.0166 -0.9992  0.3381
   72SLPC   H4X 6332   6.139   5.015   9.867 -0.7335  0.3053 -0.4787
   72SLPC   H4Y 6333   5.956   5.046   9.885 -0.6557 -1.6917  0.4599
   72SLPC   C35 6334   5.982   4.895   9.765  0.1969 -0.1435  0.9351
   72SLPC   H5X 6335   5.879   4.866   9.794 -0.6980  1.6145 -0.2739
   72SLPC   H5Y 6336   6.041   4.806   9.735 -0.2287 -0.4809  1.0880
   72SLPC   C36 6337   5.977   4.988   9.633 -0.3475  0.1456 -0.8702
   72SLPC   H6X 6338   6.082   5.014   9.607 -0.3375  1.3307  0.2616
   72SLPC   H6Y 6339   5.914   5.077   9.655 -0.5749 -0.0077 -0.8947
   72SLPC   C37 6340   5.902   4.910   9.515 -0.0409 -0.9786  0.8406
   72SLPC   H7X 6341   5.886   4.990   9.440  2.0493 -0.7896  0.5417
   72SLPC   H7Y 6342   5.798   4.879   9.538  0.4114 -1.8507  1.7858
   72SLPC   C38 6343   5.989   4.805   9.447  0.6087  0.2966 -0.2665
   72SLPC   H8X 6344   5.979   4.713   9.509  0.1042 -0.6280 -1.6850
   72SLPC   H8Y 6345   6.096   4.836   9.448  1.2758 -1.8240  0.9071
   72SLPC   C39 6346   5.951   4.765   9.307  0.0358  0.7300 -0.2143
   72SLPC   H9X 6347   5.959   4.857   9.244  1.5416  1.0925  0.4428
   72SLPC   H9Y 6348   5.843   4.742   9.317  0.4240 -0.4835  1.8607
   72SLPC  C310 6349   6.027   4.651   9.234 -0.1557  0.6455 -0.0476
   72SLPC  H10X 6350   6.053   4.566   9.300  0.2730 -0.6564 -1.8169
   72SLPC  H10Y 6351   6.122   4.701   9.208 -0.7664  1.3398 -1.0018
   72SLPC  C311 6352   5.946   4.606   9.113 -0.1443 -0.1626  0.7872
   72SLPC  H11X 6353   5.842   4.595   9.150  0.1587  0.9159  2.0645
   72SLPC  H11Y 6354   5.979   4.504   9.085 -2.3852 -0.4061 -1.2507
   72SLPC  C312 6355   5.949   4.694   8.989  0.1353  1.0098  0.4404
   72SLPC  H12X 6356   6.048   4.744   8.983  0.2531  0.9396  1.4931
   72SLPC  H12Y 6357   5.879   4.779   9.004 -1.9345 -0.6564  0.6832
   72SLPC  C313 6358   5.924   4.608   8.861  0.6978 -0.5192 -0.2447
   72SLPC  H13X 6359   5.995   4.523   8.863  1.9127  0.4739  0.7593
   72SLPC  H13Y 6360   5.926   4.664   8.765 -3.0008  0.9810  0.3863
   72SLPC  C314 6361   5.774   4.558   8.860 -0.1556 -0.2483  0.7798
   72SLPC  H14X 6362   5.707   4.647   8.870 -1.2461 -0.7751 -1.3378
   72SLPC  H14Y 6363   5.772   4.501   8.955  0.7625  1.6965  2.0461
   72SLPC  C315 6364   5.733   4.485   8.733  1.0201  0.7415  0.1923
   72SLPC  H15X 6365   5.634   4.440   8.754  1.4413 -0.6079 -0.5432
   72SLPC  H15Y 6366   5.802   4.405   8.700 -0.6867 -0.7054 -0.0232
   72SLPC  C316 6367   5.728   4.576   8.607  0.3830  0.0162 -0.1375
   72SLPC  H16X 6368   5.830   4.609   8.580 -0.7119  2.4111 -1.6570
   72SLPC  H16Y 6369   5.656   4.657   8.631  0.6548 -0.1306  1.2301
   72SLPC  C317 6370   5.665   4.515   8.480 -0.0795  0.0100  0.1789
   72SLPC  H17X 6371   5.628   4.597   8.415  0.5504 -1.0892 -1.6513
   72SLPC  H17Y 6372   5.580   4.448   8.505  0.5108 -1.1974 -0.9123
   72SLPC  C318 6373   5.760   4.439   8.385  0.3420 -0.2572  0.2611
   72SLPC  H18X 6374   5.825   4.518   8.341 -1.8959  1.7001  0.2781
   72SLPC  H18Y 6375   5.707   4.383   8.305  1.7253 -1.1008 -0.0917
   72SLPC  H18Z 6376   5.826   4.378   8.450 -0.0558  0.2070  1.1303
   73SLPC     N 6377   4.867   4.750  10.656  0.6580  0.6849  0.4050
   73SLPC   C13 6378   4.919   4.815  10.782  0.3852  0.2733 -0.2707
   73SLPC  H13A 6379   4.972   4.751  10.851 -1.2265 -0.0029  0.7728
   73SLPC  H13B 6380   4.998   4.885  10.760  1.5891 -0.6734  0.8571
   73SLPC  H13C 6381   4.848   4.873  10.840 -0.7669 -2.0648  0.7973
   73SLPC   C14 6382   4.766   4.642  10.687 -0.2882  0.2776  0.3319
   73SLPC  H14A 6383   4.810   4.557  10.737  0.4311  0.7877  0.5972
   73SLPC  H14B 6384   4.680   4.680  10.740 -0.8053  1.6878 -1.4384
   73SLPC  H14C 6385   4.732   4.600  10.594  2.1424  2.8990 -1.9095
   73SLPC   C15 6386   4.979   4.686  10.572  0.2110  0.8174  0.1475
   73SLPC  H15A 6387   5.009   4.590  10.613 -1.2419 -0.3478 -1.4193
   73SLPC  H15B 6388   4.933   4.674  10.475 -0.3449  3.0556  0.1010
   73SLPC  H15C 6389   5.064   4.752  10.565  0.5158  0.8869  3.1472
   73SLPC   C12 6390   4.782   4.851  10.580 -0.2814  1.0079 -0.1610
   73SLPC  H12A 6391   4.693   4.862  10.640  0.1514 -2.7060  1.3936
   73SLPC  H12B 6392   4.745   4.797  10.494  2.1106  0.2610 -0.7969
   73SLPC   C11 6393   4.835   4.991  10.539  0.0135 -0.1390 -0.1392
   73SLPC  H11A 6394   4.752   5.023  10.472  0.2181  0.3430 -0.1714
   73SLPC  H11B 6395   4.915   4.974  10.463 -1.1571  0.5380 -1.5777
   73SLPC     P 6396   4.756   5.167  10.717  0.2481 -0.1294 -0.0075
   73SLPC   O13 6397   4.641   5.078  10.737  0.0180 -0.5454 -0.3556
   73SLPC   O14 6398   4.807   5.231  10.838  0.5003 -0.2975  0.1635
   73SLPC   O12 6399   4.869   5.076  10.651 -0.0171 -0.1524 -0.1432
   73SLPC   O11 6400   4.739   5.266  10.596 -0.1537 -0.0865 -0.0021
   73SLPC    C1 6401   4.850   5.344  10.546  1.1424 -0.3680 -0.3667
   73SLPC    HA 6402   4.845   5.435  10.609  1.1228 -0.3912 -0.3356
   73SLPC    HB 6403   4.951   5.299  10.549  1.4854  0.3157 -1.3338
   73SLPC    C2 6404   4.826   5.392  10.399  0.6072 -0.3019 -0.4629
   73SLPC    HS 6405   4.722   5.430  10.394  0.3467 -0.5617  2.0377
   73SLPC   O21 6406   4.832   5.277  10.318  0.7581 -0.1515  0.1751
   73SLPC   C21 6407   4.743   5.267  10.221 -0.0734  0.1835 -0.1811
   73SLPC   O22 6408   4.657   5.349  10.197  0.5395 -0.1651 -0.2483
   73SLPC   C22 6409   4.769   5.132  10.141  0.5841 -0.7595  0.3115
   73SLPC   H2R 6410   4.864   5.140  10.083  0.5834  0.8731  0.4898
   73SLPC   H2S 6411   4.778   5.049  10.213  1.6805 -1.2598 -0.3737
   73SLPC    C3 6412   4.925   5.502  10.360 -0.3434  0.0384 -0.0123
   73SLPC    HX 6413   5.029   5.476  10.385 -0.5432 -1.3237 -0.4889
   73SLPC    HY 6414   4.891   5.592  10.416  0.6614  0.5397 -0.2013
   73SLPC   O31 6415   4.932   5.521  10.215 -0.4487  0.3652 -0.2540
   73SLPC   C31 6416   4.868   5.626  10.167  0.2372  0.2082 -0.0349
   73SLPC   O32 6417   4.791   5.698  10.222  0.2201 -0.3801  0.1393
   73SLPC   C32 6418   4.900   5.634  10.015 -0.5477 -0.2167  0.0968
   73SLPC   H2X 6419   5.011   5.640  10.007 -0.7315  2.7840 -1.5944
   73SLPC   H2Y 6420   4.854   5.731   9.987 -0.2985 -0.8856 -2.9922
   73SLPC   C23 6421   4.654   5.104  10.050 -0.4723  0.4212  0.0662
   73SLPC   H3R 6422   4.643   5.183   9.973  0.6169 -1.5115 -2.1645
   73SLPC   H3S 6423   4.565   5.108  10.117 -1.2483 -0.3918 -0.8995
   73SLPC   C24 6424   4.647   4.965   9.980 -0.1153 -0.4771 -0.3143
   73SLPC   H4R 6425   4.646   4.881  10.052  1.5693 -0.7212 -0.5261
   73SLPC   H4S 6426   4.749   4.955   9.936  0.4004  0.3861  0.6416
   73SLPC   C25 6427   4.536   4.952   9.876 -0.7891 -1.0887  0.7619
   73SLPC   H5R 6428   4.438   4.954   9.928 -1.0240 -4.5423  0.7198
   73SLPC   H5S 6429   4.537   4.850   9.831 -1.9041 -0.7410 -0.1064
   73SLPC   C26 6430   4.531   5.048   9.759 -0.2526 -0.2759  0.5947
   73SLPC   H6R 6431   4.481   5.140   9.797 -0.7115 -0.6310  0.8565
   73SLPC   H6S 6432   4.463   5.004   9.683 -0.2928 -3.0336  2.0918
   73SLPC   C27 6433   4.665   5.069   9.687 -0.6844 -0.2309 -0.2493
   73SLPC   H7R 6434   4.734   5.137   9.742 -1.4834  0.5761 -0.2077
   73SLPC   H7S 6435   4.653   5.126   9.592 -0.1548  0.0587 -0.1441
   73SLPC   C28 6436   4.744   4.932   9.652 -0.6834  0.0504 -0.3864
   73SLPC   H8R 6437   4.672   4.861   9.606 -2.6840  1.5364  0.3056
   73SLPC   H8S 6438   4.772   4.887   9.750  0.9900 -0.2560 -0.9691
   73SLPC   C29 6439   4.860   4.963   9.568  0.0024  0.4147  0.1498
   73SLPC   H9R 6440   4.949   4.993   9.626 -1.6591 -1.4207  3.9851
   73SLPC  C210 6441   4.868   4.953   9.435 -0.4907 -0.3953  0.1104
   73SLPC  H10R 6442   4.959   4.992   9.386 -0.9138 -2.3274 -2.3976
   73SLPC  C211 6443   4.762   4.918   9.338  0.2532  0.4915 -0.4633
   73SLPC  H11R 6444   4.688   4.853   9.391 -1.1433  2.2836 -0.0836
   73SLPC  H11S 6445   4.813   4.869   9.253  0.5785 -1.1290  0.6078
   73SLPC  C212 6446   4.683   5.038   9.301 -0.3904  0.1971  0.8941
   73SLPC  H12R 6447   4.662   5.114   9.377  0.7695  1.0769  0.3658
   73SLPC  C213 6448   4.668   5.092   9.174  0.1518 -0.7614  0.1470
   73SLPC  H13R 6449   4.616   5.189   9.167  2.0412  0.3566  0.8947
   73SLPC  C214 6450   4.722   5.032   9.042  0.1243 -0.0972 -0.2422
   73SLPC  H14R 6451   4.726   4.921   9.048 -0.9078 -0.0769  1.3259
   73SLPC  H14S 6452   4.825   5.071   9.029 -0.2177  0.1294 -3.0124
   73SLPC  C215 6453   4.648   5.076   8.918  0.1148  0.4762  0.5281
   73SLPC  H15R 6454   4.674   5.182   8.897  0.0720  0.3291 -0.3011
   73SLPC  H15S 6455   4.538   5.070   8.937 -0.2245 -0.4889 -1.4992
   73SLPC  C216 6456   4.691   4.999   8.790 -0.2679  0.1025  0.1167
   73SLPC  H16R 6457   4.621   5.003   8.704 -1.0174 -2.1642  0.5453
   73SLPC  H16S 6458   4.697   4.892   8.821  1.3327  0.6105  1.7727
   73SLPC  C217 6459   4.829   5.038   8.755 -0.9887  0.1307  0.2037
   73SLPC  H17R 6460   4.870   4.958   8.690 -0.9757  0.1805  0.1515
   73SLPC  H17S 6461   4.899   5.045   8.841  2.9503 -2.7060 -2.4565
   73SLPC  C218 6462   4.836   5.167   8.674 -0.5351 -0.3346 -0.2830
   73SLPC  H18R 6463   4.757   5.162   8.597 -1.9546 -0.6630  1.1320
   73SLPC  H18S 6464   4.935   5.175   8.624 -0.5711  0.2375 -0.2683
   73SLPC  H18T 6465   4.811   5.260   8.729  0.7771 -0.8915  1.3443
   73SLPC   C33 6466   4.840   5.516   9.935  0.0195  1.0020  0.2617
   73SLPC   H3X 6467   4.730   5.522   9.948  0.0630  0.1303  1.1404
   73SLPC   H3Y 6468   4.876   5.414   9.960 -1.7564 -0.0096 -1.0490
   73SLPC   C34 6469   4.873   5.553   9.785  0.0808  0.0324 -0.7463
   73SLPC   H4X 6470   4.983   5.558   9.769  0.9632 -0.7861  3.6860
   73SLPC   H4Y 6471   4.830   5.652   9.762 -2.9869 -1.6035 -2.8142
   73SLPC   C35 6472   4.813   5.445   9.692  0.0683 -0.5299  0.3186
   73SLPC   H5X 6473   4.704   5.433   9.715  0.0977 -0.9333  0.2654
   73SLPC   H5Y 6474   4.855   5.344   9.713  2.1863  0.5605  1.5829
   73SLPC   C36 6475   4.831   5.473   9.543  0.5584  0.8454 -0.6494
   73SLPC   H6X 6476   4.792   5.392   9.478  2.2542 -1.5582  1.1815
   73SLPC   H6Y 6477   4.940   5.471   9.525  0.4313 -0.0299 -1.3772
   73SLPC   C37 6478   4.769   5.608   9.501  0.2806 -0.1637 -0.6664
   73SLPC   H7X 6479   4.785   5.679   9.585  0.2252 -2.0277  0.9812
   73SLPC   H7Y 6480   4.659   5.602   9.492  0.2637 -0.4986 -0.2558
   73SLPC   C38 6481   4.838   5.668   9.382 -0.0734 -0.0562  0.3198
   73SLPC   H8X 6482   4.944   5.676   9.414  1.2814  1.9872 -3.9188
   73SLPC   H8Y 6483   4.802   5.772   9.362 -1.6788 -0.8828 -1.4565
   73SLPC   C39 6484   4.828   5.584   9.254 -0.4520 -0.7935  0.4251
   73SLPC   H9X 6485   4.738   5.519   9.265 -1.0987  0.0715  0.4200
   73SLPC   H9Y 6486   4.919   5.521   9.250  0.8540  1.0278  0.3534
   73SLPC  C310 6487   4.845   5.670   9.136 -0.1005  0.6099 -0.7158
   73SLPC  H10X 6488   4.946   5.717   9.126  1.2845 -1.9810  0.2209
   73SLPC  H10Y 6489   4.764   5.746   9.136 -0.9471 -0.2623 -1.5845
   73SLPC  C311 6490   4.818   5.578   9.014  0.2570  0.6802 -0.2955
   73SLPC  H11X 6491   4.744   5.499   9.042  2.0770 -0.7867  0.5881
   73SLPC  H11Y 6492   4.913   5.530   8.981 -2.2982 -2.8662 -3.4110
   73SLPC  C312 6493   4.756   5.647   8.897 -0.3960  0.0943 -0.1123
   73SLPC  H12X 6494   4.803   5.746   8.881  1.5722 -0.9067 -0.8885
   73SLPC  H12Y 6495   4.648   5.665   8.917 -0.3901 -0.5855  0.5713
   73SLPC  C313 6496   4.744   5.553   8.771 -0.6791 -0.1955 -0.0020
   73SLPC  H13X 6497   4.703   5.456   8.805 -0.1128 -0.5409 -0.2937
   73SLPC  H13Y 6498   4.850   5.543   8.741 -0.3582 -0.9517  1.2916
   73SLPC  C314 6499   4.649   5.610   8.658  0.2179 -0.0660  0.0820
   73SLPC  H14X 6500   4.689   5.708   8.627 -1.8918  1.2643  1.2684
   73SLPC  H14Y 6501   4.548   5.640   8.694  0.4293 -0.0296  0.6479
   73SLPC  C315 6502   4.649   5.524   8.535  0.8047 -0.4972 -0.3124
   73SLPC  H15X 6503   4.620   5.424   8.574  1.5000 -0.8692 -0.7320
   73SLPC  H15Y 6504   4.752   5.538   8.495  0.3371  0.9182 -1.1248
   73SLPC  C316 6505   4.545   5.573   8.427  1.4967  0.4037  0.0495
   73SLPC  H16X 6506   4.584   5.668   8.386  1.1577 -0.6774 -3.0649
   73SLPC  H16Y 6507   4.444   5.592   8.470 -0.3542 -2.5607 -2.4762
   73SLPC  C317 6508   4.527   5.462   8.324 -0.0691 -0.6825 -0.5027
   73SLPC  H17X 6509   4.485   5.368   8.367  0.5553 -0.1486  1.3498
   73SLPC  H17Y 6510   4.627   5.433   8.284  1.0834 -0.1667  1.8243
   73SLPC  C318 6511   4.439   5.507   8.211  0.3206 -0.7635 -0.4324
   73SLPC  H18X 6512   4.420   5.427   8.136  0.4965 -0.5177 -0.7467
   73SLPC  H18Y 6513   4.477   5.601   8.166 -0.9214  0.3867  0.8369
   73SLPC  H18Z 6514   4.338   5.540   8.245  0.6171  2.4188 -2.1896
   74SLPC     N 6515   6.230   0.971  10.577 -0.3313  0.0689  0.4604
   74SLPC   C13 6516   6.325   0.857  10.581  0.0068 -0.1222 -0.3360
   74SLPC  H13A 6517   6.335   0.814  10.482 -0.4744 -3.7182  1.0274
   74SLPC  H13B 6518   6.428   0.879  10.604 -0.3109  0.1355  0.8809
   74SLPC  H13C 6519   6.297   0.783  10.654  1.6235 -2.2032 -1.6729
   74SLPC   C14 6520   6.240   1.045  10.709  0.1576  0.0305 -0.2957
   74SLPC  H14A 6521   6.179   1.133  10.700 -1.2195 -0.7993  0.5627
   74SLPC  H14B 6522   6.190   0.980  10.780  2.0836  1.0033  2.0947
   74SLPC  H14C 6523   6.344   1.068  10.726 -0.0162 -0.8174  2.3360
   74SLPC   C15 6524   6.088   0.927  10.554  0.4522  0.2346  0.1511
   74SLPC  H15A 6525   6.017   1.004  10.580 -2.1075 -1.6154 -0.8996
   74SLPC  H15B 6526   6.071   0.888  10.454 -2.0541  0.9071  0.2357
   74SLPC  H15C 6527   6.068   0.846  10.622  1.7166 -1.2752 -1.2069
   74SLPC   C12 6528   6.265   1.059  10.458  0.9100  0.8559 -0.1071
   74SLPC  H12A 6529   6.192   1.138  10.464 -1.7129 -1.4373  0.3671
   74SLPC  H12B 6530   6.269   1.004  10.365 -0.4064  2.7518 -1.3719
   74SLPC   C11 6531   6.399   1.137  10.465 -0.0198  0.7279 -0.3776
   74SLPC  H11A 6532   6.410   1.170  10.359 -2.2302  0.7457 -0.6558
   74SLPC  H11B 6533   6.486   1.071  10.479 -1.5899 -1.1142  1.3359
   74SLPC     P 6534   6.407   1.395  10.532  0.4597 -0.2232  0.3478
   74SLPC   O13 6535   6.273   1.435  10.487 -0.2709  0.1004 -0.5054
   74SLPC   O14 6536   6.470   1.463  10.651 -0.6324  0.0619  0.5973
   74SLPC   O12 6537   6.400   1.242  10.560  0.3565  0.3893  0.7640
   74SLPC   O11 6538   6.509   1.386  10.412  0.5324 -0.2035  0.1862
   74SLPC    C1 6539   6.495   1.470  10.297 -1.0057 -0.3109 -0.6738
   74SLPC    HA 6540   6.394   1.517  10.291  0.1803  2.5067 -0.2361
   74SLPC    HB 6541   6.561   1.559  10.308  0.0327 -1.2608  1.4743
   74SLPC    C2 6542   6.533   1.396  10.169  0.3170 -0.0483  0.2202
   74SLPC    HS 6543   6.532   1.457  10.076  0.1132 -5.2727 -3.6520
   74SLPC   O21 6544   6.432   1.296  10.145  0.2585 -0.4835  0.0134
   74SLPC   C21 6545   6.315   1.346  10.096 -0.1703 -0.2064  0.6270
   74SLPC   O22 6546   6.298   1.460  10.064  0.3781 -0.7508 -0.1163
   74SLPC   C22 6547   6.215   1.236  10.106 -0.0774  0.6641 -0.2581
   74SLPC   H2R 6548   6.218   1.195  10.209  1.3651  1.7539  0.1749
   74SLPC   H2S 6549   6.119   1.291  10.093 -0.4820 -0.1388 -0.7733
   74SLPC    C3 6550   6.673   1.329  10.166 -0.1111  0.7038 -0.4945
   74SLPC    HX 6551   6.675   1.240  10.233 -1.0885  0.6314 -0.5523
   74SLPC    HY 6552   6.749   1.396  10.212  0.7333 -0.8815  0.5445
   74SLPC   O31 6553   6.709   1.304  10.023 -0.3856 -0.0538  0.7890
   74SLPC   C31 6554   6.676   1.188   9.981 -0.5245  0.6276  0.9781
   74SLPC   O32 6555   6.607   1.102  10.043 -0.1223 -0.7910 -0.1899
   74SLPC   C32 6556   6.734   1.160   9.844  0.4075 -0.0099  0.5265
   74SLPC   H2X 6557   6.829   1.104   9.856  0.5566 -0.0404 -0.7347
   74SLPC   H2Y 6558   6.749   1.257   9.791  1.5253  0.5445  1.7827
   74SLPC   C23 6559   6.225   1.134   9.987  0.2573 -0.7314 -0.6339
   74SLPC   H3R 6560   6.134   1.072   9.999  0.2685 -0.3686  1.7124
   74SLPC   H3S 6561   6.317   1.072   9.990  1.3630  0.8824  0.8968
   74SLPC   C24 6562   6.210   1.207   9.849 -0.0467  0.2288 -0.4417
   74SLPC   H4R 6563   6.302   1.269   9.837  0.7809 -1.3685 -3.1463
   74SLPC   H4S 6564   6.123   1.275   9.846 -1.0642 -1.0418 -0.4956
   74SLPC   C25 6565   6.206   1.096   9.743 -0.1781 -0.8577  0.6377
   74SLPC   H5R 6566   6.107   1.047   9.749 -1.3000  0.8894 -1.8903
   74SLPC   H5S 6567   6.291   1.026   9.756 -0.2555 -1.3481 -1.2427
   74SLPC   C26 6568   6.203   1.162   9.601 -1.0230  0.7069  0.3789
   74SLPC   H6R 6569   6.291   1.228   9.587 -0.3304 -0.0965  0.8506
   74SLPC   H6S 6570   6.108   1.219   9.592 -1.4188  0.0856  0.6292
   74SLPC   C27 6571   6.195   1.046   9.500 -0.0822  0.8320  0.4079
   74SLPC   H7R 6572   6.100   0.993   9.523  1.2405 -2.2580 -0.6088
   74SLPC   H7S 6573   6.285   0.983   9.519 -0.1152  0.6641  0.0223
   74SLPC   C28 6574   6.195   1.090   9.353  0.4129 -0.1314  0.2731
   74SLPC   H8R 6575   6.107   1.148   9.320  0.2026  0.9001  2.4841
   74SLPC   H8S 6576   6.201   0.995   9.295  2.8159  1.1074 -1.7288
   74SLPC   C29 6577   6.318   1.164   9.307  0.1155 -0.4143 -0.0419
   74SLPC   H9R 6578   6.401   1.173   9.379 -0.9534 -0.9361  1.2827
   74SLPC  C210 6579   6.329   1.216   9.184 -0.5695  0.0409 -0.2536
   74SLPC  H10R 6580   6.424   1.262   9.153 -0.6278  1.1635  1.1176
   74SLPC  C211 6581   6.228   1.217   9.071  0.3367 -0.3321 -0.6570
   74SLPC  H11R 6582   6.130   1.215   9.123  2.0927 -1.3530  2.9862
   74SLPC  H11S 6583   6.250   1.122   9.016  2.4816 -1.8815  2.5628
   74SLPC  C212 6584   6.230   1.344   8.995 -0.7597 -0.4591 -0.3540
   74SLPC  H12R 6585   6.157   1.416   9.033 -1.4421  0.5426 -3.2982
   74SLPC  C213 6586   6.310   1.380   8.895 -0.0441  0.0743  0.7602
   74SLPC  H13R 6587   6.301   1.482   8.855  0.4599  0.9915  2.8531
   74SLPC  C214 6588   6.415   1.284   8.839  0.0719 -0.0073 -0.2231
   74SLPC  H14R 6589   6.363   1.203   8.783 -0.9618  0.5025 -0.0187
   74SLPC  H14S 6590   6.471   1.228   8.917  1.0791 -1.3560 -1.8401
   74SLPC  C215 6591   6.533   1.344   8.760 -0.7039  0.1556  0.6459
   74SLPC  H15R 6592   6.594   1.403   8.832 -0.6415  3.7076 -2.0318
   74SLPC  H15S 6593   6.501   1.417   8.683 -1.0922 -1.1202 -0.4427
   74SLPC  C216 6594   6.631   1.252   8.687 -0.3162  0.1995  0.0001
   74SLPC  H16R 6595   6.587   1.220   8.590 -0.7236  0.6559  0.0311
   74SLPC  H16S 6596   6.655   1.158   8.741  1.0319  0.9104  0.6923
   74SLPC  C217 6597   6.763   1.323   8.664  0.0070  0.8243  0.7593
   74SLPC  H17R 6598   6.811   1.338   8.763  0.4011 -1.0287  0.8893
   74SLPC  H17S 6599   6.743   1.421   8.615 -0.4305  0.1571 -0.4364
   74SLPC  C218 6600   6.862   1.244   8.575 -0.5028 -0.3072 -0.0944
   74SLPC  H18R 6601   6.853   1.269   8.467  0.3411 -0.3967 -0.1904
   74SLPC  H18S 6602   6.857   1.137   8.607  0.1969 -0.2533  0.1985
   74SLPC  H18T 6603   6.960   1.274   8.618  1.0670  3.6879 -5.3980
   74SLPC   C33 6604   6.650   1.071   9.748  0.3467 -0.2320 -0.1066
   74SLPC   H3X 6605   6.552   1.063   9.800 -0.1491 -0.6165 -1.0821
   74SLPC   H3Y 6606   6.691   0.968   9.752  1.3482  0.1562  4.2059
   74SLPC   C34 6607   6.613   1.128   9.610 -0.1658  0.1455 -0.4371
   74SLPC   H4X 6608   6.569   1.230   9.619 -1.7097 -0.2134 -2.9658
   74SLPC   H4Y 6609   6.546   1.053   9.562  0.2200 -2.2397  2.4672
   74SLPC   C35 6610   6.734   1.141   9.514  0.1133  0.0839  0.0914
   74SLPC   H5X 6611   6.777   1.045   9.476  0.4622 -0.5560  1.9469
   74SLPC   H5Y 6612   6.825   1.186   9.560 -1.4841  2.4095  1.1481
   74SLPC   C36 6613   6.700   1.223   9.388 -0.5625 -0.5898  0.1121
   74SLPC   H6X 6614   6.672   1.326   9.420  0.4478  0.1517 -1.3191
   74SLPC   H6Y 6615   6.605   1.184   9.346 -0.9132  1.0280 -0.6896
   74SLPC   C37 6616   6.814   1.233   9.287 -0.1795  0.3674  1.0120
   74SLPC   H7X 6617   6.839   1.130   9.253  1.7175  1.2782 -0.5594
   74SLPC   H7Y 6618   6.905   1.276   9.334  3.3715 -1.2685 -3.5902
   74SLPC   C38 6619   6.772   1.307   9.155  1.1168  0.2231 -0.3058
   74SLPC   H8X 6620   6.742   1.412   9.178  0.5179  0.8649 -3.4893
   74SLPC   H8Y 6621   6.689   1.247   9.110  0.2878 -0.4313  1.9627
   74SLPC   C39 6622   6.883   1.327   9.039 -0.5060 -0.5736  0.4881
   74SLPC   H9X 6623   6.955   1.398   9.085 -1.3468  1.7352 -1.5507
   74SLPC   H9Y 6624   6.832   1.379   8.955  0.1346  0.7874  0.9049
   74SLPC  C310 6625   6.934   1.186   8.987 -0.0639  0.1227 -0.5190
   74SLPC  H10X 6626   6.855   1.134   8.929  0.0213 -0.6539  0.0511
   74SLPC  H10Y 6627   6.945   1.118   9.074 -1.5438  0.8515  0.2907
   74SLPC  C311 6628   7.070   1.181   8.914  0.0952 -0.2780 -0.0845
   74SLPC  H11X 6629   7.155   1.208   8.980 -0.0875  0.6627 -0.2129
   74SLPC  H11Y 6630   7.074   1.251   8.827  0.2883 -0.3330 -0.1206
   74SLPC  C312 6631   7.104   1.050   8.848  0.3960 -0.3929  0.2904
   74SLPC  H12X 6632   7.024   1.012   8.781 -1.2283  1.3175  1.1915
   74SLPC  H12Y 6633   7.119   0.986   8.938  1.4263  0.5751  0.8221
   74SLPC  C313 6634   7.237   1.058   8.774  0.3174  0.5890 -0.5843
   74SLPC  H13X 6635   7.309   1.097   8.849  1.3858 -0.2437 -1.1466
   74SLPC  H13Y 6636   7.221   1.134   8.695  1.1687 -1.6915 -3.1146
   74SLPC  C314 6637   7.275   0.928   8.699  0.1955 -0.7383  0.6383
   74SLPC  H14X 6638   7.189   0.864   8.668  1.1702 -1.1673 -1.3429
   74SLPC  H14Y 6639   7.342   0.860   8.756  1.0281 -0.1515  0.3768
   74SLPC  C315 6640   7.356   0.966   8.566 -0.1300 -0.0718  0.1517
   74SLPC  H15X 6641   7.455   1.015   8.581 -0.5260  0.2252  1.9803
   74SLPC  H15Y 6642   7.308   1.045   8.503  0.6561 -0.8463 -1.4679
   74SLPC  C316 6643   7.379   0.839   8.483  0.0463 -0.8096  0.1346
   74SLPC  H16X 6644   7.384   0.878   8.379  2.3686 -0.2288  0.4220
   74SLPC  H16Y 6645   7.295   0.766   8.491 -0.3115 -0.2278  2.2168
   74SLPC  C317 6646   7.509   0.769   8.513  0.0251  0.2651  0.5362
   74SLPC  H17X 6647   7.510   0.730   8.617 -1.3566  4.1968  2.2241
   74SLPC  H17Y 6648   7.587   0.846   8.498  0.3737  0.1116  1.4884
   74SLPC  C318 6649   7.540   0.639   8.433  0.3122 -0.7266  0.6945
   74SLPC  H18X 6650   7.577   0.666   8.332  1.1364  2.1416  1.6749
   74SLPC  H18Y 6651   7.452   0.574   8.416 -0.6561  0.8405 -0.5787
   74SLPC  H18Z 6652   7.621   0.584   8.485  0.1778 -0.7221  0.9134
   75SLPC     N 6653   2.355   1.640   6.504  0.6024  0.7083  0.6781
   75SLPC   C13 6654   2.235   1.730   6.498 -0.3311  0.5143 -0.0750
   75SLPC  H13A 6655   2.144   1.699   6.546 -0.9402  2.1000 -0.1739
   75SLPC  H13B 6656   2.262   1.824   6.542  0.1053  0.0186  0.7351
   75SLPC  H13C 6657   2.203   1.755   6.398 -0.4274  0.2894 -0.0998
   75SLPC   C14 6658   2.449   1.665   6.391 -0.5927 -0.3446  0.0230
   75SLPC  H14A 6659   2.478   1.769   6.400 -1.9379  0.0307  0.2452
   75SLPC  H14B 6660   2.535   1.604   6.413 -2.0344 -2.6682 -0.4838
   75SLPC  H14C 6661   2.405   1.647   6.294 -0.2563 -1.6937  0.0981
   75SLPC   C15 6662   2.303   1.497   6.485 -0.3310 -0.2715  0.5683
   75SLPC  H15A 6663   2.379   1.420   6.484 -0.8423 -0.7943  0.9972
   75SLPC  H15B 6664   2.236   1.462   6.562 -2.1985 -0.9072 -1.2523
   75SLPC  H15C 6665   2.239   1.493   6.398 -1.7084 -0.7347  1.5579
   75SLPC   C12 6666   2.420   1.655   6.637  0.6541 -0.1706  0.5052
   75SLPC  H12A 6667   2.511   1.598   6.628  0.3032 -0.7558  0.5898
   75SLPC  H12B 6668   2.353   1.606   6.707 -2.1486 -0.1096 -1.9457
   75SLPC   C11 6669   2.455   1.800   6.677  0.3570  0.9448  0.1585
   75SLPC  H11A 6670   2.498   1.787   6.779 -0.5187 -1.3568  0.2807
   75SLPC  H11B 6671   2.366   1.866   6.690  2.4096  4.1704 -0.8650
   75SLPC     P 6672   2.706   1.828   6.599  0.1861  0.0050 -0.1344
   75SLPC   O13 6673   2.723   1.689   6.553 -0.1314 -0.4046 -0.1688
   75SLPC   O14 6674   2.773   1.931   6.517 -0.1953 -0.7040 -0.1476
   75SLPC   O12 6675   2.554   1.868   6.598 -0.8106 -0.3827 -0.0024
   75SLPC   O11 6676   2.760   1.841   6.753 -0.7172  0.1769  0.1604
   75SLPC    C1 6677   2.786   1.976   6.801 -0.4333 -0.0732  0.2648
   75SLPC    HA 6678   2.730   2.052   6.744  4.2126  1.9912 -2.0608
   75SLPC    HB 6679   2.760   1.987   6.909  1.0783  1.9083  0.4790
   75SLPC    C2 6680   2.935   2.021   6.791 -0.2825 -0.0204 -0.5498
   75SLPC    HS 6681   2.975   1.980   6.696  0.1875  0.8735 -0.7566
   75SLPC   O21 6682   3.010   1.983   6.910  0.2749  0.1661  0.9024
   75SLPC   C21 6683   3.076   1.871   6.906  0.1876  0.4259 -0.8648
   75SLPC   O22 6684   3.070   1.785   6.818  0.4423 -0.3258  0.1545
   75SLPC   C22 6685   3.156   1.853   7.031  0.3338 -0.1059  0.4886
   75SLPC   H2R 6686   3.155   1.744   7.052  1.5450 -0.2799 -0.2626
   75SLPC   H2S 6687   3.263   1.882   7.017  0.0364  1.2102  0.8459
   75SLPC    C3 6688   2.938   2.177   6.783 -0.2287 -0.0037  0.7373
   75SLPC    HX 6689   2.863   2.195   6.703  2.0575  1.9252 -1.0962
   75SLPC    HY 6690   3.040   2.212   6.759 -0.1707 -0.8576 -0.3366
   75SLPC   O31 6691   2.892   2.238   6.902  0.4264  0.1312 -0.4110
   75SLPC   C31 6692   2.963   2.345   6.959 -0.0943  0.1701  0.3464
   75SLPC   O32 6693   3.073   2.375   6.928 -0.2368  0.1908  0.3985
   75SLPC   C32 6694   2.882   2.410   7.065 -0.0110  0.1087 -0.1465
   75SLPC   H2X 6695   2.775   2.414   7.033  0.0375  1.7191 -0.2162
   75SLPC   H2Y 6696   2.896   2.520   7.055 -0.2786  0.3269  1.4904
   75SLPC   C23 6697   3.094   1.927   7.153 -0.6353  0.6013  0.5562
   75SLPC   H3R 6698   2.991   1.892   7.175 -0.5092  1.2051  2.2544
   75SLPC   H3S 6699   3.090   2.034   7.121 -0.3037  0.4381 -0.0537
   75SLPC   C24 6700   3.177   1.908   7.285  0.1596  0.3719  0.4586
   75SLPC   H4R 6701   3.173   1.803   7.321  2.0730  0.2116  0.2997
   75SLPC   H4S 6702   3.124   1.975   7.356  0.2559  0.4214  0.4842
   75SLPC   C25 6703   3.314   1.976   7.277  0.4906 -0.0531 -0.0321
   75SLPC   H5R 6704   3.289   2.080   7.246 -0.9614 -0.2170  0.5003
   75SLPC   H5S 6705   3.369   1.918   7.201  0.5643  0.2588 -0.2181
   75SLPC   C26 6706   3.389   1.998   7.414  0.2402 -0.2966  0.0053
   75SLPC   H6R 6707   3.486   2.051   7.403  0.9445 -1.5307  0.0389
   75SLPC   H6S 6708   3.413   1.895   7.449 -1.7939 -0.4349  1.1285
   75SLPC   C27 6709   3.304   2.074   7.515 -0.1797  0.7641  0.2813
   75SLPC   H7R 6710   3.205   2.026   7.534 -1.0975  2.0188 -1.2062
   75SLPC   H7S 6711   3.282   2.168   7.461  0.3486  0.3536 -0.6778
   75SLPC   C28 6712   3.379   2.085   7.656 -0.4262 -0.3303  0.2665
   75SLPC   H8R 6713   3.311   2.149   7.717  0.4433  0.4032  0.4866
   75SLPC   H8S 6714   3.472   2.144   7.640  0.9755 -2.4286  0.3521
   75SLPC   C29 6715   3.420   1.963   7.733 -0.3975  0.2935 -0.0260
   75SLPC   H9R 6716   3.449   1.870   7.682 -1.0722 -1.1513  2.0841
   75SLPC  C210 6717   3.434   1.957   7.870 -0.4748 -0.2048  0.3528
   75SLPC  H10R 6718   3.450   1.857   7.913  1.6555  1.4930  3.9414
   75SLPC  C211 6719   3.414   2.065   7.973  0.7934  0.5079  0.6986
   75SLPC  H11R 6720   3.304   2.064   7.993  0.8094  0.3370  0.7850
   75SLPC  H11S 6721   3.433   2.163   7.924 -3.4790  2.3164  2.1927
   75SLPC  C212 6722   3.482   2.045   8.103 -0.4800  0.0833 -0.4784
   75SLPC  H12R 6723   3.580   2.096   8.107  0.3941 -1.4432 -1.5015
   75SLPC  C213 6724   3.436   1.974   8.204  0.3061 -0.1343 -0.4872
   75SLPC  H13R 6725   3.497   1.969   8.295 -1.9212 -0.4311  1.0835
   75SLPC  C214 6726   3.296   1.908   8.218 -0.2161 -0.1631 -0.5783
   75SLPC  H14R 6727   3.273   1.839   8.134 -3.8442  2.7674 -2.2562
   75SLPC  H14S 6728   3.212   1.980   8.206 -2.1261 -1.7306  2.2565
   75SLPC  C215 6729   3.290   1.841   8.361  0.3242  0.3929  0.8428
   75SLPC  H15R 6730   3.373   1.770   8.380 -0.0804 -0.5046 -0.5869
   75SLPC  H15S 6731   3.201   1.775   8.361  0.7986 -0.2910 -0.2908
   75SLPC  C216 6732   3.256   1.938   8.471  0.3497  0.8455 -0.1231
   75SLPC  H16R 6733   3.169   2.004   8.447 -0.4111  1.7542  4.3223
   75SLPC  H16S 6734   3.339   2.010   8.482  0.1652  0.8742  1.2791
   75SLPC  C217 6735   3.219   1.872   8.605  0.1544  0.0601  0.0106
   75SLPC  H17R 6736   3.202   1.967   8.661  0.9526  1.7481 -2.4508
   75SLPC  H17S 6737   3.302   1.811   8.647  0.6520  1.5304  1.2530
   75SLPC  C218 6738   3.100   1.788   8.603  0.0706 -0.5338 -0.4012
   75SLPC  H18R 6739   3.078   1.769   8.710  1.9553 -1.6196 -0.1617
   75SLPC  H18S 6740   3.111   1.696   8.542  1.2267  0.1849 -1.3100
   75SLPC  H18T 6741   3.015   1.841   8.555 -0.2113 -2.1174 -1.7603
   75SLPC   C33 6742   2.891   2.342   7.205  0.1487  0.2853  0.4242
   75SLPC   H3X 6743   2.811   2.390   7.265 -0.6394  2.0713 -1.8992
   75SLPC   H3Y 6744   2.871   2.233   7.197  1.0127  0.1125  0.4661
   75SLPC   C34 6745   3.033   2.374   7.265 -0.2284 -0.0703 -0.0986
   75SLPC   H4X 6746   3.049   2.483   7.255  3.2675 -0.5877 -1.7416
   75SLPC   H4Y 6747   3.113   2.311   7.219  0.4445 -1.8034  3.1788
   75SLPC   C35 6748   3.039   2.328   7.408 -0.1256  0.0412 -0.1079
   75SLPC   H5X 6749   3.142   2.297   7.434 -0.6582 -1.3747  0.4171
   75SLPC   H5Y 6750   3.001   2.223   7.413 -0.2629  0.1126  0.4248
   75SLPC   C36 6751   2.974   2.414   7.519  0.2938  0.3955  0.8765
   75SLPC   H6X 6752   2.880   2.453   7.475 -0.0066 -0.6182  0.5788
   75SLPC   H6Y 6753   3.034   2.505   7.537  0.3703  0.5121  0.0922
   75SLPC   C37 6754   2.945   2.344   7.656 -0.0448 -0.1576 -0.0857
   75SLPC   H7X 6755   2.866   2.267   7.639  0.5929 -0.6087 -1.0649
   75SLPC   H7Y 6756   2.904   2.412   7.734 -4.2385 -1.6987 -0.7064
   75SLPC   C38 6757   3.070   2.280   7.711 -0.1529  0.4994  0.3894
   75SLPC   H8X 6758   3.147   2.357   7.731 -0.1074  0.6537 -0.3392
   75SLPC   H8Y 6759   3.109   2.208   7.636 -2.4042 -0.3513 -0.0448
   75SLPC   C39 6760   3.049   2.182   7.829 -0.3710  0.6412  0.0935
   75SLPC   H9X 6761   3.147   2.145   7.866 -1.2000 -0.8003  0.9264
   75SLPC   H9Y 6762   3.002   2.096   7.778 -0.0324  0.2539  0.4302
   75SLPC  C310 6763   2.979   2.244   7.943  0.0722  0.5327  0.6837
   75SLPC  H10X 6764   2.878   2.277   7.910  0.9331  0.1907 -2.5628
   75SLPC  H10Y 6765   3.046   2.331   7.961  0.1467  0.9503 -1.4038
   75SLPC  C311 6766   2.963   2.158   8.071 -0.1249  0.1511  0.3015
   75SLPC  H11X 6767   3.063   2.114   8.092  0.9722  1.5486 -1.6825
   75SLPC  H11Y 6768   2.899   2.072   8.041 -0.7880  0.7016  0.0951
   75SLPC  C312 6769   2.906   2.239   8.188  0.6481 -0.0854 -0.3862
   75SLPC  H12X 6770   2.812   2.293   8.163  0.8138 -0.1028 -1.0582
   75SLPC  H12Y 6771   2.976   2.318   8.221 -2.0290  1.3969  2.2109
   75SLPC  C313 6772   2.887   2.143   8.302 -0.3208  0.0693 -0.0767
   75SLPC  H13X 6773   2.869   2.200   8.396  0.6053 -0.2426  0.2979
   75SLPC  H13Y 6774   2.987   2.097   8.321 -0.2084  0.2711 -0.1768
   75SLPC  C314 6775   2.777   2.045   8.290 -0.4060 -0.3708  1.1012
   75SLPC  H14X 6776   2.798   1.990   8.196 -0.5869 -0.9092  1.3677
   75SLPC  H14Y 6777   2.685   2.102   8.268  0.4523  0.3559 -0.8224
   75SLPC  C315 6778   2.763   1.960   8.408 -0.1046 -0.4467 -0.4308
   75SLPC  H15X 6779   2.736   2.021   8.496 -0.8984 -1.9763  0.4298
   75SLPC  H15Y 6780   2.853   1.896   8.421  0.4891 -0.1555 -2.6786
   75SLPC  C316 6781   2.639   1.870   8.397  0.5517  1.0657  0.3507
   75SLPC  H16X 6782   2.641   1.800   8.311 -0.3631 -1.1886  2.0723
   75SLPC  H16Y 6783   2.546   1.930   8.392 -1.2841 -1.4519  2.1570
   75SLPC  C317 6784   2.621   1.790   8.529  0.9790 -0.2903  0.6342
   75SLPC  H17X 6785   2.513   1.769   8.546  1.6255 -2.3955  2.5144
   75SLPC  H17Y 6786   2.653   1.837   8.624  0.5479 -1.4042  1.3544
   75SLPC  C318 6787   2.686   1.651   8.521 -0.3711 -0.5780  0.2106
   75SLPC  H18X 6788   2.658   1.589   8.432  0.0762  0.1888 -0.4767
   75SLPC  H18Y 6789   2.661   1.599   8.616  0.3250  0.8502  1.2108
   75SLPC  H18Z 6790   2.795   1.669   8.524 -0.4237 -0.3284  0.7575
   76SLPC     N 6791   4.978   1.105   6.068 -0.1143  0.2931  0.0094
   76SLPC   C13 6792   4.898   1.088   5.947  0.1492  0.1189  0.1584
   76SLPC  H13A 6793   4.800   1.129   5.968  0.6421  0.2181  2.5618
   76SLPC  H13B 6794   4.943   1.138   5.863  2.6642  0.8416  1.7846
   76SLPC  H13C 6795   4.883   0.983   5.928 -3.1845  0.6522 -0.6424
   76SLPC   C14 6796   5.118   1.124   6.032 -0.6004 -0.3227 -0.2004
   76SLPC  H14A 6797   5.166   1.127   6.128 -1.1147 -0.9005  0.0750
   76SLPC  H14B 6798   5.157   1.053   5.960 -0.1449  0.3892 -0.6764
   76SLPC  H14C 6799   5.128   1.220   5.984  1.4042  0.4737  1.6392
   76SLPC   C15 6800   4.964   0.978   6.134 -0.0193  0.7044 -0.4716
   76SLPC  H15A 6801   4.969   0.901   6.059 -1.7162  1.1766 -1.1083
   76SLPC  H15B 6802   5.051   0.978   6.198  0.4074  1.5760 -1.0309
   76SLPC  H15C 6803   4.879   0.963   6.199  1.6556  0.2337  1.7684
   76SLPC   C12 6804   4.935   1.219   6.146  0.1652 -0.2349 -0.8391
   76SLPC  H12A 6805   4.995   1.228   6.235 -2.4351  3.3961  0.7836
   76SLPC  H12B 6806   4.831   1.205   6.169  0.5364  0.2006  1.2802
   76SLPC   C11 6807   4.936   1.360   6.085 -0.5864 -0.3465  0.6732
   76SLPC  H11A 6808   4.877   1.423   6.155 -0.8611 -0.2971  0.3983
   76SLPC  H11B 6809   4.888   1.364   5.985 -0.8944 -0.9194  0.7977
   76SLPC     P 6810   5.176   1.449   6.186 -0.1917 -0.4414  0.0480
   76SLPC   O13 6811   5.304   1.476   6.111  0.5432 -0.1611  0.3796
   76SLPC   O14 6812   5.129   1.560   6.277  0.1295 -0.0887  0.2748
   76SLPC   O12 6813   5.070   1.422   6.072 -0.0476  0.4624  0.0854
   76SLPC   O11 6814   5.191   1.318   6.275  0.4969 -0.1329 -0.0693
   76SLPC    C1 6815   5.309   1.307   6.345 -0.0819 -0.0499 -0.3090
   76SLPC    HA 6816   5.389   1.279   6.273 -0.9657  0.8722 -1.6876
   76SLPC    HB 6817   5.337   1.399   6.400  0.4520 -1.1037  1.2597
   76SLPC    C2 6818   5.299   1.195   6.457  0.7358 -0.3514  0.0054
   76SLPC    HS 6819   5.341   1.103   6.411 -0.8723 -1.3166  0.3996
   76SLPC   O21 6820   5.161   1.190   6.505  0.5449 -0.0775 -0.4236
   76SLPC   C21 6821   5.122   1.071   6.557 -0.3846 -0.1345 -0.3716
   76SLPC   O22 6822   5.198   0.977   6.560  0.2792  0.1137  0.3277
   76SLPC   C22 6823   4.979   1.073   6.613  0.0581  0.0822  0.0403
   76SLPC   H2R 6824   4.948   1.179   6.627  1.4588  0.6805 -1.1567
   76SLPC   H2S 6825   4.916   1.012   6.545  0.9440 -3.6793  2.3138
   76SLPC    C3 6826   5.399   1.224   6.561 -0.7221 -0.2152 -0.4257
   76SLPC    HX 6827   5.394   1.325   6.606 -2.1765 -1.0899  1.5767
   76SLPC    HY 6828   5.500   1.217   6.515  0.2243  0.8341  1.4050
   76SLPC   O31 6829   5.394   1.130   6.676 -0.2943 -0.1227 -0.7182
   76SLPC   C31 6830   5.492   1.147   6.761 -0.7848 -0.2018 -0.1090
   76SLPC   O32 6831   5.585   1.228   6.749  0.2715 -0.2301 -0.0968
   76SLPC   C32 6832   5.485   1.048   6.881  0.5880 -0.1657  0.1943
   76SLPC   H2X 6833   5.576   0.984   6.886 -0.5873 -1.9381 -0.2333
   76SLPC   H2Y 6834   5.397   0.980   6.885  0.2614  0.2928  1.0597
   76SLPC   C23 6835   4.973   1.001   6.747  0.3544 -0.1952 -0.6032
   76SLPC   H3R 6836   5.013   0.897   6.742 -0.0284 -0.5458  2.1983
   76SLPC   H3S 6837   4.866   0.980   6.766  0.2684  0.7255 -0.0262
   76SLPC   C24 6838   5.051   1.068   6.870  0.4504 -0.5699  0.6798
   76SLPC   H4R 6839   5.157   1.094   6.850  0.1823 -0.4322 -0.6169
   76SLPC   H4S 6840   5.060   0.998   6.956  2.5887  2.1404  2.8499
   76SLPC   C25 6841   4.984   1.188   6.941  0.2808 -0.2648  0.1352
   76SLPC   H5R 6842   4.885   1.144   6.964 -0.0419  0.2830 -0.1644
   76SLPC   H5S 6843   4.969   1.268   6.865 -1.5308 -0.6651  0.0295
   76SLPC   C26 6844   5.055   1.233   7.072  0.5324  0.3991  0.4153
   76SLPC   H6R 6845   4.999   1.323   7.107 -1.2405 -0.2410 -0.6403
   76SLPC   H6S 6846   5.155   1.265   7.038 -0.7761  2.9899 -1.3701
   76SLPC   C27 6847   5.058   1.123   7.183  0.2041 -0.4569 -0.1076
   76SLPC   H7R 6848   5.131   1.044   7.155  0.1408 -0.2490 -0.8872
   76SLPC   H7S 6849   4.960   1.069   7.184 -0.4624  0.6340 -1.8314
   76SLPC   C28 6850   5.079   1.177   7.321  0.0719  0.4261 -0.3166
   76SLPC   H8R 6851   5.021   1.271   7.326 -2.0194 -0.7819 -0.7663
   76SLPC   H8S 6852   5.034   1.103   7.390 -0.8792  0.3794 -0.9806
   76SLPC   C29 6853   5.225   1.206   7.352  0.0104  0.1995 -0.3718
   76SLPC   H9R 6854   5.277   1.267   7.277 -1.0003  0.6912 -0.6866
   76SLPC  C210 6855   5.282   1.184   7.468 -0.0025 -0.0941 -0.4391
   76SLPC  H10R 6856   5.383   1.224   7.486  0.0392  0.2365 -1.3503
   76SLPC  C211 6857   5.205   1.125   7.588  0.0699 -0.3823  0.6703
   76SLPC  H11R 6858   5.148   1.033   7.562 -2.1195  1.0509  0.1605
   76SLPC  H11S 6859   5.126   1.194   7.623  1.0964 -0.3300  3.1224
   76SLPC  C212 6860   5.308   1.092   7.690 -0.3463 -0.1867 -0.1452
   76SLPC  H12R 6861   5.363   1.000   7.666 -1.5947 -0.8607 -0.5191
   76SLPC  C213 6862   5.322   1.150   7.813  0.0074  0.4147  0.8423
   76SLPC  H13R 6863   5.391   1.103   7.885  1.6888  1.5075  0.0161
   76SLPC  C214 6864   5.232   1.262   7.878 -0.3210  0.2928  0.7028
   76SLPC  H14R 6865   5.144   1.275   7.812  1.4138  0.2793 -1.7209
   76SLPC  H14S 6866   5.281   1.360   7.890  1.2510 -0.4679  0.7842
   76SLPC  C215 6867   5.181   1.206   8.010 -0.8733  0.1644 -0.0312
   76SLPC  H15R 6868   5.121   1.286   8.059 -0.6622  0.5173 -0.3394
   76SLPC  H15S 6869   5.267   1.192   8.079 -0.0544  1.4998 -0.7430
   76SLPC  C216 6870   5.107   1.065   8.013 -0.2734 -0.0649 -0.2045
   76SLPC  H16R 6871   5.166   0.991   7.957 -1.4827  1.4716 -3.7796
   76SLPC  H16S 6872   5.012   1.071   7.955  0.3495 -0.6677 -1.3011
   76SLPC  C217 6873   5.091   1.010   8.159 -0.0839 -0.3973  0.5137
   76SLPC  H17R 6874   5.021   0.924   8.152 -0.8480  0.3371 -2.0852
   76SLPC  H17S 6875   5.042   1.079   8.231 -4.6192 -1.4456 -1.2414
   76SLPC  C218 6876   5.218   0.959   8.229 -0.0594  0.1966 -0.6753
   76SLPC  H18R 6877   5.285   1.039   8.268 -0.9710  1.0587 -0.8388
   76SLPC  H18S 6878   5.277   0.897   8.158  0.0570 -0.4674 -0.0107
   76SLPC  H18T 6879   5.191   0.898   8.318  1.8457  0.1794 -0.0534
   76SLPC   C33 6880   5.487   1.142   7.008 -0.4080  0.6185  0.9194
   76SLPC   H3X 6881   5.391   1.196   7.000 -0.6085  0.1332 -0.0872
   76SLPC   H3Y 6882   5.574   1.210   6.997  1.3481 -1.8029 -1.5488
   76SLPC   C34 6883   5.500   1.063   7.146 -0.6821 -0.2442  1.1431
   76SLPC   H4X 6884   5.424   0.981   7.149 -0.8223 -0.1329  0.7319
   76SLPC   H4Y 6885   5.482   1.136   7.228  0.7914 -1.3731  2.5328
   76SLPC   C35 6886   5.641   0.999   7.171  0.3193 -0.7167  0.1713
   76SLPC   H5X 6887   5.725   1.071   7.164  0.3827 -0.4776  2.6937
   76SLPC   H5Y 6888   5.662   0.926   7.089 -1.0405 -0.2696 -0.6078
   76SLPC   C36 6889   5.661   0.923   7.299 -1.0024 -0.5850 -0.3312
   76SLPC   H6X 6890   5.758   0.869   7.294 -1.2971 -1.2202  0.5085
   76SLPC   H6Y 6891   5.588   0.841   7.320  0.9579 -1.7254  2.8147
   76SLPC   C37 6892   5.680   1.017   7.413 -0.4741 -0.2145  0.1476
   76SLPC   H7X 6893   5.591   1.083   7.414  0.9791  1.8138  0.1477
   76SLPC   H7Y 6894   5.767   1.080   7.385  0.4349 -2.6021 -3.0060
   76SLPC   C38 6895   5.696   0.940   7.548 -0.0794  0.4043 -0.1214
   76SLPC   H8X 6896   5.788   0.879   7.559 -1.7246 -2.0214  0.9103
   76SLPC   H8Y 6897   5.610   0.870   7.557 -0.0536  0.2812 -0.7397
   76SLPC   C39 6898   5.685   1.031   7.671  0.3325  0.0345  0.0129
   76SLPC   H9X 6899   5.593   1.093   7.675  2.1995  3.0446  0.2562
   76SLPC   H9Y 6900   5.765   1.107   7.653  0.1979  0.0632 -0.4835
   76SLPC  C310 6901   5.712   0.959   7.804  0.3609  0.6144 -0.0441
   76SLPC  H10X 6902   5.719   1.034   7.886  5.4093  1.6168 -1.0334
   76SLPC  H10Y 6903   5.810   0.907   7.794 -0.1477 -0.6399  1.2338
   76SLPC  C311 6904   5.610   0.856   7.844  0.6405 -1.0452  0.0431
   76SLPC  H11X 6905   5.608   0.780   7.763  0.9417  0.0594 -1.0343
   76SLPC  H11Y 6906   5.512   0.906   7.857  0.4497 -1.2890 -0.4341
   76SLPC  C312 6907   5.648   0.778   7.966  0.0302 -0.0017 -0.2221
   76SLPC  H12X 6908   5.667   0.858   8.040  0.7060 -2.8114  2.9027
   76SLPC  H12Y 6909   5.743   0.722   7.953  1.1943  2.2118 -1.9247
   76SLPC  C313 6910   5.534   0.692   8.035  0.0178  0.2151 -0.8000
   76SLPC  H13X 6911   5.504   0.601   7.978  1.7470  0.5114 -2.2788
   76SLPC  H13Y 6912   5.439   0.750   8.034 -0.1012  0.0336 -1.7943
   76SLPC  C314 6913   5.581   0.659   8.180  0.0183 -0.0183 -0.6167
   76SLPC  H14X 6914   5.604   0.759   8.223 -1.0226 -0.2715  0.5742
   76SLPC  H14Y 6915   5.677   0.603   8.184 -0.4762 -0.8930 -0.7430
   76SLPC  C315 6916   5.477   0.596   8.269  0.3285  0.3478  0.2923
   76SLPC  H15X 6917   5.383   0.649   8.244 -0.0843  0.4577  1.9637
   76SLPC  H15Y 6918   5.495   0.639   8.370 -1.5612  0.9155  0.4364
   76SLPC  C316 6919   5.465   0.447   8.256 -0.2950 -0.3889 -0.0243
   76SLPC  H16X 6920   5.565   0.403   8.278 -0.5143 -1.5988 -1.3195
   76SLPC  H16Y 6921   5.461   0.432   8.146  1.7616  0.4021 -0.2567
   76SLPC  C317 6922   5.342   0.379   8.325 -0.2301  0.1442 -0.1853
   76SLPC  H17X 6923   5.242   0.415   8.293 -0.8718  0.4779  1.9775
   76SLPC  H17Y 6924   5.354   0.403   8.433  0.5461 -0.9434 -0.0171
   76SLPC  C318 6925   5.340   0.222   8.312 -0.4567 -0.5673 -0.5000
   76SLPC  H18X 6926   5.429   0.171   8.355 -1.6203 -0.8910  1.6473
   76SLPC  H18Y 6927   5.326   0.193   8.206  1.2880  0.0065 -0.9145
   76SLPC  H18Z 6928   5.253   0.186   8.370 -0.7134 -0.3921 -0.7722
   77SLPC     N 6929   0.888   5.705   6.325 -0.0535  0.6524 -0.4830
   77SLPC   C13 6930   0.822   5.833   6.311  0.1540 -0.0295 -0.3408
   77SLPC  H13A 6931   0.716   5.823   6.292  0.3120 -2.4385 -0.3062
   77SLPC  H13B 6932   0.827   5.898   6.396 -0.5386  0.5630 -0.7465
   77SLPC  H13C 6933   0.855   5.895   6.229  0.8701 -0.2464 -0.2261
   77SLPC   C14 6934   0.882   5.633   6.198 -0.1807  0.4113 -0.1602
   77SLPC  H14A 6935   0.780   5.637   6.161 -1.1986 -0.2915  2.3416
   77SLPC  H14B 6936   0.937   5.686   6.122  1.1192  1.4721  1.4576
   77SLPC  H14C 6937   0.907   5.528   6.201 -0.5330  0.3330  1.8361
   77SLPC   C15 6938   0.816   5.624   6.426  0.4849 -0.4231  0.7948
   77SLPC  H15A 6939   0.756   5.552   6.374 -0.1325  0.7127 -0.1131
   77SLPC  H15B 6940   0.887   5.570   6.487  0.5095  0.9491  2.0432
   77SLPC  H15C 6941   0.746   5.685   6.481  0.7071  2.4710 -1.8300
   77SLPC   C12 6942   1.029   5.740   6.374  0.3298  0.4609 -0.9265
   77SLPC  H12A 6943   1.031   5.785   6.472 -0.9453 -0.8045 -0.2858
   77SLPC  H12B 6944   1.081   5.798   6.300 -2.3099  0.4820 -2.9122
   77SLPC   C11 6945   1.133   5.619   6.388  0.1189 -0.0583  0.1687
   77SLPC  H11A 6946   1.122   5.550   6.301  1.2138 -2.2243  1.6565
   77SLPC  H11B 6947   1.108   5.565   6.482 -0.4856  2.1846  1.3488
   77SLPC     P 6948   1.327   5.743   6.502  0.4673  0.4328  0.4554
   77SLPC   O13 6949   1.436   5.654   6.533  0.3285  0.1461  0.0580
   77SLPC   O14 6950   1.363   5.885   6.488 -0.2740 -0.1784 -0.1922
   77SLPC   O12 6951   1.261   5.682   6.373 -0.0139  0.0800 -0.4126
   77SLPC   O11 6952   1.224   5.718   6.616  0.1272 -0.1684 -0.5159
   77SLPC    C1 6953   1.190   5.820   6.707 -0.4423 -0.2687 -0.1595
   77SLPC    HA 6954   1.285   5.853   6.753 -0.6435  2.0804 -1.2972
   77SLPC    HB 6955   1.145   5.906   6.653  0.6872  0.1265 -0.4846
   77SLPC    C2 6956   1.082   5.776   6.807  0.1608  0.5855  0.1975
   77SLPC    HS 6957   0.979   5.790   6.769 -0.8598 -1.9575  1.8107
   77SLPC   O21 6958   1.091   5.841   6.938  0.1704 -0.6842  0.6128
   77SLPC   C21 6959   1.058   5.970   6.944  0.0917 -0.4898 -0.2769
   77SLPC   O22 6960   0.998   6.036   6.863 -0.1829  0.3442  0.0144
   77SLPC   C22 6961   1.108   6.019   7.086  0.2329  0.9277 -0.8688
   77SLPC   H2R 6962   1.191   6.089   7.062  0.3311  0.9972 -0.3420
   77SLPC   H2S 6963   1.016   6.062   7.131  0.1417  0.3289 -0.4559
   77SLPC    C3 6964   1.103   5.627   6.836 -0.0668 -0.0578  0.0397
   77SLPC    HX 6965   1.207   5.619   6.874  0.8316 -0.0177 -2.2594
   77SLPC    HY 6966   1.094   5.565   6.744  1.4790 -2.3874  1.3678
   77SLPC   O31 6967   1.019   5.568   6.940 -0.2449 -0.6171  0.0639
   77SLPC   C31 6968   0.880   5.558   6.916  1.0032 -0.6364  0.2645
   77SLPC   O32 6969   0.827   5.568   6.808 -0.8659 -0.8899 -0.2719
   77SLPC   C32 6970   0.806   5.518   7.045 -0.9214 -0.0393  0.2222
   77SLPC   H2X 6971   0.859   5.439   7.102  0.0574 -0.5429 -1.3194
   77SLPC   H2Y 6972   0.705   5.487   7.012 -2.3322  3.3790  0.9269
   77SLPC   C23 6973   1.171   5.901   7.169  0.3083  0.5791 -0.1995
   77SLPC   H3R 6974   1.260   5.859   7.117  1.3657 -1.6000  3.0536
   77SLPC   H3S 6975   1.098   5.820   7.193  0.3112  0.8187  0.6597
   77SLPC   C24 6976   1.207   5.941   7.315  0.2531  0.1282  1.0340
   77SLPC   H4R 6977   1.288   6.016   7.303 -0.3082  1.1759  3.2597
   77SLPC   H4S 6978   1.249   5.854   7.371  1.5454 -0.1214 -0.2656
   77SLPC   C25 6979   1.091   6.001   7.391  0.7213 -0.4164  0.0893
   77SLPC   H5R 6980   0.993   5.964   7.353  0.0032 -0.2335  1.6811
   77SLPC   H5S 6981   1.085   6.105   7.353 -1.0421 -0.4916  0.0683
   77SLPC   C26 6982   1.099   5.993   7.547 -0.2154 -0.4906  0.4454
   77SLPC   H6R 6983   1.045   6.075   7.600  0.6512 -0.0709  0.6989
   77SLPC   H6S 6984   1.205   6.006   7.574 -0.4718  1.4751  0.6424
   77SLPC   C27 6985   1.065   5.863   7.613 -0.8578 -0.3130  0.2426
   77SLPC   H7R 6986   1.109   5.777   7.559 -0.6518 -2.2348  3.2364
   77SLPC   H7S 6987   0.956   5.846   7.609 -1.2519  2.0731 -1.2176
   77SLPC   C28 6988   1.111   5.865   7.756 -0.6093  0.3401  0.7361
   77SLPC   H8R 6989   1.076   5.965   7.790  1.5329  1.0407  1.0214
   77SLPC   H8S 6990   1.222   5.871   7.767 -0.3342  1.7682 -2.0535
   77SLPC   C29 6991   1.063   5.755   7.840 -0.8069  0.5061 -0.4046
   77SLPC   H9R 6992   1.107   5.660   7.805  1.2058  1.3325 -0.2852
   77SLPC  C210 6993   0.984   5.738   7.939  0.1640 -0.7352  0.1087
   77SLPC  H10R 6994   0.977   5.635   7.976 -1.0029 -0.5195  0.5528
   77SLPC  C211 6995   0.902   5.840   8.016  0.2349  0.0457 -0.3262
   77SLPC  H11R 6996   0.799   5.802   8.000  0.1355  0.8175 -1.6768
   77SLPC  H11S 6997   0.908   5.941   7.970  0.7661  0.8267  1.3466
   77SLPC  C212 6998   0.953   5.838   8.158 -0.2089  0.2749  0.2088
   77SLPC  H12R 6999   1.060   5.848   8.180 -0.1679  0.3318 -0.0187
   77SLPC  C213 7000   0.865   5.814   8.255 -0.8120 -0.2179  0.0052
   77SLPC  H13R 7001   0.905   5.833   8.356 -0.2933 -0.3567 -0.1724
   77SLPC  C214 7002   0.718   5.784   8.256  0.2078 -0.0684  0.2158
   77SLPC  H14R 7003   0.676   5.811   8.157  0.1070  1.1293  0.5682
   77SLPC  H14S 7004   0.655   5.846   8.324  2.3777  1.8959  0.5396
   77SLPC  C215 7005   0.695   5.636   8.288  0.4235  0.4329  0.5698
   77SLPC  H15R 7006   0.742   5.602   8.382 -0.8663  0.9138  1.4279
   77SLPC  H15S 7007   0.744   5.568   8.215  0.6948 -0.8571  1.9133
   77SLPC  C216 7008   0.536   5.624   8.300 -0.5605  0.4779 -0.1481
   77SLPC  H16R 7009   0.499   5.527   8.262  0.4073  0.5124 -1.2263
   77SLPC  H16S 7010   0.484   5.703   8.242 -2.6106 -0.2319  0.6198
   77SLPC  C217 7011   0.508   5.636   8.440  0.1830 -0.4304  0.8551
   77SLPC  H17R 7012   0.522   5.740   8.478 -4.5409  0.4426  0.8492
   77SLPC  H17S 7013   0.570   5.562   8.495  1.1275 -0.4006 -0.1410
   77SLPC  C218 7014   0.352   5.602   8.461 -0.3960  0.4569  0.1365
   77SLPC  H18R 7015   0.321   5.617   8.566  0.8578 -0.9916  0.7590
   77SLPC  H18S 7016   0.331   5.498   8.428 -0.7713  1.2436 -2.3660
   77SLPC  H18T 7017   0.292   5.671   8.398 -0.1614 -0.1735 -0.7947
   77SLPC   C33 7018   0.804   5.647   7.133 -0.2099 -0.1526 -0.6442
   77SLPC   H3X 7019   0.764   5.738   7.085  0.9598  0.7640  0.0423
   77SLPC   H3Y 7020   0.907   5.678   7.161 -1.4461  3.1543  0.7467
   77SLPC   C34 7021   0.737   5.623   7.269  0.1767  0.1297  0.1835
   77SLPC   H4X 7022   0.799   5.563   7.338 -0.7490 -0.1042  0.8367
   77SLPC   H4Y 7023   0.638   5.573   7.271  0.9851 -1.5269  2.0527
   77SLPC   C35 7024   0.731   5.764   7.330  0.1451  0.1812  0.3490
   77SLPC   H5X 7025   0.672   5.831   7.263  0.9683  0.8426  0.2714
   77SLPC   H5Y 7026   0.834   5.802   7.344 -0.8626  2.6176  1.7156
   77SLPC   C36 7027   0.676   5.771   7.472 -0.4615 -0.5933  0.2724
   77SLPC   H6X 7028   0.739   5.717   7.546 -1.6895 -0.3221  1.5738
   77SLPC   H6Y 7029   0.576   5.722   7.474 -0.9353  0.2157 -1.7297
   77SLPC   C37 7030   0.656   5.910   7.535  0.9640 -0.1032 -0.6142
   77SLPC   H7X 7031   0.574   5.959   7.479 -1.5830 -2.3003  0.9985
   77SLPC   H7Y 7032   0.751   5.969   7.534 -0.0981  2.2177  4.2817
   77SLPC   C38 7033   0.613   5.907   7.681 -0.0814  0.6471 -0.9498
   77SLPC   H8X 7034   0.703   5.879   7.740  0.1852  2.0796 -0.6416
   77SLPC   H8Y 7035   0.534   5.832   7.702  0.2574  0.7396  0.7829
   77SLPC   C39 7036   0.579   6.041   7.745  0.3718 -0.1377 -0.2974
   77SLPC   H9X 7037   0.504   6.093   7.683 -0.9989  0.4393  1.7368
   77SLPC   H9Y 7038   0.659   6.119   7.747  0.4694 -0.2267 -0.6483
   77SLPC  C310 7039   0.527   6.011   7.886  0.3037 -0.4043 -0.6409
   77SLPC  H10X 7040   0.619   6.014   7.950 -1.5209 -0.8036  2.2005
   77SLPC  H10Y 7041   0.481   5.910   7.892 -1.5941  0.4914  0.9173
   77SLPC  C311 7042   0.433   6.121   7.934  1.0569 -0.3639 -0.1355
   77SLPC  H11X 7043   0.351   6.139   7.861 -0.3104 -1.2592  1.1309
   77SLPC  H11Y 7044   0.503   6.205   7.954  1.5380 -1.4399  3.2784
   77SLPC  C312 7045   0.374   6.078   8.066  0.1867 -0.2541  0.4479
   77SLPC  H12X 7046   0.448   6.053   8.144  1.1190 -3.9576 -1.3822
   77SLPC  H12Y 7047   0.321   5.985   8.034  0.8344  0.0213 -1.5637
   77SLPC  C313 7048   0.271   6.174   8.117 -0.2077 -0.0124  0.3378
   77SLPC  H13X 7049   0.193   6.194   8.040  0.8270  1.4525 -0.3762
   77SLPC  H13Y 7050   0.323   6.269   8.139  1.7073 -0.5084 -1.7068
   77SLPC  C314 7051   0.196   6.120   8.246 -0.1895  0.4167 -0.9444
   77SLPC  H14X 7052   0.274   6.078   8.314 -1.9646 -1.0358  0.2921
   77SLPC  H14Y 7053   0.125   6.039   8.218 -3.1312  2.5525 -0.1534
   77SLPC  C315 7054   0.125   6.235   8.315 -0.7458 -0.0859  0.1115
   77SLPC  H15X 7055   0.067   6.299   8.245  0.2873  1.7405  0.8440
   77SLPC  H15Y 7056   0.202   6.311   8.338 -2.2938  0.7098  3.1286
   77SLPC  C316 7057   0.060   6.183   8.445 -0.4943 -0.3222  1.0458
   77SLPC  H16X 7058   0.133   6.126   8.507 -0.5069  0.0801  1.4332
   77SLPC  H16Y 7059  -0.013   6.102   8.422 -0.4648  0.3672 -1.8541
   77SLPC  C317 7060   0.010   6.302   8.523  0.1143  0.2439  0.3201
   77SLPC  H17X 7061  -0.061   6.349   8.453  0.5146  1.5365  0.7545
   77SLPC  H17Y 7062   0.089   6.374   8.554 -0.7189  0.1175  3.0216
   77SLPC  C318 7063  -0.066   6.253   8.656 -0.1356  0.7568  0.2567
   77SLPC  H18X 7064   0.005   6.238   8.741 -0.6524  2.1715  0.9796
   77SLPC  H18Y 7065  -0.133   6.167   8.638  2.0237 -0.9755  0.0138
   77SLPC  H18Z 7066  -0.131   6.332   8.698 -3.8717 -2.7234  1.6540
   78SLPC     N 7067   2.585   0.277   5.876 -0.1507 -0.0480 -0.1368
   78SLPC   C13 7068   2.693   0.238   5.773  0.1183  0.4085 -0.2897
   78SLPC  H13A 7069   2.665   0.276   5.676  0.2313  3.5404  0.7972
   78SLPC  H13B 7070   2.792   0.271   5.804  0.3980 -0.1338 -0.6015
   78SLPC  H13C 7071   2.697   0.132   5.755  3.1683 -0.1769  2.6098
   78SLPC   C14 7072   2.454   0.218   5.826 -0.0656 -0.1250  0.5170
   78SLPC  H14A 7073   2.373   0.239   5.893  0.5434  3.2055  0.3722
   78SLPC  H14B 7074   2.428   0.261   5.730  0.3237 -0.4370  0.2680
   78SLPC  H14C 7075   2.454   0.110   5.816  0.5662 -0.0874 -0.0017
   78SLPC   C15 7076   2.559   0.421   5.865  0.0074 -0.3498  0.1275
   78SLPC  H15A 7077   2.650   0.476   5.885  0.9018 -0.4696 -3.0533
   78SLPC  H15B 7078   2.536   0.438   5.760  0.7195 -0.2806 -0.0206
   78SLPC  H15C 7079   2.480   0.459   5.928  1.1418  1.6552  0.4258
   78SLPC   C12 7080   2.611   0.229   6.017  0.7157  0.7423  0.0321
   78SLPC  H12A 7081   2.533   0.275   6.076 -1.4646 -2.7813  0.2029
   78SLPC  H12B 7082   2.698   0.282   6.054  2.9724 -0.9200 -2.5256
   78SLPC   C11 7083   2.621   0.071   6.042 -0.0777 -0.6182 -0.1565
   78SLPC  H11A 7084   2.537   0.024   5.986  0.9904  0.8710 -3.2807
   78SLPC  H11B 7085   2.616   0.051   6.151  2.2637 -2.4604 -0.3102
   78SLPC     P 7086   2.884   0.010   6.044 -0.0126  0.0483  0.0760
   78SLPC   O13 7087   2.960  -0.104   5.988  0.5157  0.6853  0.2763
   78SLPC   O14 7088   2.934   0.144   6.013 -0.0095 -0.1172  0.1639
   78SLPC   O12 7089   2.738   0.012   5.988 -0.2377 -0.1882 -0.4761
   78SLPC   O11 7090   2.867  -0.003   6.201  0.5428  0.3136  0.6034
   78SLPC    C1 7091   2.964   0.042   6.292  0.1671  0.0977 -0.5335
   78SLPC    HA 7092   3.035  -0.043   6.304 -1.0876 -0.7838  0.9728
   78SLPC    HB 7093   3.016   0.133   6.255 -1.0774  0.4988 -1.3857
   78SLPC    C2 7094   2.903   0.087   6.426 -0.1638 -0.0372 -0.0014
   78SLPC    HS 7095   2.978   0.146   6.484 -2.0301  1.1889  1.3038
   78SLPC   O21 7096   2.849  -0.033   6.494  0.8708 -0.5088 -0.6298
   78SLPC   C21 7097   2.930  -0.078   6.593 -0.1098  0.7518  1.0298
   78SLPC   O22 7098   3.035  -0.029   6.635  0.0771 -0.1149  0.0456
   78SLPC   C22 7099   2.869  -0.203   6.655 -0.1727  1.4989 -0.3651
   78SLPC   H2R 7100   2.848  -0.288   6.587  0.7260 -3.2402  4.5286
   78SLPC   H2S 7101   2.939  -0.242   6.733 -1.4590 -0.2052  0.0099
   78SLPC    C3 7102   2.794   0.190   6.413  0.0090 -0.3293 -0.0719
   78SLPC    HX 7103   2.720   0.158   6.336  0.6325 -0.7670 -0.4888
   78SLPC    HY 7104   2.850   0.272   6.363 -0.4923  0.9943  1.4495
   78SLPC   O31 7105   2.750   0.233   6.544  0.7292  0.7943  0.6708
   78SLPC   C31 7106   2.623   0.199   6.577  0.4120 -0.2389  0.4885
   78SLPC   O32 7107   2.548   0.132   6.512  0.8974 -0.0177 -0.0122
   78SLPC   C32 7108   2.590   0.271   6.714 -0.2007 -0.7680 -0.0729
   78SLPC   H2X 7109   2.606   0.379   6.692  1.0288 -0.9240 -0.0012
   78SLPC   H2Y 7110   2.665   0.229   6.784  0.9251 -0.3863 -1.0263
   78SLPC   C23 7111   2.729  -0.167   6.728 -0.4290  0.0546  0.0793
   78SLPC   H3R 7112   2.684  -0.262   6.765 -0.3153 -0.6107 -1.4129
   78SLPC   H3S 7113   2.654  -0.122   6.660 -0.8851 -1.7308 -0.6515
   78SLPC   C24 7114   2.750  -0.075   6.854  0.3299  0.7095 -0.2565
   78SLPC   H4R 7115   2.779   0.030   6.834  1.6732  0.2226 -1.0339
   78SLPC   H4S 7116   2.840  -0.115   6.906  0.9105  0.8506 -1.1402
   78SLPC   C25 7117   2.623  -0.065   6.940 -0.0852  0.0245  0.7783
   78SLPC   H5R 7118   2.583  -0.166   6.966  0.7846 -0.4628  0.2871
   78SLPC   H5S 7119   2.544  -0.025   6.874 -1.0551 -1.2902  1.1028
   78SLPC   C26 7120   2.639   0.027   7.053 -0.0495  0.4355 -0.3184
   78SLPC   H6R 7121   2.654   0.134   7.024 -1.5123  0.3074 -1.7179
   78SLPC   H6S 7122   2.725   0.003   7.119  0.0317 -0.0388 -0.5898
   78SLPC   C27 7123   2.520   0.028   7.147  0.1272 -0.3775  0.3626
   78SLPC   H7R 7124   2.504  -0.075   7.187 -0.1053 -1.3429 -2.0527
   78SLPC   H7S 7125   2.431   0.063   7.091 -1.4965 -0.3913  2.7674
   78SLPC   C28 7126   2.553   0.122   7.264 -0.5121  1.0961  0.2697
   78SLPC   H8R 7127   2.586   0.211   7.207 -1.3038  2.0825  1.3301
   78SLPC   H8S 7128   2.634   0.071   7.322  0.1872 -0.0129 -1.5754
   78SLPC   C29 7129   2.425   0.151   7.345  0.1639  0.0338  0.4685
   78SLPC   H9R 7130   2.329   0.166   7.293 -0.7494  0.0570  2.0889
   78SLPC  C210 7131   2.425   0.201   7.466 -0.5487 -0.5220  0.4015
   78SLPC  H10R 7132   2.329   0.216   7.518 -0.4980 -0.4687  0.4799
   78SLPC  C211 7133   2.550   0.224   7.556  0.3042  0.3595  0.6168
   78SLPC  H11R 7134   2.534   0.327   7.595  0.3854  0.9186 -0.7978
   78SLPC  H11S 7135   2.641   0.238   7.494 -0.7267  1.0303 -0.7916
   78SLPC  C212 7136   2.575   0.138   7.677  0.1492  0.3280  0.2710
   78SLPC  H12R 7137   2.565   0.185   7.776 -0.6846 -0.9838  0.8487
   78SLPC  C213 7138   2.600   0.008   7.678 -0.2419 -0.5908  0.1157
   78SLPC  H13R 7139   2.633  -0.022   7.779 -2.3400  2.8836  2.0220
   78SLPC  C214 7140   2.623  -0.089   7.563  0.0971  0.5806 -0.2529
   78SLPC  H14R 7141   2.562  -0.059   7.475 -2.1620  0.6662  1.2728
   78SLPC  H14S 7142   2.572  -0.185   7.586 -1.5410  1.3775 -0.4362
   78SLPC  C215 7143   2.774  -0.110   7.531  0.6736  0.5694 -0.4096
   78SLPC  H15R 7144   2.831  -0.140   7.622 -0.7676 -0.4936  0.1813
   78SLPC  H15S 7145   2.809  -0.010   7.497 -1.0913  1.8960  1.4749
   78SLPC  C216 7146   2.797  -0.223   7.425  0.2738 -0.1222  0.4534
   78SLPC  H16R 7147   2.907  -0.236   7.419  1.0911  3.1566  4.0643
   78SLPC  H16S 7148   2.751  -0.186   7.331 -2.0952  1.0066  1.9754
   78SLPC  C217 7149   2.726  -0.354   7.465  0.3031  0.7008  0.5678
   78SLPC  H17R 7150   2.626  -0.358   7.416  0.1874  0.3981  0.8289
   78SLPC  H17S 7151   2.717  -0.372   7.574  0.1631  2.5608  0.9030
   78SLPC  C218 7152   2.802  -0.478   7.406 -1.1491 -0.2477  0.0226
   78SLPC  H18R 7153   2.860  -0.456   7.313  2.3682  0.3945  2.1479
   78SLPC  H18S 7154   2.736  -0.566   7.420  0.5615 -1.4470  0.9036
   78SLPC  H18T 7155   2.883  -0.499   7.480 -1.5138 -0.3893  0.3812
   78SLPC   C33 7156   2.445   0.261   6.759  0.0999 -0.1592 -0.3503
   78SLPC   H3X 7157   2.410   0.155   6.756 -0.2824 -0.0118 -1.3754
   78SLPC   H3Y 7158   2.391   0.325   6.686  0.2492  0.2811 -0.0780
   78SLPC   C34 7159   2.429   0.318   6.904 -0.6116  0.3368 -0.1536
   78SLPC   H4X 7160   2.487   0.263   6.982 -2.6202  0.3630  1.4549
   78SLPC   H4Y 7161   2.322   0.320   6.935  0.1067 -1.2003  2.7981
   78SLPC   C35 7162   2.484   0.460   6.902  0.6313 -0.2081  0.2247
   78SLPC   H5X 7163   2.432   0.510   6.817 -0.7581  0.2558  1.2999
   78SLPC   H5Y 7164   2.593   0.470   6.886  0.3447 -0.5388 -2.3967
   78SLPC   C36 7165   2.451   0.546   7.018  0.1295  0.3573  0.2049
   78SLPC   H6X 7166   2.346   0.537   7.053 -0.2306 -1.5847 -1.1993
   78SLPC   H6Y 7167   2.473   0.651   6.990 -1.1422  0.1543 -1.7437
   78SLPC   C37 7168   2.529   0.511   7.147 -0.1164 -0.1004  0.2348
   78SLPC   H7X 7169   2.636   0.536   7.135 -0.7839  4.7399  1.8176
   78SLPC   H7Y 7170   2.513   0.403   7.165 -1.3977  0.1209  0.5940
   78SLPC   C38 7171   2.484   0.591   7.278 -0.2522 -0.2366 -0.0389
   78SLPC   H8X 7172   2.383   0.549   7.299 -1.6039  3.3487  1.3378
   78SLPC   H8Y 7173   2.473   0.700   7.262 -2.4210  0.0390  2.6434
   78SLPC   C39 7174   2.576   0.564   7.396 -0.2077  0.1533  0.7870
   78SLPC   H9X 7175   2.676   0.581   7.351  0.1624  0.4726  1.7091
   78SLPC   H9Y 7176   2.576   0.460   7.434  2.1234 -0.4258 -0.6008
   78SLPC  C310 7177   2.567   0.659   7.516 -0.3141  0.9750 -0.7105
   78SLPC  H10X 7178   2.465   0.634   7.554 -1.0385  1.3855 -2.3064
   78SLPC  H10Y 7179   2.571   0.762   7.475 -2.4443  0.9378 -1.1421
   78SLPC  C311 7180   2.666   0.645   7.639  0.4443  0.4400  0.2526
   78SLPC  H11X 7181   2.761   0.694   7.607  0.3016  0.0538 -0.7873
   78SLPC  H11Y 7182   2.693   0.538   7.650 -3.9980 -0.7831  1.0851
   78SLPC  C312 7183   2.614   0.685   7.776 -0.4758  0.5564  0.2883
   78SLPC  H12X 7184   2.601   0.795   7.784 -0.5860  0.4974  0.9934
   78SLPC  H12Y 7185   2.688   0.657   7.854 -1.1809 -1.4029  0.2873
   78SLPC  C313 7186   2.491   0.615   7.824  0.3455 -0.6877 -0.0004
   78SLPC  H13X 7187   2.503   0.508   7.796  0.2407  0.0910 -3.3888
   78SLPC  H13Y 7188   2.397   0.647   7.774 -0.0808 -1.5454  0.2178
   78SLPC  C314 7189   2.472   0.613   7.976  0.1496 -0.1308  0.9553
   78SLPC  H14X 7190   2.568   0.593   8.027  0.5964  3.0801  1.5363
   78SLPC  H14Y 7191   2.405   0.526   7.996  1.3193 -2.6190 -4.2078
   78SLPC  C315 7192   2.428   0.756   8.031  0.0292  0.5838 -0.3610
   78SLPC  H15X 7193   2.336   0.792   7.980  0.8160  2.1097 -0.7608
   78SLPC  H15Y 7194   2.506   0.833   8.013 -0.8944  1.7149  0.3402
   78SLPC  C316 7195   2.418   0.754   8.189 -0.0820 -0.0411 -0.1743
   78SLPC  H16X 7196   2.387   0.852   8.232 -1.7573 -0.1896 -0.9816
   78SLPC  H16Y 7197   2.514   0.729   8.238 -0.9180 -1.3781  0.8429
   78SLPC  C317 7198   2.325   0.651   8.251  0.1364 -0.1511  0.2885
   78SLPC  H17X 7199   2.362   0.554   8.211 -4.0277 -1.5574 -0.6117
   78SLPC  H17Y 7200   2.219   0.668   8.222  0.1599 -1.0776 -0.3877
   78SLPC  C318 7201   2.331   0.658   8.408 -0.0947 -0.2347  0.3487
   78SLPC  H18X 7202   2.298   0.754   8.454  0.5688 -0.3647  1.1278
   78SLPC  H18Y 7203   2.431   0.625   8.443  0.1801  0.5434  0.3026
   78SLPC  H18Z 7204   2.251   0.590   8.444 -1.4274  1.2121  0.2384
   79SLPC     N 7205   0.811   1.416   5.963 -0.1484 -0.0462  0.1758
   79SLPC   C13 7206   0.838   1.338   5.835 -0.3528 -0.1482 -0.1704
   79SLPC  H13A 7207   0.874   1.414   5.768 -0.6747 -1.3424 -1.7404
   79SLPC  H13B 7208   0.910   1.259   5.853 -1.6910 -1.2680  0.4425
   79SLPC  H13C 7209   0.743   1.292   5.813 -0.8093  0.6571  0.0723
   79SLPC   C14 7210   0.724   1.529   5.913 -0.4132 -0.8355 -0.2574
   79SLPC  H14A 7211   0.780   1.588   5.841  0.1907 -1.5021 -0.3520
   79SLPC  H14B 7212   0.630   1.497   5.871 -0.9779 -1.3986  1.3597
   79SLPC  H14C 7213   0.706   1.594   5.997  2.0494 -0.2451 -0.0945
   79SLPC   C15 7214   0.936   1.477   6.027 -0.3524 -0.6477  0.5358
   79SLPC  H15A 7215   1.003   1.402   6.065  1.0486 -0.5719 -1.5925
   79SLPC  H15B 7216   0.989   1.522   5.944 -0.9593  0.5341  0.7702
   79SLPC  H15C 7217   0.914   1.540   6.111  0.8459 -1.3780  1.4287
   79SLPC   C12 7218   0.740   1.315   6.056 -0.1157  0.5029 -0.4418
   79SLPC  H12A 7219   0.804   1.228   6.061 -0.5394  0.1182 -1.5242
   79SLPC  H12B 7220   0.649   1.282   6.008 -0.8798  0.5736  0.8873
   79SLPC   C11 7221   0.690   1.351   6.196  0.3647  0.1999  0.4740
   79SLPC  H11A 7222   0.769   1.388   6.265  0.6337  0.1727  0.1832
   79SLPC  H11B 7223   0.666   1.259   6.255  2.5107  0.3597  1.6742
   79SLPC     P 7224   0.424   1.393   6.197  0.0940  0.2359  0.0938
   79SLPC   O13 7225   0.333   1.504   6.177  0.4764  0.3983  0.0871
   79SLPC   O14 7226   0.407   1.281   6.104  0.9193 -0.5239 -0.6777
   79SLPC   O12 7227   0.579   1.439   6.184 -0.5420 -0.0548  0.0135
   79SLPC   O11 7228   0.408   1.360   6.353  0.2922  0.2972 -0.7786
   79SLPC    C1 7229   0.414   1.465   6.451 -0.5273 -0.0523  0.1503
   79SLPC    HA 7230   0.493   1.536   6.418  0.3986 -0.9606  0.3339
   79SLPC    HB 7231   0.316   1.517   6.458  1.0484  2.9955  1.8428
   79SLPC    C2 7232   0.464   1.407   6.586  0.0024  0.0529 -0.0156
   79SLPC    HS 7233   0.387   1.337   6.626  0.8028 -0.4855  0.6058
   79SLPC   O21 7234   0.493   1.520   6.673  0.5098  0.0701  0.4446
   79SLPC   C21 7235   0.491   1.492   6.800 -0.8752 -0.7363 -0.3212
   79SLPC   O22 7236   0.459   1.391   6.856  0.2201  0.0079 -0.3116
   79SLPC   C22 7237   0.554   1.609   6.877  0.8353 -0.3515  0.7049
   79SLPC   H2R 7238   0.644   1.637   6.818  0.0027 -2.3346 -1.6671
   79SLPC   H2S 7239   0.475   1.687   6.881  0.6518 -0.5736  1.8536
   79SLPC    C3 7240   0.599   1.328   6.556  0.0992  0.0260  0.5446
   79SLPC    HX 7241   0.666   1.406   6.513  0.8815 -0.4854  0.8059
   79SLPC    HY 7242   0.578   1.252   6.478 -0.6636 -1.1088  1.8124
   79SLPC   O31 7243   0.669   1.287   6.674  0.0473  1.0526  0.0183
   79SLPC   C31 7244   0.627   1.170   6.710 -0.3292  0.0497  0.6237
   79SLPC   O32 7245   0.527   1.110   6.669  0.3153 -0.4279  0.6032
   79SLPC   C32 7246   0.728   1.113   6.818  0.2224  0.0307  0.4234
   79SLPC   H2X 7247   0.813   1.185   6.831  0.2271  0.2799 -0.8643
   79SLPC   H2Y 7248   0.773   1.019   6.780  0.1091  0.0964  0.1286
   79SLPC   C23 7249   0.596   1.556   7.023  0.7024  0.0796  0.2195
   79SLPC   H3R 7250   0.649   1.459   7.022  3.5151  1.5217  0.1134
   79SLPC   H3S 7251   0.502   1.534   7.080  0.6334  0.3234  0.2023
   79SLPC   C24 7252   0.689   1.655   7.098 -0.2356  0.5177  0.5045
   79SLPC   H4R 7253   0.695   1.758   7.056  2.1526  0.7046  1.1663
   79SLPC   H4S 7254   0.792   1.613   7.094 -1.1845 -2.1053  1.3115
   79SLPC   C25 7255   0.659   1.669   7.248 -0.2220 -1.1165  0.0773
   79SLPC   H5R 7256   0.550   1.689   7.260 -0.0822 -1.9892  3.6958
   79SLPC   H5S 7257   0.712   1.760   7.285 -1.0860 -0.6015  0.0830
   79SLPC   C26 7258   0.698   1.553   7.340  0.5748  0.1526 -0.2183
   79SLPC   H6R 7259   0.807   1.533   7.342  0.1549 -2.3967  1.2766
   79SLPC   H6S 7260   0.657   1.461   7.293  0.8219 -0.2702  0.3831
   79SLPC   C27 7261   0.646   1.572   7.480  0.1098  0.5943 -0.1794
   79SLPC   H7R 7262   0.539   1.603   7.479 -0.3679 -0.9999 -0.9052
   79SLPC   H7S 7263   0.700   1.657   7.527  1.0505  0.3227 -0.7576
   79SLPC   C28 7264   0.674   1.449   7.568  0.3145  0.8194 -0.2915
   79SLPC   H8R 7265   0.782   1.423   7.561  0.2733  0.9827 -1.6910
   79SLPC   H8S 7266   0.625   1.360   7.523  1.0670 -0.0839  0.6138
   79SLPC   C29 7267   0.626   1.466   7.712 -0.1144 -0.1466  0.0720
   79SLPC   H9R 7268   0.526   1.513   7.713 -0.0119  0.0784 -0.0007
   79SLPC  C210 7269   0.683   1.439   7.829  0.0452  0.3030 -0.5284
   79SLPC  H10R 7270   0.617   1.452   7.916  0.6774  1.5114 -0.2084
   79SLPC  C211 7271   0.814   1.381   7.861  0.3486 -0.7977  0.8450
   79SLPC  H11R 7272   0.898   1.422   7.802  1.5831 -0.6924  2.6020
   79SLPC  H11S 7273   0.806   1.273   7.839  0.3808 -1.4606  3.6310
   79SLPC  C212 7274   0.855   1.399   8.005 -0.3341  0.1280 -0.1428
   79SLPC  H12R 7275   0.938   1.471   8.010 -2.0065  2.1670 -0.4947
   79SLPC  C213 7276   0.838   1.332   8.122  0.2574  0.3770  0.9132
   79SLPC  H13R 7277   0.875   1.362   8.220 -2.3301  1.2246  1.7128
   79SLPC  C214 7278   0.745   1.212   8.130 -0.7252 -0.5682 -0.5304
   79SLPC  H14R 7279   0.798   1.115   8.131  0.8982  0.2566 -2.0648
   79SLPC  H14S 7280   0.677   1.200   8.043 -1.3341 -0.3254 -0.1015
   79SLPC  C215 7281   0.645   1.223   8.247  0.6983  0.1262 -0.4555
   79SLPC  H15R 7282   0.712   1.225   8.335 -0.6197 -1.5605  0.6607
   79SLPC  H15S 7283   0.590   1.127   8.237  1.9960 -0.6480 -0.3750
   79SLPC  C216 7284   0.559   1.349   8.239  0.2256 -0.9109  0.2149
   79SLPC  H16R 7285   0.531   1.371   8.133  0.0761 -1.2218  0.1872
   79SLPC  H16S 7286   0.610   1.433   8.290 -2.1315  0.9876 -0.3270
   79SLPC  C217 7287   0.436   1.334   8.329 -0.6021  0.7723  0.0798
   79SLPC  H17R 7288   0.469   1.304   8.430  1.3059  2.4526 -0.0000
   79SLPC  H17S 7289   0.353   1.272   8.286 -0.7710  2.1830 -1.7773
   79SLPC  C218 7290   0.366   1.474   8.358  0.1790 -0.3273 -0.4136
   79SLPC  H18R 7291   0.332   1.520   8.263 -0.2992 -1.5957 -0.8772
   79SLPC  H18S 7292   0.441   1.550   8.390  0.7461  0.5092 -3.4362
   79SLPC  H18T 7293   0.285   1.472   8.434  0.8713 -0.8988  0.3354
   79SLPC   C33 7294   0.669   1.093   6.959  0.3153  0.7942  0.1543
   79SLPC   H3X 7295   0.605   1.180   6.985 -1.0645  0.7968 -2.8160
   79SLPC   H3Y 7296   0.756   1.087   7.028  0.4800 -0.0899 -0.1229
   79SLPC   C34 7297   0.605   0.958   6.973 -0.3224 -0.9851 -0.9721
   79SLPC   H4X 7298   0.677   0.884   6.932  1.2235  0.0419 -0.1994
   79SLPC   H4Y 7299   0.506   0.958   6.922 -0.4628  0.2418 -0.7457
   79SLPC   C35 7300   0.572   0.921   7.119 -0.4264 -0.3216 -0.3127
   79SLPC   H5X 7301   0.670   0.929   7.170 -0.4324  2.0638 -0.5975
   79SLPC   H5Y 7302   0.526   0.820   7.125 -0.1612 -0.3896  0.9361
   79SLPC   C36 7303   0.482   1.012   7.194  0.5289 -0.5669  0.1033
   79SLPC   H6X 7304   0.384   1.016   7.140  0.7809 -3.1590 -0.6825
   79SLPC   H6Y 7305   0.526   1.114   7.197  2.2520 -1.2351 -0.9888
   79SLPC   C37 7306   0.458   0.958   7.336 -0.4307  0.5533  0.0280
   79SLPC   H7X 7307   0.561   0.931   7.368 -1.0481 -1.0896  0.7634
   79SLPC   H7Y 7308   0.400   0.864   7.321 -0.7148  0.7849 -0.3478
   79SLPC   C38 7309   0.390   1.047   7.442  0.0375  0.4005  0.2183
   79SLPC   H8X 7310   0.282   1.056   7.416  0.6184  1.6244 -2.0953
   79SLPC   H8Y 7311   0.437   1.147   7.446 -2.3860  1.7346 -1.5338
   79SLPC   C39 7312   0.392   0.979   7.577 -0.0330  0.4251 -0.5839
   79SLPC   H9X 7313   0.496   0.963   7.615  0.4791  1.1767 -1.6126
   79SLPC   H9Y 7314   0.342   0.883   7.553 -1.6404  0.8791  0.7641
   79SLPC  C310 7315   0.313   1.060   7.674  0.7948 -0.3717 -1.1333
   79SLPC  H10X 7316   0.212   1.069   7.630  0.0738 -0.5059  0.4301
   79SLPC  H10Y 7317   0.355   1.162   7.681  1.5446 -0.7476  0.1233
   79SLPC  C311 7318   0.298   0.995   7.812 -0.2046  0.1833 -1.1932
   79SLPC  H11X 7319   0.398   0.996   7.860  0.2579  1.0166 -2.1268
   79SLPC  H11Y 7320   0.269   0.890   7.793 -0.1507 -0.4105  1.6075
   79SLPC  C312 7321   0.202   1.065   7.907  0.3893  0.5563  0.3638
   79SLPC  H12X 7322   0.103   1.088   7.863  0.6579  0.5852 -0.2288
   79SLPC  H12Y 7323   0.257   1.154   7.943 -0.3484  0.8115  0.8808
   79SLPC  C313 7324   0.164   0.972   8.021 -0.3404 -0.5111 -0.3204
   79SLPC  H13X 7325   0.244   0.936   8.089  0.0559  1.3875  0.2904
   79SLPC  H13Y 7326   0.113   0.885   7.975 -2.7450  2.0129 -2.8736
   79SLPC  C314 7327   0.070   1.042   8.124 -0.0841  0.7095  0.1761
   79SLPC  H14X 7328  -0.014   1.088   8.068 -1.2972 -0.5879  0.8354
   79SLPC  H14Y 7329   0.134   1.124   8.164 -0.0230  0.4949  0.5301
   79SLPC  C315 7330   0.005   0.960   8.242  0.3806  0.3083 -0.6558
   79SLPC  H15X 7331  -0.065   0.886   8.199  0.1292  0.8522 -1.1923
   79SLPC  H15Y 7332  -0.046   1.035   8.305 -0.2373  0.0745 -0.8666
   79SLPC  C316 7333   0.095   0.873   8.324  0.1622  0.3314  0.1146
   79SLPC  H16X 7334   0.176   0.936   8.366 -0.1589  1.4469 -0.8928
   79SLPC  H16Y 7335   0.150   0.805   8.255  1.2261  0.8442  0.4401
   79SLPC  C317 7336   0.027   0.778   8.429 -0.2745  0.1446  0.0717
   79SLPC  H17X 7337  -0.042   0.716   8.367 -0.3913 -1.4590  1.6978
   79SLPC  H17Y 7338  -0.030   0.838   8.502  1.0231  1.0608  0.3676
   79SLPC  C318 7339   0.123   0.691   8.499  0.1904 -0.7051 -0.0144
   79SLPC  H18X 7340   0.182   0.748   8.573  1.9369 -1.4301 -0.7686
   79SLPC  H18Y 7341   0.199   0.645   8.433  1.3163 -0.5081  1.1089
   79SLPC  H18Z 7342   0.079   0.605   8.554 -0.4366  0.3760  1.1960
   80SLPC     N 7343   0.495   4.436   6.176 -0.4032  0.3921 -0.0563
   80SLPC   C13 7344   0.618   4.509   6.194  0.3934  0.1125 -0.0412
   80SLPC  H13A 7345   0.591   4.612   6.182 -2.1744 -0.4894  0.1168
   80SLPC  H13B 7346   0.670   4.480   6.284 -0.7159 -2.1526 -0.0559
   80SLPC  H13C 7347   0.685   4.481   6.114  1.6306 -2.2901  1.6770
   80SLPC   C14 7348   0.438   4.465   6.038  0.8416 -0.2250  0.3118
   80SLPC  H14A 7349   0.430   4.573   6.031  1.2482 -0.2926 -2.8951
   80SLPC  H14B 7350   0.499   4.435   5.954  0.5155  0.5903 -0.2298
   80SLPC  H14C 7351   0.340   4.420   6.029  0.9422 -0.6354  1.1675
   80SLPC   C15 7352   0.398   4.480   6.281  0.5626  0.8796  0.2111
   80SLPC  H15A 7353   0.308   4.420   6.287  0.9420  0.3454  0.6119
   80SLPC  H15B 7354   0.443   4.457   6.377  0.8589 -1.5310 -0.4456
   80SLPC  H15C 7355   0.382   4.587   6.275  0.2710  0.8848  0.9245
   80SLPC   C12 7356   0.511   4.284   6.193 -0.0284  0.3414  0.0080
   80SLPC  H12A 7357   0.417   4.232   6.204  0.0891 -0.5643 -2.7116
   80SLPC  H12B 7358   0.557   4.253   6.286 -0.9811 -2.4255 -0.3504
   80SLPC   C11 7359   0.596   4.211   6.088  0.4660  0.4330  0.4281
   80SLPC  H11A 7360   0.546   4.229   5.990  0.7070 -0.0938  0.2049
   80SLPC  H11B 7361   0.594   4.103   6.111 -2.2399  0.1635 -0.6397
   80SLPC     P 7362   0.827   4.240   6.202 -0.0603  0.0652  0.1237
   80SLPC   O13 7363   0.882   4.105   6.192 -0.3492  0.6658  0.1258
   80SLPC   O14 7364   0.930   4.346   6.194  0.5286  0.0124 -0.6319
   80SLPC   O12 7365   0.731   4.259   6.082  0.1149 -0.5893  0.3969
   80SLPC   O11 7366   0.749   4.252   6.333  0.5547 -0.7937 -0.8940
   80SLPC    C1 7367   0.788   4.334   6.451  0.1621  0.3340  1.2884
   80SLPC    HA 7368   0.805   4.437   6.414 -2.0658 -0.2295 -1.5913
   80SLPC    HB 7369   0.703   4.345   6.522 -0.0501  3.0610  0.7168
   80SLPC    C2 7370   0.907   4.271   6.535 -0.5021  0.6382 -0.1600
   80SLPC    HS 7371   0.994   4.265   6.467 -0.1108  0.4104  0.3509
   80SLPC   O21 7372   0.867   4.135   6.572 -0.7827  0.1625  0.6163
   80SLPC   C21 7373   0.954   4.066   6.641 -0.5042 -0.0805  0.1975
   80SLPC   O22 7374   1.070   4.106   6.661  0.0525 -0.1604 -0.2818
   80SLPC   C22 7375   0.898   3.935   6.684  0.3544  0.6290 -0.1326
   80SLPC   H2R 7376   0.795   3.921   6.647  0.0561  0.7105  0.6390
   80SLPC   H2S 7377   0.963   3.856   6.641  0.4591 -0.2016  1.4482
   80SLPC    C3 7378   0.926   4.371   6.651  0.2979  0.2307  0.3022
   80SLPC    HX 7379   0.841   4.443   6.649  1.2748  1.4216 -1.9441
   80SLPC    HY 7380   1.015   4.430   6.617 -0.8811  1.6986 -0.3699
   80SLPC   O31 7381   0.935   4.324   6.788  0.1524 -0.1927 -0.1023
   80SLPC   C31 7382   1.011   4.394   6.873  0.2827 -0.6450  0.1708
   80SLPC   O32 7383   1.070   4.500   6.850 -0.1159  0.3491  0.1653
   80SLPC   C32 7384   0.996   4.326   7.007 -0.8983 -0.1808  0.4103
   80SLPC   H2X 7385   1.098   4.311   7.047 -1.1851 -1.3679  0.7462
   80SLPC   H2Y 7386   0.953   4.223   7.002  1.1824 -1.2118  2.0998
   80SLPC   C23 7387   0.906   3.925   6.840 -0.6311 -0.2068  0.1884
   80SLPC   H3R 7388   0.999   3.967   6.883 -0.8582 -0.2849  0.7628
   80SLPC   H3S 7389   0.881   3.821   6.869 -1.2712  0.8320  3.8693
   80SLPC   C24 7390   0.802   4.008   6.907 -0.5098  0.2441 -0.0583
   80SLPC   H4R 7391   0.701   3.984   6.867 -0.0904 -3.4215  0.7122
   80SLPC   H4S 7392   0.829   4.111   6.875  0.7733 -0.6088 -1.8853
   80SLPC   C25 7393   0.810   3.994   7.063  0.0248 -0.2043  0.2657
   80SLPC   H5R 7394   0.897   4.053   7.098 -0.4449  0.0981  0.9482
   80SLPC   H5S 7395   0.826   3.886   7.083 -2.1989 -1.0991 -2.1732
   80SLPC   C26 7396   0.678   4.035   7.133 -0.1616 -0.1676  0.3488
   80SLPC   H6R 7397   0.607   3.952   7.115  0.0013 -0.6191  1.6816
   80SLPC   H6S 7398   0.631   4.126   7.090 -2.0619 -0.8771  0.8258
   80SLPC   C27 7399   0.700   4.054   7.286  0.1517 -0.3565  0.2507
   80SLPC   H7R 7400   0.768   4.142   7.291  2.2990 -1.5713 -3.4115
   80SLPC   H7S 7401   0.769   3.974   7.318  0.2670 -0.0374  0.8122
   80SLPC   C28 7402   0.564   4.056   7.356 -0.2459 -0.0382  0.1752
   80SLPC   H8R 7403   0.522   3.957   7.328 -0.5697  0.0434  0.3807
   80SLPC   H8S 7404   0.503   4.137   7.311  0.8705  0.1120 -1.1526
   80SLPC   C29 7405   0.586   4.084   7.497  0.5253  0.4131 -0.5065
   80SLPC   H9R 7406   0.550   4.178   7.541 -3.2005 -0.1965 -1.8408
   80SLPC  C210 7407   0.636   4.002   7.592 -1.0201  0.1650 -0.0896
   80SLPC  H10R 7408   0.642   4.033   7.697  0.6372 -2.5584  0.7088
   80SLPC  C211 7409   0.681   3.861   7.563 -0.5641  0.5547  0.0337
   80SLPC  H11R 7410   0.647   3.819   7.466  1.0377  2.0156 -1.2088
   80SLPC  H11S 7411   0.642   3.789   7.638  0.0062  0.0547 -0.1363
   80SLPC  C212 7412   0.835   3.854   7.576  0.1873  0.6894 -0.4633
   80SLPC  H12R 7413   0.887   3.909   7.656  2.7236  0.6164 -1.9504
   80SLPC  C213 7414   0.907   3.756   7.512  0.3952 -0.4515  0.1380
   80SLPC  H13R 7415   1.016   3.762   7.526  0.2633 -0.3288  1.2585
   80SLPC  C214 7416   0.862   3.654   7.413  0.3027 -0.1093 -0.2605
   80SLPC  H14R 7417   0.783   3.690   7.344 -0.3464  0.8275  0.9233
   80SLPC  H14S 7418   0.814   3.571   7.469 -0.4669  0.9293  0.6901
   80SLPC  C215 7419   0.964   3.592   7.326  0.1334  0.3766  0.3579
   80SLPC  H15R 7420   0.914   3.506   7.277 -0.9603  1.5335 -0.6160
   80SLPC  H15S 7421   1.042   3.549   7.392  2.4652  0.5301 -2.1453
   80SLPC  C216 7422   1.024   3.677   7.220  0.7569 -0.8057 -0.1035
   80SLPC  H16R 7423   1.060   3.772   7.265  2.3913 -0.4751 -1.9560
   80SLPC  H16S 7424   0.964   3.721   7.137 -0.4247  0.9737  1.6016
   80SLPC  C217 7425   1.151   3.612   7.157 -0.1044  0.0314 -0.0469
   80SLPC  H17R 7426   1.187   3.536   7.229 -0.2294  1.2024  1.2901
   80SLPC  H17S 7427   1.228   3.691   7.143 -0.0496 -0.1549 -0.8366
   80SLPC  C218 7428   1.120   3.530   7.028  0.0449 -0.3354  0.8031
   80SLPC  H18R 7429   1.083   3.610   6.961 -1.0183 -1.6792 -0.2594
   80SLPC  H18S 7430   1.050   3.445   7.042  0.6100 -1.1639 -1.1696
   80SLPC  H18T 7431   1.225   3.504   7.005 -0.6238 -2.4436 -0.1050
   80SLPC   C33 7432   0.920   4.407   7.105  0.1820 -0.0227 -0.4328
   80SLPC   H3X 7433   0.959   4.507   7.132 -0.5180 -0.1347  1.0915
   80SLPC   H3Y 7434   0.931   4.355   7.202 -0.5957 -0.6044 -0.6465
   80SLPC   C34 7435   0.761   4.416   7.083 -0.5264 -0.1636  0.4394
   80SLPC   H4X 7436   0.721   4.322   7.039 -3.2104  1.2113 -0.2690
   80SLPC   H4Y 7437   0.734   4.500   7.015  0.7141 -0.1190 -0.0298
   80SLPC   C35 7438   0.695   4.467   7.212 -0.2308  0.1548  0.4354
   80SLPC   H5X 7439   0.744   4.558   7.254 -0.7600 -1.1430  4.2487
   80SLPC   H5Y 7440   0.711   4.395   7.295 -2.9948  0.0820  1.0227
   80SLPC   C36 7441   0.540   4.487   7.194  0.2592 -0.1700 -0.1179
   80SLPC   H6X 7442   0.502   4.391   7.152 -3.3998  1.7274 -1.5322
   80SLPC   H6Y 7443   0.527   4.567   7.118  0.5352 -0.1167 -0.1124
   80SLPC   C37 7444   0.464   4.524   7.314  0.8296 -0.4156  0.4574
   80SLPC   H7X 7445   0.469   4.445   7.392 -1.1881 -0.7465  0.3105
   80SLPC   H7Y 7446   0.363   4.539   7.270  0.4333 -0.4774  1.3476
   80SLPC   C38 7447   0.514   4.659   7.368  0.1765 -0.0712  0.2244
   80SLPC   H8X 7448   0.517   4.735   7.287  1.5866 -1.1461 -0.7640
   80SLPC   H8Y 7449   0.610   4.655   7.422 -0.6489 -1.2091  1.6756
   80SLPC   C39 7450   0.405   4.705   7.462  0.2692 -0.5064  0.1884
   80SLPC   H9X 7451   0.370   4.621   7.526 -0.5175 -0.3321  0.0074
   80SLPC   H9Y 7452   0.316   4.713   7.396  2.3150 -0.3058 -2.7515
   80SLPC  C310 7453   0.426   4.836   7.532  0.7043  1.2227 -0.2043
   80SLPC  H10X 7454   0.423   4.918   7.457 -2.4097  1.2663 -0.1490
   80SLPC  H10Y 7455   0.526   4.845   7.581  0.4964 -1.0129  0.7252
   80SLPC  C311 7456   0.313   4.868   7.627 -0.4366 -0.1871  0.2905
   80SLPC  H11X 7457   0.288   4.785   7.697 -2.3525 -0.6591 -0.8923
   80SLPC  H11Y 7458   0.219   4.877   7.568 -0.7856 -1.0964  0.6772
   80SLPC  C312 7459   0.337   4.993   7.710  0.5188  0.0684  0.3582
   80SLPC  H12X 7460   0.360   5.081   7.646  0.6979  0.3505  0.8012
   80SLPC  H12Y 7461   0.437   4.983   7.757  1.2744 -1.0506 -1.3786
   80SLPC  C313 7462   0.231   5.027   7.819  0.1539 -0.0410 -0.1718
   80SLPC  H13X 7463   0.213   4.936   7.881  2.1723  1.0129  2.1375
   80SLPC  H13Y 7464   0.139   5.037   7.759  0.4320 -1.3722 -0.8666
   80SLPC  C314 7465   0.275   5.135   7.912  0.0861  0.8990  0.0199
   80SLPC  H14X 7466   0.302   5.233   7.866  1.6388  2.3685  3.6530
   80SLPC  H14Y 7467   0.365   5.109   7.973 -1.8941 -2.2422  1.8622
   80SLPC  C315 7468   0.175   5.145   8.026  0.5321 -0.0470 -0.6027
   80SLPC  H15X 7469   0.079   5.118   7.975  1.3531 -2.5473 -0.9591
   80SLPC  H15Y 7470   0.164   5.250   8.059 -0.9069 -0.2326 -0.4088
   80SLPC  C316 7471   0.186   5.046   8.145 -0.4152 -0.4057 -0.2355
   80SLPC  H16X 7472   0.270   5.079   8.209 -2.4538 -0.7072  2.8210
   80SLPC  H16Y 7473   0.207   4.940   8.117  0.1245 -0.5370  0.6472
   80SLPC  C317 7474   0.060   5.061   8.223  0.0982  0.1475 -0.5372
   80SLPC  H17X 7475  -0.025   5.013   8.170 -0.3946 -2.2382  2.1451
   80SLPC  H17Y 7476   0.037   5.169   8.237  1.2948  0.2977  0.4245
   80SLPC  C318 7477   0.060   5.004   8.366  0.1614 -0.5806  0.7506
   80SLPC  H18X 7478  -0.040   5.011   8.414  0.4314  0.2318  1.2114
   80SLPC  H18Y 7479   0.132   5.062   8.427 -0.5854  1.5207 -0.2510
   80SLPC  H18Z 7480   0.068   4.893   8.365 -0.6567 -0.6548  1.2923
   81SAPS     N 7481   1.289   0.741  11.164 -0.2032 -0.5505  0.7150
   81SAPS   HN1 7482   1.293   0.809  11.242 -3.2588  1.4103 -0.6360
   81SAPS   HN2 7483   1.349   0.658  11.186  0.6031  0.7111  3.6678
   81SAPS   HN3 7484   1.328   0.791  11.081 -3.5338  2.5113  0.7703
   81SAPS   C12 7485   1.155   0.686  11.136  0.0945 -0.2262  0.4772
   81SAPS  H12A 7486   1.160   0.616  11.054 -2.7614  0.8557 -0.7595
   81SAPS   C13 7487   1.064   0.629  11.250 -0.7451 -0.5575  0.3374
   81SAPS  O13A 7488   1.113   0.631  11.369  0.3436  0.4889  0.5334
   81SAPS  O13B 7489   0.954   0.576  11.226  0.1976  0.2903  0.1870
   81SAPS   C11 7490   1.070   0.797  11.064  0.3468 -0.1787 -0.3624
   81SAPS  H11A 7491   1.056   0.881  11.134  1.6544 -0.1487 -0.1240
   81SAPS  H11B 7492   0.967   0.763  11.038 -0.1788  0.7877  0.3953
   81SAPS     P 7493   1.205   0.966  10.925 -0.4236 -0.0234 -0.0077
   81SAPS   O13 7494   1.118   1.075  10.977 -0.0935 -0.2711 -0.1355
   81SAPS   O14 7495   1.337   0.950  10.990  0.0092  0.0427 -0.4419
   81SAPS   O12 7496   1.130   0.827  10.936  0.0597 -0.2751 -0.1322
   81SAPS   O11 7497   1.225   0.962  10.774 -0.0692 -0.1894  0.2470
   81SAPS    C1 7498   1.327   0.904  10.694  0.0886 -0.7142 -0.3607
   81SAPS    HA 7499   1.427   0.949  10.713 -0.3652  0.2988 -0.3070
   81SAPS    HB 7500   1.341   0.797  10.720 -1.2627 -0.9379 -0.4560
   81SAPS    C2 7501   1.305   0.934  10.540  0.2312  0.5517  0.9274
   81SAPS    HS 7502   1.275   1.040  10.526  0.1093  0.5145  0.9034
   81SAPS   O21 7503   1.192   0.848  10.492 -0.1627 -0.0303  0.4729
   81SAPS   C21 7504   1.122   0.892  10.385 -0.4343 -0.1217  0.5441
   81SAPS   O22 7505   1.132   1.004  10.334 -0.3869  0.3541 -0.2690
   81SAPS   C22 7506   1.021   0.784  10.342 -0.0399 -0.9395 -0.4434
   81SAPS   H2R 7507   0.957   0.783  10.432 -1.0219 -0.1285 -1.1032
   81SAPS   H2S 7508   0.960   0.821  10.257  0.0397 -1.0626 -0.5547
   81SAPS    C3 7509   1.433   0.908  10.454  1.1277  0.2216 -0.3408
   81SAPS    HX 7510   1.448   0.798  10.458  1.1315  0.2127 -0.5829
   81SAPS    HY 7511   1.514   0.963  10.506 -0.7131  3.7499 -0.8421
   81SAPS   O31 7512   1.427   0.952  10.315  0.3460  0.7772  0.2532
   81SAPS   C31 7513   1.438   1.084  10.296  0.0941 -0.2349  0.1781
   81SAPS   O32 7514   1.442   1.167  10.387  0.0529 -0.3904  0.1690
   81SAPS   C32 7515   1.448   1.107  10.145 -0.6238 -0.5418  0.0076
   81SAPS   H2X 7516   1.343   1.117  10.109 -0.5310  1.3296  0.1844
   81SAPS   H2Y 7517   1.500   1.026  10.090 -1.7723 -1.4216  0.1684
   81SAPS   C23 7518   1.079   0.644  10.316  0.2682 -0.2301  0.0580
   81SAPS   H3R 7519   0.990   0.578  10.323 -0.4189  0.7559  1.0749
   81SAPS   H3S 7520   1.146   0.607  10.397  1.6726  0.9765 -0.5033
   81SAPS   C24 7521   1.151   0.630  10.172  0.1225  0.4769 -0.2628
   81SAPS   H4R 7522   1.076   0.674  10.102  0.6952 -0.7030 -1.6626
   81SAPS   H4S 7523   1.142   0.524  10.140  1.1659 -0.1510  1.3655
   81SAPS   C25 7524   1.282   0.695  10.147 -0.4760 -0.9065  0.7227
   81SAPS   H5R 7525   1.367   0.666  10.211  0.3002  2.9511  1.6793
   81SAPS   C26 7526   1.309   0.793  10.055  0.2255 -0.1638  0.7291
   81SAPS   H6R 7527   1.415   0.824  10.056 -0.3228  1.8826  1.3114
   81SAPS   C27 7528   1.212   0.855   9.957  0.6016 -0.4126  0.1286
   81SAPS   H7R 7529   1.269   0.928   9.896  1.6639 -1.1997  0.1542
   81SAPS   H7S 7530   1.129   0.907  10.011 -1.7078 -0.9166 -2.6716
   81SAPS   C28 7531   1.131   0.768   9.867 -0.6044 -0.1969 -0.1979
   81SAPS   H8R 7532   1.053   0.713   9.923  0.1726  0.1155  1.2388
   81SAPS   C29 7533   1.148   0.743   9.735  0.7544 -0.5188  0.4231
   81SAPS   H9R 7534   1.081   0.669   9.689 -0.6943  1.9730 -1.7746
   81SAPS  C210 7535   1.246   0.810   9.646  0.5091  0.1339 -0.6513
   81SAPS  H10R 7536   1.296   0.722   9.601 -2.2541 -1.6591 -0.4607
   81SAPS  H10S 7537   1.323   0.871   9.699 -0.7488  1.2278 -0.0277
   81SAPS  C211 7538   1.187   0.904   9.533 -0.3000  0.4007 -0.0235
   81SAPS  H11R 7539   1.180   1.008   9.567  2.0600 -0.2812  3.0777
   81SAPS  C212 7540   1.147   0.871   9.407  0.6312  0.3952 -0.5839
   81SAPS  H12R 7541   1.088   0.952   9.362  1.7048  2.5572  1.6677
   81SAPS  C213 7542   1.146   0.738   9.328  0.1839 -0.9164  0.1163
   81SAPS  H13R 7543   1.248   0.698   9.345 -0.1157 -2.5716 -1.5738
   81SAPS  H13S 7544   1.146   0.765   9.221  2.3070 -1.4726 -0.0738
   81SAPS  C214 7545   1.040   0.641   9.368  0.6979 -0.3626  0.3499
   81SAPS  H14R 7546   0.972   0.670   9.449 -0.7396 -0.2835 -0.8313
   81SAPS  C215 7547   1.010   0.520   9.317 -0.2050  0.2626  0.3743
   81SAPS  H15R 7548   0.940   0.464   9.380 -1.1534  0.3234 -0.6006
   81SAPS  C216 7549   1.089   0.460   9.206  0.8469  0.0079 -0.2602
   81SAPS  H16R 7550   1.156   0.389   9.259  1.0615 -0.5930 -1.3223
   81SAPS  H16S 7551   1.143   0.539   9.150 -1.4811  0.9073 -1.4014
   81SAPS  C217 7552   0.992   0.373   9.129 -0.0979 -0.4010 -0.3522
   81SAPS  H17R 7553   0.949   0.301   9.202 -0.7287  0.3564  0.0386
   81SAPS  H17S 7554   1.061   0.318   9.062 -0.4663 -0.5873 -0.5829
   81SAPS  C218 7555   0.879   0.456   9.065 -0.6754 -0.3246 -0.0861
   81SAPS  H18R 7556   0.818   0.502   9.146  0.9998 -0.1029  1.1155
   81SAPS  H18S 7557   0.821   0.387   9.001  2.0508 -1.0551 -1.9626
   81SAPS  C219 7558   0.923   0.576   8.978 -0.3627  0.2081  0.9776
   81SAPS  H19R 7559   1.010   0.550   8.913 -0.6020  0.4835  0.5436
   81SAPS  H19S 7560   0.943   0.662   9.045 -0.0737 -0.8585  2.2971
   81SAPS  C220 7561   0.815   0.620   8.873 -0.2984 -0.5288 -0.2308
   81SAPS  H20R 7562   0.724   0.655   8.926 -0.2995 -1.6013  0.5077
   81SAPS  H20S 7563   0.773   0.529   8.827  0.1524 -0.1703 -1.3737
   81SAPS  H20T 7564   0.844   0.698   8.800 -1.2191 -0.0247 -0.0664
   81SAPS   C33 7565   1.521   1.241  10.116 -0.0071 -0.3205 -0.0016
   81SAPS   H3X 7566   1.615   1.256  10.174 -1.0358  3.0128  1.0273
   81SAPS   H3Y 7567   1.467   1.325  10.163 -1.2685 -1.4658  0.6768
   81SAPS   C34 7568   1.552   1.252   9.966  0.3115 -0.6936 -1.0127
   81SAPS   H4X 7569   1.609   1.166   9.926 -0.8734 -1.9931 -0.0017
   81SAPS   H4Y 7570   1.596   1.350   9.939  0.1675 -0.6300 -1.0226
   81SAPS   C35 7571   1.416   1.248   9.885 -0.3047  0.2492 -0.1092
   81SAPS   H5X 7572   1.370   1.153   9.917  1.5711 -0.4442  0.6468
   81SAPS   H5Y 7573   1.441   1.241   9.776 -0.5440  0.6703 -0.1926
   81SAPS   C36 7574   1.320   1.361   9.912 -0.1288  0.2878  0.2139
   81SAPS   H6X 7575   1.371   1.453   9.877  1.1561 -0.7569 -0.7644
   81SAPS   H6Y 7576   1.314   1.383  10.021 -0.0308  0.1446  0.2493
   81SAPS   C37 7577   1.178   1.344   9.856 -0.4515 -0.6275  0.4540
   81SAPS   H7X 7578   1.114   1.435   9.869 -0.3585 -0.4355 -0.3847
   81SAPS   H7Y 7579   1.126   1.275   9.926  0.5350 -0.7009  1.1404
   81SAPS   C38 7580   1.172   1.313   9.706 -0.9695 -0.6503 -0.4071
   81SAPS   H8X 7581   1.211   1.210   9.691 -1.3092 -0.7787 -0.4189
   81SAPS   H8Y 7582   1.240   1.386   9.658  0.2774 -2.6069 -1.7609
   81SAPS   C39 7583   1.022   1.320   9.649 -0.5175  0.1382  0.0603
   81SAPS   H9X 7584   0.967   1.401   9.702  0.2360 -0.3905  1.7169
   81SAPS   H9Y 7585   0.964   1.227   9.667  1.1991 -1.0416 -0.2574
   81SAPS  C310 7586   1.024   1.325   9.499  0.2732 -0.2512  0.5559
   81SAPS  H10X 7587   1.069   1.233   9.457  2.4622 -0.0113  2.1847
   81SAPS  H10Y 7588   1.087   1.408   9.459 -0.2147 -0.4119 -0.5870
   81SAPS  C311 7589   0.882   1.355   9.449  0.8625  0.0276 -0.2324
   81SAPS  H11X 7590   0.831   1.443   9.493  1.6781  0.0483  0.6917
   81SAPS  H11Y 7591   0.814   1.275   9.486  1.5426 -0.3182  0.2779
   81SAPS  C312 7592   0.874   1.381   9.299  0.6632 -0.6719  0.9095
   81SAPS  H12X 7593   0.890   1.287   9.241  0.2686 -0.2102  0.0308
   81SAPS  H12Y 7594   0.958   1.445   9.266 -1.2439  0.4460 -2.1120
   81SAPS  C313 7595   0.734   1.438   9.257  0.1670  0.4934 -0.1456
   81SAPS  H13X 7596   0.720   1.545   9.285 -0.1957  0.4212 -0.0483
   81SAPS  H13Y 7597   0.655   1.385   9.314  0.0102  0.4413 -0.4104
   81SAPS  C314 7598   0.709   1.415   9.105  0.4229 -0.4470  0.3399
   81SAPS  H14X 7599   0.685   1.307   9.090 -0.6749  0.1873 -3.4967
   81SAPS  H14Y 7600   0.796   1.452   9.047  0.1992 -0.5666 -0.0773
   81SAPS  C315 7601   0.572   1.485   9.073 -0.1722  1.0262  0.7854
   81SAPS  H15X 7602   0.578   1.595   9.089  2.0403  1.6946 -3.4179
   81SAPS  H15Y 7603   0.491   1.439   9.134  0.8440 -3.9849 -1.1768
   81SAPS  C316 7604   0.537   1.467   8.926 -0.4622  0.5410  0.2309
   81SAPS  H16X 7605   0.550   1.358   8.914 -0.5388  0.4082  1.2887
   81SAPS  H16Y 7606   0.612   1.529   8.870  0.3720  0.7327  1.5269
   81SAPS  C317 7607   0.402   1.501   8.875 -0.5699 -0.2408 -0.0226
   81SAPS  H17X 7608   0.397   1.610   8.891  1.8848  0.2199 -1.8051
   81SAPS  H17Y 7609   0.318   1.453   8.929 -1.8895 -1.3683 -2.8895
   81SAPS  C318 7610   0.383   1.485   8.726  0.1119  0.5753 -0.9922
   81SAPS  H18X 7611   0.373   1.377   8.699 -1.3762  0.1145  1.1002
   81SAPS  H18Y 7612   0.453   1.547   8.667  2.0668 -0.3902  0.2288
   81SAPS  H18Z 7613   0.286   1.531   8.695 -2.1079 -1.4202  2.2909
   82SAPS     N 7614   0.260   3.290  10.886  0.4024 -0.3322  0.0583
   82SAPS   HN1 7615   0.217   3.239  10.806  0.2004 -0.0833  0.0067
   82SAPS   HN2 7616   0.179   3.325  10.941 -0.3880 -0.9851 -0.6716
   82SAPS   HN3 7617   0.304   3.373  10.840 -2.8131  1.5189 -0.0351
   82SAPS   C12 7618   0.356   3.216  10.966  0.5898  0.5224 -0.1971
   82SAPS  H12A 7619   0.439   3.207  10.898  0.7290 -0.1982  0.0623
   82SAPS   C13 7620   0.409   3.286  11.101  0.3622 -0.3992  0.0098
   82SAPS  O13A 7621   0.389   3.413  11.121  0.7128  0.0396 -0.1090
   82SAPS  O13B 7622   0.496   3.222  11.163 -0.1654 -0.1388 -0.0407
   82SAPS   C11 7623   0.296   3.074  11.001  0.2159 -0.4979  0.1749
   82SAPS  H11A 7624   0.199   3.085  11.055  0.7532  2.1735  0.7403
   82SAPS  H11B 7625   0.347   3.015  11.080 -0.5284 -2.9388 -1.0619
   82SAPS     P 7626   0.392   2.885  10.850  0.0971 -0.1356  0.1115
   82SAPS   O13 7627   0.526   2.941  10.832 -0.1770 -0.2836 -0.0077
   82SAPS   O14 7628   0.382   2.777  10.954  0.0332  0.2627 -0.0834
   82SAPS   O12 7629   0.286   2.998  10.881  0.4020  0.2695 -0.1023
   82SAPS   O11 7630   0.359   2.806  10.720 -0.1736  0.2369  0.0458
   82SAPS    C1 7631   0.274   2.860  10.617  0.2954  0.9590 -0.5804
   82SAPS    HA 7632   0.181   2.799  10.618 -0.3895  1.9662  1.4030
   82SAPS    HB 7633   0.246   2.965  10.642  1.4059  1.2606 -0.5849
   82SAPS    C2 7634   0.345   2.863  10.486  0.6159  0.1615  0.0504
   82SAPS    HS 7635   0.278   2.910  10.411  1.2396  2.7622  1.0189
   82SAPS   O21 7636   0.370   2.719  10.451  0.0870  0.0176 -0.3958
   82SAPS   C21 7637   0.268   2.651  10.406  0.8191  0.4418  0.0068
   82SAPS   O22 7638   0.156   2.699  10.392 -0.0390  0.1837 -0.4679
   82SAPS   C22 7639   0.306   2.513  10.364  0.0107 -0.5234 -0.5012
   82SAPS   H2R 7640   0.416   2.519  10.356 -0.1190  0.3002 -1.8425
   82SAPS   H2S 7641   0.279   2.449  10.452 -1.3845  0.3708 -0.2419
   82SAPS    C3 7642   0.476   2.945  10.484  0.4773 -0.7409  0.1439
   82SAPS    HX 7643   0.548   2.918  10.564  1.5501  2.5690  0.4459
   82SAPS    HY 7644   0.455   3.053  10.498 -0.2567 -0.8180 -0.3283
   82SAPS   O31 7645   0.527   2.939  10.350  0.4341  0.5417  0.3401
   82SAPS   C31 7646   0.644   2.884  10.341 -0.3049 -0.1601 -0.2174
   82SAPS   O32 7647   0.709   2.835  10.432  0.3605  0.0521 -0.2183
   82SAPS   C32 7648   0.694   2.885  10.193  0.1184 -0.1309 -0.1426
   82SAPS   H2X 7649   0.805   2.894  10.195  0.1704 -0.6219 -0.5226
   82SAPS   H2Y 7650   0.641   2.967  10.140 -0.8010 -1.8164 -1.9763
   82SAPS   C23 7651   0.247   2.455  10.234 -0.0636  0.0005 -0.0679
   82SAPS   H3R 7652   0.145   2.499  10.220 -0.0453  1.0624  2.6825
   82SAPS   H3S 7653   0.228   2.349  10.260 -1.2906 -0.7111 -3.2630
   82SAPS   C24 7654   0.334   2.460  10.113  0.4637 -0.4243  0.0122
   82SAPS   H4R 7655   0.306   2.387  10.035 -1.1056 -1.1986  1.2568
   82SAPS   H4S 7656   0.435   2.424  10.143 -0.3724 -2.9493 -0.0214
   82SAPS   C25 7657   0.326   2.600  10.060 -0.3402 -0.8121 -0.8709
   82SAPS   H5R 7658   0.349   2.682  10.129 -0.2675  0.5432 -2.4488
   82SAPS   C26 7659   0.295   2.633   9.934  0.5201 -0.0486  0.4632
   82SAPS   H6R 7660   0.279   2.739   9.913 -0.9196 -0.5768 -1.3253
   82SAPS   C27 7661   0.268   2.546   9.814 -0.1426 -1.0692 -0.0815
   82SAPS   H7R 7662   0.203   2.606   9.747  0.1063 -0.7988 -0.0851
   82SAPS   H7S 7663   0.213   2.452   9.836  0.1332 -0.8525  1.6603
   82SAPS   C28 7664   0.395   2.496   9.751 -1.0569  0.2347 -0.1546
   82SAPS   H8R 7665   0.457   2.455   9.832 -1.7406 -0.9805 -0.2290
   82SAPS   C29 7666   0.432   2.514   9.625  0.2454 -0.0908 -0.2034
   82SAPS   H9R 7667   0.511   2.448   9.586  1.1083  1.6139 -1.4589
   82SAPS  C210 7668   0.351   2.594   9.527 -0.6597  0.0195  0.7739
   82SAPS  H10R 7669   0.418   2.645   9.455 -1.1311  0.6939  0.7999
   82SAPS  H10S 7670   0.287   2.660   9.589  1.2997  1.8290  0.9830
   82SAPS  C211 7671   0.257   2.495   9.455 -0.2780 -0.5024  0.9326
   82SAPS  H11R 7672   0.209   2.427   9.527  2.2413 -0.9724  2.2732
   82SAPS  C212 7673   0.242   2.491   9.321 -0.4243  0.0642  0.3178
   82SAPS  H12R 7674   0.162   2.428   9.279 -0.4295  1.0616 -1.2158
   82SAPS  C213 7675   0.315   2.568   9.218 -1.1303  0.0274 -0.2416
   82SAPS  H13R 7676   0.294   2.677   9.232 -2.2424 -0.2641  0.5411
   82SAPS  H13S 7677   0.273   2.528   9.124 -1.3553 -0.6543  0.1485
   82SAPS  C214 7678   0.465   2.545   9.205 -0.0270  0.6543 -0.0802
   82SAPS  H14R 7679   0.513   2.471   9.270 -0.8961 -1.5749 -1.8614
   82SAPS  C215 7680   0.537   2.592   9.105  0.0065 -0.2164 -0.0566
   82SAPS  H15R 7681   0.647   2.582   9.097  0.1292  0.7326  0.3342
   82SAPS  C216 7682   0.480   2.668   8.978  0.0909  0.2973 -0.8578
   82SAPS  H16R 7683   0.558   2.735   8.935  0.1448  0.4871 -0.4696
   82SAPS  H16S 7684   0.395   2.736   8.999 -1.0586 -1.8773  2.2213
   82SAPS  C217 7685   0.443   2.566   8.868 -0.0730 -0.1795  0.3211
   82SAPS  H17R 7686   0.349   2.509   8.886  1.1226 -2.3164  0.0537
   82SAPS  H17S 7687   0.526   2.493   8.855  0.9828  1.0567 -0.1159
   82SAPS  C218 7688   0.422   2.638   8.734  0.0005  0.3566  0.0687
   82SAPS  H18R 7689   0.510   2.707   8.728  1.5224 -1.4207  0.8365
   82SAPS  H18S 7690   0.327   2.693   8.718  0.9395  1.2049 -3.9775
   82SAPS  C219 7691   0.443   2.556   8.606  0.2548  0.6775  0.7965
   82SAPS  H19R 7692   0.539   2.500   8.602 -0.1252  0.0745 -0.4414
   82SAPS  H19S 7693   0.443   2.622   8.517  0.8047  0.0497  0.3184
   82SAPS  C220 7694   0.339   2.449   8.595  0.4755  0.0512 -0.6525
   82SAPS  H20R 7695   0.338   2.398   8.694  0.8179  2.8550  0.8975
   82SAPS  H20S 7696   0.355   2.366   8.522  0.1548  1.1575 -2.0219
   82SAPS  H20T 7697   0.237   2.491   8.584  0.3390 -0.2082 -0.3932
   82SAPS   C33 7698   0.672   2.742  10.131 -0.6895  0.1161  0.0298
   82SAPS   H3X 7699   0.561   2.738  10.129 -0.7762  2.0508 -2.2156
   82SAPS   H3Y 7700   0.720   2.667  10.199  1.9776  2.2673  0.6917
   82SAPS   C34 7701   0.721   2.717   9.982  0.8158 -0.1319 -0.3463
   82SAPS   H4X 7702   0.637   2.767   9.928 -0.0104 -0.3604  0.7046
   82SAPS   H4Y 7703   0.709   2.612   9.948  1.7003 -0.7202  1.0832
   82SAPS   C35 7704   0.857   2.786   9.940 -0.7228 -0.1721  0.1888
   82SAPS   H5X 7705   0.931   2.735  10.005  0.0773  1.9287  1.0224
   82SAPS   H5Y 7706   0.869   2.895   9.957 -0.5927  0.0377 -1.1043
   82SAPS   C36 7707   0.887   2.763   9.793  0.0323 -0.7799 -0.1163
   82SAPS   H6X 7708   0.812   2.817   9.731 -0.2890 -2.1850 -0.9899
   82SAPS   H6Y 7709   0.895   2.654   9.772 -2.1133 -1.0399  0.1894
   82SAPS   C37 7710   1.025   2.818   9.748  0.0965 -0.1878 -0.6600
   82SAPS   H7X 7711   1.103   2.779   9.817 -0.9808  0.7459  1.1201
   82SAPS   H7Y 7712   1.018   2.928   9.761 -1.3522 -0.0265 -2.3586
   82SAPS   C38 7713   1.050   2.780   9.602 -0.5531 -0.6010  0.3286
   82SAPS   H8X 7714   1.080   2.673   9.602 -0.7362 -0.6923 -1.4990
   82SAPS   H8Y 7715   1.143   2.834   9.573 -0.3917 -1.0570 -0.0123
   82SAPS   C39 7716   0.934   2.804   9.503  0.1082  0.3722  0.8126
   82SAPS   H9X 7717   0.880   2.899   9.524 -0.9642 -0.0224 -0.0565
   82SAPS   H9Y 7718   0.861   2.722   9.518 -0.2268 -0.0882 -2.5492
   82SAPS  C310 7719   0.979   2.804   9.347  0.2537  0.5329  0.0372
   82SAPS  H10X 7720   1.013   2.702   9.319  1.2537  0.3482  1.7643
   82SAPS  H10Y 7721   1.058   2.880   9.326 -0.0963  0.5794 -1.2014
   82SAPS  C311 7722   0.856   2.814   9.255  0.4053 -0.5022  0.1986
   82SAPS  H11X 7723   0.795   2.898   9.294  1.5436  0.3684  0.1462
   82SAPS  H11Y 7724   0.804   2.716   9.262  0.8062 -0.8662 -1.5228
   82SAPS  C312 7725   0.909   2.842   9.113 -0.0976  0.6097 -0.7648
   82SAPS  H12X 7726   0.987   2.765   9.097 -0.3926 -0.3714  1.9786
   82SAPS  H12Y 7727   0.959   2.941   9.106  0.4970  0.3443 -0.4381
   82SAPS  C313 7728   0.805   2.835   8.999  0.6349 -0.0211 -0.1564
   82SAPS  H13X 7729   0.743   2.927   8.997  2.8301  1.5368  0.1845
   82SAPS  H13Y 7730   0.740   2.747   9.020  0.9797 -0.6526 -1.5996
   82SAPS  C314 7731   0.876   2.797   8.865  0.3149 -0.6361 -0.7122
   82SAPS  H14X 7732   0.929   2.701   8.881  0.8398 -0.6353 -2.2942
   82SAPS  H14Y 7733   0.939   2.885   8.842  0.4100 -0.3757  0.4539
   82SAPS  C315 7734   0.779   2.774   8.748 -0.3749  0.6216  0.3257
   82SAPS  H15X 7735   0.726   2.868   8.724 -0.7705  0.2894 -0.1329
   82SAPS  H15Y 7736   0.692   2.708   8.770 -1.4048  0.5732 -3.2229
   82SAPS  C316 7737   0.864   2.734   8.627  0.2986 -0.1531 -0.2129
   82SAPS  H16X 7738   0.934   2.654   8.660 -0.1831 -1.2038 -1.6127
   82SAPS  H16Y 7739   0.931   2.813   8.587  0.3280 -0.7877 -1.4734
   82SAPS  C317 7740   0.785   2.691   8.504  0.4441 -0.6136  0.2394
   82SAPS  H17X 7741   0.706   2.764   8.475  1.4264 -0.5667 -2.7104
   82SAPS  H17Y 7742   0.739   2.592   8.528  0.7769 -0.8045  0.0956
   82SAPS  C318 7743   0.860   2.677   8.375  0.3150  1.3382 -0.4815
   82SAPS  H18X 7744   0.798   2.641   8.291  0.0463  0.1937  0.1936
   82SAPS  H18Y 7745   0.945   2.608   8.391 -0.8356 -0.1763 -0.6914
   82SAPS  H18Z 7746   0.893   2.780   8.348  0.8202  0.9536 -1.3434
   83SAPS     N 7747   2.244   1.226  11.245 -0.2951 -0.7660 -0.0616
   83SAPS   HN1 7748   2.183   1.172  11.181  0.2618 -1.4159 -0.0590
   83SAPS   HN2 7749   2.334   1.242  11.196 -0.1426 -3.3179 -0.7719
   83SAPS   HN3 7750   2.254   1.168  11.331  2.3785 -1.4001 -0.7054
   83SAPS   C12 7751   2.170   1.350  11.274 -0.5082  0.2025  0.5997
   83SAPS  H12A 7752   2.077   1.312  11.313  0.4144 -2.5580  0.3678
   83SAPS   C13 7753   2.228   1.440  11.380 -0.4662  0.6965  0.5743
   83SAPS  O13A 7754   2.325   1.406  11.449  0.1500  0.2358 -0.4673
   83SAPS  O13B 7755   2.167   1.545  11.408  0.5687  0.7524 -0.3218
   83SAPS   C11 7756   2.145   1.432  11.144  0.1906  0.1652 -0.1824
   83SAPS  H11A 7757   2.248   1.453  11.106  0.0752  1.4528  0.1796
   83SAPS  H11B 7758   2.097   1.529  11.171  1.4477  0.6823  0.2786
   83SAPS     P 7759   1.992   1.436  10.927 -0.2788  0.2322 -0.0332
   83SAPS   O13 7760   1.962   1.329  10.829  0.4621  0.5138 -0.0499
   83SAPS   O14 7761   1.880   1.524  10.970  0.3720 -0.1075 -0.1722
   83SAPS   O12 7762   2.061   1.361  11.049  0.0059  0.2687 -0.9713
   83SAPS   O11 7763   2.103   1.543  10.877 -0.3268 -0.0657  0.0956
   83SAPS    C1 7764   2.203   1.511  10.781  0.0693  0.1185  0.2195
   83SAPS    HA 7765   2.301   1.517  10.833 -0.0456  1.8533  0.2921
   83SAPS    HB 7766   2.191   1.409  10.737 -1.6064  0.3318  0.1415
   83SAPS    C2 7767   2.206   1.621  10.673  0.0901  0.3222 -0.1488
   83SAPS    HS 7768   2.201   1.718  10.726  0.2523  0.1004  0.2804
   83SAPS   O21 7769   2.093   1.599  10.584  0.1600  0.0332  0.8368
   83SAPS   C21 7770   1.982   1.679  10.610 -0.5704  0.2726  0.2821
   83SAPS   O22 7771   1.976   1.772  10.685 -0.4672  0.8277 -0.6338
   83SAPS   C22 7772   1.871   1.649  10.508 -0.0514  0.6034 -0.2526
   83SAPS   H2R 7773   1.780   1.629  10.567  0.5142  0.1457  0.4870
   83SAPS   H2S 7774   1.860   1.745  10.454 -0.1313  0.6483 -0.1570
   83SAPS    C3 7775   2.336   1.615  10.586  0.2689  0.7314 -0.1186
   83SAPS    HX 7776   2.363   1.513  10.551 -0.9122  0.6232 -0.7688
   83SAPS    HY 7777   2.416   1.637  10.659 -0.8281 -1.6813  1.9565
   83SAPS   O31 7778   2.333   1.704  10.474 -0.2673 -0.4589  0.1870
   83SAPS   C31 7779   2.386   1.833  10.498  0.6583  0.2714 -0.7368
   83SAPS   O32 7780   2.453   1.870  10.593 -0.2040  0.4600  0.7589
   83SAPS   C32 7781   2.360   1.923  10.382  0.4741  0.0091  0.0663
   83SAPS   H2X 7782   2.266   1.978  10.404  1.0648  1.6913 -1.3738
   83SAPS   H2Y 7783   2.334   1.859  10.295 -1.5701  0.4667  0.2789
   83SAPS   C23 7784   1.902   1.535  10.409 -0.3390  0.4824 -0.1125
   83SAPS   H3R 7785   1.918   1.440  10.464  1.3407  0.0479 -1.2683
   83SAPS   H3S 7786   1.997   1.567  10.361  0.1162  0.3963  0.7067
   83SAPS   C24 7787   1.809   1.510  10.292  0.3337  0.3832 -0.5186
   83SAPS   H4R 7788   1.825   1.413  10.241  3.2751  0.3143  0.3676
   83SAPS   H4S 7789   1.839   1.595  10.227  1.8304  0.5936  0.4069
   83SAPS   C25 7790   1.661   1.513  10.330 -0.2994 -0.2264  0.3285
   83SAPS   H5R 7791   1.629   1.438  10.404  1.7497  1.7865  3.4853
   83SAPS   C26 7792   1.562   1.596  10.289  0.1742 -0.1338 -0.1015
   83SAPS   H6R 7793   1.457   1.580  10.320  0.3442 -0.4846  0.3014
   83SAPS   C27 7794   1.581   1.712  10.185 -0.0882 -0.0758 -1.4595
   83SAPS   H7R 7795   1.687   1.743  10.173 -0.1018 -0.5175 -2.8736
   83SAPS   H7S 7796   1.522   1.796  10.228  0.0385 -0.0826 -1.2691
   83SAPS   C28 7797   1.529   1.676  10.050  1.1057 -0.1907  0.3938
   83SAPS   H8R 7798   1.588   1.610   9.985 -0.3407 -0.1624 -1.0163
   83SAPS   C29 7799   1.406   1.708  10.009  0.4373 -0.0734  0.3948
   83SAPS   H9R 7800   1.379   1.679   9.907  1.0290  2.9361 -0.7103
   83SAPS  C210 7801   1.299   1.782  10.089  0.6400  0.2432 -0.3953
   83SAPS  H10R 7802   1.298   1.889  10.060 -4.1414  0.5462  0.1527
   83SAPS  H10S 7803   1.328   1.785  10.197  1.0130  0.2135 -0.4917
   83SAPS  C211 7804   1.162   1.722  10.066 -0.0492 -0.1232  0.1879
   83SAPS  H11R 7805   1.158   1.613  10.078 -0.2395 -0.1529 -0.1242
   83SAPS  C212 7806   1.050   1.779  10.025 -0.4286  0.0488  0.1450
   83SAPS  H12R 7807   0.955   1.723  10.019 -0.1007 -0.5890  0.6712
   83SAPS  C213 7808   1.033   1.922   9.984  1.1354 -0.7860 -0.0874
   83SAPS  H13R 7809   1.105   1.985  10.039  0.9195  1.4024 -2.1646
   83SAPS  H13S 7810   0.929   1.944  10.015  0.7854 -1.3395 -0.8319
   83SAPS  C214 7811   1.063   1.967   9.847  0.0374 -0.2955 -0.2148
   83SAPS  H14R 7812   1.112   2.066   9.858  0.8630 -0.7586  0.4200
   83SAPS  C215 7813   1.039   1.921   9.721 -0.5669 -0.1287 -0.4966
   83SAPS  H15R 7814   1.070   1.966   9.625 -0.3295 -2.8802 -1.8034
   83SAPS  C216 7815   0.965   1.786   9.698 -0.4654  0.2570  0.0098
   83SAPS  H16R 7816   0.860   1.807   9.669 -1.0265 -0.2828  1.5614
   83SAPS  H16S 7817   0.965   1.720   9.787  1.8162  0.9214  0.5729
   83SAPS  C217 7818   1.026   1.686   9.589  0.1402  0.1686 -0.5499
   83SAPS  H17R 7819   0.956   1.600   9.577 -0.5837  0.6762 -0.0279
   83SAPS  H17S 7820   1.119   1.642   9.631 -0.3808 -0.7264 -0.3095
   83SAPS  C218 7821   1.049   1.745   9.450 -0.2167 -0.6170 -0.5424
   83SAPS  H18R 7822   1.086   1.659   9.390 -1.1917 -0.8729 -0.7829
   83SAPS  H18S 7823   1.131   1.820   9.449 -2.0319  1.4595 -0.9937
   83SAPS  C219 7824   0.928   1.816   9.393  0.2103  0.2092 -0.3599
   83SAPS  H19R 7825   0.921   1.905   9.459  1.8844 -0.6703  1.0981
   83SAPS  H19S 7826   0.831   1.766   9.414  0.6300  0.1408  1.6996
   83SAPS  C220 7827   0.940   1.859   9.243 -0.1921 -0.8609  0.4057
   83SAPS  H20R 7828   0.861   1.935   9.223  0.0538 -0.6655  0.1855
   83SAPS  H20S 7829   0.918   1.778   9.171 -2.8478  0.0288  0.0961
   83SAPS  H20T 7830   1.035   1.911   9.219 -0.2236 -2.3444 -3.7501
   83SAPS   C33 7831   2.463   2.038  10.358 -0.3958  0.1549 -0.0524
   83SAPS   H3X 7832   2.495   2.076  10.458  1.2407  0.1481 -0.5470
   83SAPS   H3Y 7833   2.413   2.125  10.312  1.7820  1.7730  0.4706
   83SAPS   C34 7834   2.601   2.007  10.288  0.8014  0.4676 -0.2866
   83SAPS   H4X 7835   2.652   1.945  10.365 -1.0913  0.7004  1.2259
   83SAPS   H4Y 7836   2.671   2.093  10.282  0.6743  0.5215 -1.1552
   83SAPS   C35 7837   2.582   1.932  10.163  0.1914  0.6621 -0.5978
   83SAPS   H5X 7838   2.534   1.833  10.178 -0.5322  1.3504  2.4165
   83SAPS   H5Y 7839   2.680   1.894  10.126 -0.1942 -0.0932 -0.8709
   83SAPS   C36 7840   2.529   2.018  10.050 -0.2639 -0.1174 -0.6099
   83SAPS   H6X 7841   2.564   2.123  10.062  2.2915 -0.7945 -1.5238
   83SAPS   H6Y 7842   2.421   2.033  10.067 -0.7383  0.8147 -3.9665
   83SAPS   C37 7843   2.565   1.970   9.909  0.1233 -0.4310 -0.1693
   83SAPS   H7X 7844   2.545   1.860   9.907 -0.0741 -0.3887 -0.9606
   83SAPS   H7Y 7845   2.676   1.972   9.908  0.1180  0.2889  0.4362
   83SAPS   C38 7846   2.503   2.060   9.802 -0.1820  0.4546  0.0506
   83SAPS   H8X 7847   2.572   2.148   9.804 -0.4108  0.8128 -2.7937
   83SAPS   H8Y 7848   2.395   2.075   9.825 -0.3436  0.5266 -0.7231
   83SAPS   C39 7849   2.515   1.990   9.663  0.2598  0.2780 -0.5053
   83SAPS   H9X 7850   2.618   1.950   9.649  1.0769  2.2407 -0.3856
   83SAPS   H9Y 7851   2.523   2.075   9.592  2.0062  0.3212 -0.3119
   83SAPS  C310 7852   2.402   1.903   9.617  0.0595 -0.9290  0.7581
   83SAPS  H10X 7853   2.333   1.894   9.704  1.5132  1.0633  2.2084
   83SAPS  H10Y 7854   2.433   1.798   9.601  0.1780 -0.5243 -2.1071
   83SAPS  C311 7855   2.316   1.939   9.495 -0.8477  0.8300 -0.0417
   83SAPS  H11X 7856   2.269   2.034   9.528 -1.7539  0.5343 -0.4723
   83SAPS  H11Y 7857   2.240   1.861   9.477 -1.4934  1.9203 -2.4111
   83SAPS  C312 7858   2.399   1.949   9.368  0.2179  0.0237 -0.6687
   83SAPS  H12X 7859   2.469   1.864   9.349 -1.1046 -0.7050 -2.6595
   83SAPS  H12Y 7860   2.461   2.041   9.376  1.7885 -0.8778 -1.8935
   83SAPS  C313 7861   2.321   1.966   9.236 -0.1287  0.5866 -0.1741
   83SAPS  H13X 7862   2.273   2.066   9.231 -0.5873  0.3521 -0.6325
   83SAPS  H13Y 7863   2.242   1.889   9.249  0.7504 -0.1934  0.7046
   83SAPS  C314 7864   2.391   1.921   9.111 -0.4614 -0.2586  0.4897
   83SAPS  H14X 7865   2.421   1.814   9.109  1.3303  0.2008 -1.9036
   83SAPS  H14Y 7866   2.484   1.979   9.093 -3.5966  4.9602 -0.9200
   83SAPS  C315 7867   2.310   1.934   8.983  0.4853 -0.2159 -0.0897
   83SAPS  H15X 7868   2.264   2.035   8.985  2.2601  0.6464  2.3592
   83SAPS  H15Y 7869   2.227   1.863   9.000  0.1457 -0.0530 -1.0016
   83SAPS  C316 7870   2.373   1.919   8.849 -0.0697 -0.2874  0.2594
   83SAPS  H16X 7871   2.417   1.817   8.838 -2.5306 -1.6702  2.0424
   83SAPS  H16Y 7872   2.457   1.992   8.848 -0.2051 -0.0814  1.7772
   83SAPS  C317 7873   2.281   1.965   8.733 -0.3786 -0.1299 -0.0198
   83SAPS  H17X 7874   2.347   1.979   8.645 -0.4032 -2.5153 -0.4971
   83SAPS  H17Y 7875   2.229   2.061   8.750  1.3797  1.0835 -1.2374
   83SAPS  C318 7876   2.177   1.854   8.699 -0.5987 -1.0218  0.0607
   83SAPS  H18X 7877   2.230   1.771   8.648 -0.8440 -0.2814 -1.4455
   83SAPS  H18Y 7878   2.096   1.899   8.638  0.3708  1.0034  0.1693
   83SAPS  H18Z 7879   2.125   1.817   8.789 -2.2501  1.3689  0.1667
   84SAPS     N 7880   4.283   2.519  11.161 -0.5591  0.4800  0.6591
   84SAPS   HN1 7881   4.344   2.601  11.145  4.2260 -2.5730  1.3313
   84SAPS   HN2 7882   4.218   2.507  11.080  0.6641  1.5649 -0.5354
   84SAPS   HN3 7883   4.233   2.524  11.252 -1.8167  1.3953 -0.0479
   84SAPS   C12 7884   4.393   2.417  11.159 -0.0929  0.0279 -0.0370
   84SAPS  H12A 7885   4.483   2.475  11.175 -1.3219  1.9619  0.2480
   84SAPS   C13 7886   4.388   2.306  11.275 -0.2210  1.0229  0.0437
   84SAPS  O13A 7887   4.290   2.316  11.347  0.6167 -0.1384 -0.2121
   84SAPS  O13B 7888   4.489   2.238  11.293 -0.5162 -0.1448  0.2882
   84SAPS   C11 7889   4.403   2.358  11.020  0.2411 -0.9189  0.5160
   84SAPS  H11A 7890   4.305   2.313  10.995 -0.8154  1.7101 -0.4807
   84SAPS  H11B 7891   4.480   2.279  11.034 -0.0170 -1.1548  0.6285
   84SAPS     P 7892   4.491   2.391  10.775  0.6473  0.0446  0.3104
   84SAPS   O13 7893   4.627   2.439  10.751 -0.4229  0.2353 -0.0445
   84SAPS   O14 7894   4.458   2.246  10.773  0.6578 -0.3162  0.1977
   84SAPS   O12 7895   4.435   2.451  10.913 -0.7273  0.4558  0.2592
   84SAPS   O11 7896   4.393   2.459  10.666  0.1036  0.4625 -0.3794
   84SAPS    C1 7897   4.260   2.414  10.654  0.5148 -0.7427  0.3256
   84SAPS    HA 7898   4.250   2.310  10.616  0.6777 -0.4644 -0.5083
   84SAPS    HB 7899   4.210   2.413  10.753  0.1836  3.0684  0.3410
   84SAPS    C2 7900   4.174   2.501  10.553  0.4414  0.7767  0.0019
   84SAPS    HS 7901   4.082   2.440  10.545  0.5635  0.6285 -0.2944
   84SAPS   O21 7902   4.241   2.524  10.425 -0.2200  0.7703 -0.2161
   84SAPS   C21 7903   4.252   2.414  10.350  0.1814 -0.3622 -0.1977
   84SAPS   O22 7904   4.217   2.304  10.381 -0.4500 -0.0851 -0.2906
   84SAPS   C22 7905   4.311   2.450  10.213  0.9779  0.2847 -0.2929
   84SAPS   H2R 7906   4.244   2.522  10.162  0.1551 -0.6449 -0.5416
   84SAPS   H2S 7907   4.409   2.501  10.227  0.3697  0.7957  2.9983
   84SAPS    C3 7908   4.123   2.633  10.612  0.0824  0.1715 -0.5130
   84SAPS    HX 7909   4.205   2.706  10.626  0.4284 -0.3178  0.0910
   84SAPS    HY 7910   4.092   2.603  10.715  0.2923  2.1798  0.1730
   84SAPS   O31 7911   4.005   2.677  10.538  0.0842  0.1534 -0.1951
   84SAPS   C31 7912   4.026   2.784  10.463  0.4808 -0.3724  0.0083
   84SAPS   O32 7913   4.128   2.851  10.471  0.1484  0.0816 -0.5166
   84SAPS   C32 7914   3.910   2.812  10.364 -0.4443  0.4434  0.7142
   84SAPS   H2X 7915   3.816   2.848  10.411 -0.6005  1.9292 -0.6430
   84SAPS   H2Y 7916   3.878   2.708  10.345 -3.8498  1.4331  0.3347
   84SAPS   C23 7917   4.328   2.325  10.119 -0.2388 -0.5986 -0.2614
   84SAPS   H3R 7918   4.382   2.247  10.176 -0.7085 -0.5404  0.2802
   84SAPS   H3S 7919   4.401   2.361  10.043 -1.4729  2.8931 -0.0109
   84SAPS   C24 7920   4.197   2.267  10.069 -0.7620 -0.1056  0.0507
   84SAPS   H4R 7921   4.146   2.219  10.155  0.9619 -1.4245  0.4017
   84SAPS   H4S 7922   4.225   2.180  10.007  0.7059  0.2966  0.1117
   84SAPS   C25 7923   4.112   2.372   9.996  0.1739  0.3424 -0.2868
   84SAPS   H5R 7924   4.086   2.464  10.050 -0.5108 -0.3415  0.5963
   84SAPS   C26 7925   4.054   2.346   9.878 -0.1601  0.2414 -0.2118
   84SAPS   H6R 7926   4.008   2.431   9.825 -0.9428  1.2773  1.9851
   84SAPS   C27 7927   4.060   2.222   9.790  0.1705  0.1633 -0.4007
   84SAPS   H7R 7928   3.997   2.250   9.703  1.8971  0.9628 -1.4400
   84SAPS   H7S 7929   4.010   2.140   9.847 -0.0019 -0.7887 -1.8726
   84SAPS   C28 7930   4.191   2.160   9.742  0.3815  0.0686 -0.2853
   84SAPS   H8R 7931   4.248   2.110   9.821 -0.7803 -0.7097  0.0860
   84SAPS   C29 7932   4.230   2.147   9.617  0.1999 -0.1065 -0.0300
   84SAPS   H9R 7933   4.324   2.090   9.604  0.5790  0.1200  1.5354
   84SAPS  C210 7934   4.170   2.193   9.479  0.1989  0.0117 -1.0653
   84SAPS  H10R 7935   4.095   2.273   9.499  0.4832 -0.0396  0.2570
   84SAPS  H10S 7936   4.125   2.104   9.430  1.6354 -1.6053  0.4005
   84SAPS  C211 7937   4.277   2.261   9.400 -0.1366 -0.3050  0.5168
   84SAPS  H11R 7938   4.342   2.338   9.443  0.5081  0.7032 -2.0629
   84SAPS  C212 7939   4.289   2.237   9.266 -0.1622 -0.0657 -0.4306
   84SAPS  H12R 7940   4.377   2.277   9.213 -0.1141 -1.0631 -1.1267
   84SAPS  C213 7941   4.211   2.138   9.181 -0.2320 -0.4726 -0.6148
   84SAPS  H13R 7942   4.109   2.173   9.154  0.4594  0.3382 -2.3094
   84SAPS  H13S 7943   4.200   2.038   9.228 -1.2020 -0.9162 -1.7398
   84SAPS  C214 7944   4.267   2.105   9.043 -0.4134  0.7048  0.4562
   84SAPS  H14R 7945   4.308   2.004   9.026 -1.5936  0.4405 -1.0239
   84SAPS  C215 7946   4.271   2.180   8.933  0.1778  0.4572  0.2834
   84SAPS  H15R 7947   4.321   2.140   8.844  0.5099  0.2162  0.5758
   84SAPS  C216 7948   4.201   2.316   8.928  0.1348  0.0109  0.4035
   84SAPS  H16R 7949   4.269   2.405   8.927  0.2316 -0.0627  0.3570
   84SAPS  H16S 7950   4.141   2.328   9.020  1.0836  0.7564  0.9512
   84SAPS  C217 7951   4.120   2.356   8.802 -0.0994 -0.4209  0.7098
   84SAPS  H17R 7952   4.202   2.367   8.728 -0.8273  0.2228 -0.0094
   84SAPS  H17S 7953   4.076   2.457   8.806  0.8859  0.1533 -1.5231
   84SAPS  C218 7954   4.009   2.251   8.772 -0.0740  0.0518  0.7163
   84SAPS  H18R 7955   3.921   2.262   8.838 -2.0219 -4.2404 -0.7679
   84SAPS  H18S 7956   4.057   2.154   8.799  1.4213  0.3928 -0.5704
   84SAPS  C219 7957   3.964   2.261   8.629  0.6342 -0.1230  0.1725
   84SAPS  H19R 7958   3.881   2.189   8.616  1.3829 -1.5969  2.9303
   84SAPS  H19S 7959   4.052   2.232   8.568  0.3030 -1.4501  0.3108
   84SAPS  C220 7960   3.936   2.406   8.578 -0.9897  0.2272 -0.3109
   84SAPS  H20R 7961   4.035   2.456   8.576 -0.2335 -1.2286 -0.8197
   84SAPS  H20S 7962   3.870   2.465   8.644  1.6079  1.9821  0.8987
   84SAPS  H20T 7963   3.896   2.403   8.475 -4.4477 -0.5997  0.9310
   84SAPS   C33 7964   3.961   2.894  10.243  1.1260 -0.1477 -0.4698
   84SAPS   H3X 7965   4.004   2.994  10.268  0.4606 -0.2931  1.4598
   84SAPS   H3Y 7966   3.871   2.921  10.184  1.4241 -0.1301 -0.9134
   84SAPS   C34 7967   4.064   2.822  10.153  0.0712  0.1229  0.5839
   84SAPS   H4X 7968   4.019   2.730  10.111 -0.3164  0.6474 -0.1815
   84SAPS   H4Y 7969   4.153   2.786  10.210  0.5785 -0.4714 -0.5320
   84SAPS   C35 7970   4.114   2.907  10.032 -0.3080  0.5204  0.3921
   84SAPS   H5X 7971   4.191   2.984  10.053 -0.2530  1.4740 -2.7416
   84SAPS   H5Y 7972   4.017   2.952  10.004 -0.9252 -0.7015  0.5091
   84SAPS   C36 7973   4.184   2.813   9.926 -1.2563  0.1638  0.1337
   84SAPS   H6X 7974   4.142   2.710   9.934  0.7776 -1.0904 -3.3141
   84SAPS   H6Y 7975   4.290   2.807   9.957 -1.2723  2.5639  0.8209
   84SAPS   C37 7976   4.182   2.872   9.790 -0.1077 -0.5393  0.3067
   84SAPS   H7X 7977   4.252   2.958   9.795  1.4873 -1.7457 -0.4438
   84SAPS   H7Y 7978   4.078   2.905   9.767  0.4638 -0.8686 -3.2982
   84SAPS   C38 7979   4.230   2.794   9.670  0.3533 -0.5323  0.1577
   84SAPS   H8X 7980   4.162   2.711   9.641  2.4091 -1.7331 -1.4914
   84SAPS   H8Y 7981   4.329   2.754   9.700  0.3133  0.4358  1.6673
   84SAPS   C39 7982   4.252   2.867   9.537  0.0250  0.5395 -0.1544
   84SAPS   H9X 7983   4.333   2.941   9.557 -1.1410  1.8102  0.0348
   84SAPS   H9Y 7984   4.160   2.928   9.530 -0.8549 -0.6511  0.8153
   84SAPS  C310 7985   4.302   2.767   9.430  0.1448  0.3299 -0.7635
   84SAPS  H10X 7986   4.218   2.695   9.419 -0.7581  1.3978 -1.1988
   84SAPS  H10Y 7987   4.391   2.714   9.469 -1.8606 -1.6055  1.4831
   84SAPS  C311 7988   4.336   2.828   9.294 -0.1861  0.1757 -0.3572
   84SAPS  H11X 7989   4.408   2.911   9.310  0.4776 -0.3642 -0.4676
   84SAPS  H11Y 7990   4.243   2.871   9.252 -0.6912  0.7254  1.2338
   84SAPS  C312 7991   4.387   2.726   9.192  0.2729 -0.7290 -0.0840
   84SAPS  H12X 7992   4.311   2.645   9.192 -0.8850  0.3109  0.3160
   84SAPS  H12Y 7993   4.484   2.682   9.224  0.6185  0.0571 -0.0282
   84SAPS  C313 7994   4.382   2.800   9.052  0.3470  0.2437 -0.6642
   84SAPS  H13X 7995   4.400   2.909   9.061 -1.5473  0.5119  0.4148
   84SAPS  H13Y 7996   4.277   2.813   9.017 -0.2381  0.9164  1.1938
   84SAPS  C314 7997   4.466   2.728   8.937  0.5912 -0.5437 -0.4587
   84SAPS  H14X 7998   4.435   2.622   8.944  0.1347 -0.3648  0.3278
   84SAPS  H14Y 7999   4.570   2.744   8.972 -0.6687  2.0464  2.5225
   84SAPS  C315 8000   4.432   2.782   8.794 -0.7565  0.0233  0.0559
   84SAPS  H15X 8001   4.516   2.757   8.725 -3.4268 -2.2182 -2.7391
   84SAPS  H15Y 8002   4.422   2.892   8.792 -1.7562 -0.0390  0.8888
   84SAPS  C316 8003   4.314   2.711   8.732 -0.2535  0.3410 -0.0239
   84SAPS  H16X 8004   4.232   2.678   8.799 -1.6405 -0.9035 -2.2149
   84SAPS  H16Y 8005   4.352   2.614   8.694 -0.9469 -0.1803  0.5724
   84SAPS  C317 8006   4.261   2.794   8.615 -0.1876  0.4863 -0.0236
   84SAPS  H17X 8007   4.350   2.825   8.558 -0.7211  4.4658  0.9592
   84SAPS  H17Y 8008   4.219   2.886   8.662 -1.2362 -0.2570  0.5414
   84SAPS  C318 8009   4.155   2.726   8.523  0.2802  0.4573  0.0422
   84SAPS  H18X 8010   4.058   2.724   8.577  0.0740 -1.1567 -0.3538
   84SAPS  H18Y 8011   4.187   2.624   8.494 -0.7229  0.1213  0.0950
   84SAPS  H18Z 8012   4.134   2.793   8.437 -1.8518  1.8805  1.5632
   85SAPS     N 8013   2.985   5.128  10.936 -0.7909 -0.2337  0.2189
   85SAPS   HN1 8014   3.043   5.190  10.876  0.3506 -1.2319  0.2671
   85SAPS   HN2 8015   2.940   5.070  10.863 -1.0784  2.5357 -1.9877
   85SAPS   HN3 8016   2.913   5.185  10.986  0.5266  0.6868  1.1178
   85SAPS   C12 8017   3.068   5.035  11.019  0.5513  1.0788 -0.1481
   85SAPS  H12A 8018   3.117   5.090  11.099  0.3249  1.6789 -0.4194
   85SAPS   C13 8019   3.006   4.910  11.093 -0.0658 -0.4082 -0.3878
   85SAPS  O13A 8020   2.881   4.885  11.090  0.0081 -0.6495  0.2413
   85SAPS  O13B 8021   3.066   4.874  11.195 -0.3572  0.0286  0.2059
   85SAPS   C11 8022   3.187   4.989  10.933 -0.0268 -0.0004 -0.0363
   85SAPS  H11A 8023   3.145   4.943  10.842  0.4836  0.3139 -0.4386
   85SAPS  H11B 8024   3.256   4.924  10.992  0.7154 -0.8585 -1.7895
   85SAPS     P 8025   3.406   5.107  10.830  0.3684  0.3374 -0.4153
   85SAPS   O13 8026   3.419   5.234  10.757 -0.5057  0.0895  0.4234
   85SAPS   O14 8027   3.506   5.089  10.937  0.3755 -0.8049  0.0115
   85SAPS   O12 8028   3.256   5.107  10.887  0.4741  0.4205  0.3026
   85SAPS   O11 8029   3.404   4.990  10.727  0.0010 -0.4701  0.4568
   85SAPS    C1 8030   3.501   4.976  10.616 -0.1721  0.0088 -0.0995
   85SAPS    HA 8031   3.592   5.035  10.639 -0.4115 -0.1614  1.4544
   85SAPS    HB 8032   3.525   4.870  10.594 -0.0896  0.7365 -4.2053
   85SAPS    C2 8033   3.442   5.030  10.487 -0.2829  0.7316  0.2204
   85SAPS    HS 8034   3.432   5.140  10.499 -0.5728  0.6564  0.7247
   85SAPS   O21 8035   3.312   4.977  10.465 -0.1717 -0.1932  0.2393
   85SAPS   C21 8036   3.219   5.050  10.410  0.3034  0.9939 -0.1314
   85SAPS   O22 8037   3.223   5.164  10.369 -1.0867  0.1206  0.1090
   85SAPS   C22 8038   3.080   4.972  10.400  0.2977 -0.1231  0.4581
   85SAPS   H2R 8039   3.087   4.877  10.457 -1.9451  1.2724  3.2776
   85SAPS   H2S 8040   3.008   5.034  10.458  1.6242  1.8705  0.1024
   85SAPS    C3 8041   3.534   5.004  10.365 -0.0740 -0.0174  0.5312
   85SAPS    HX 8042   3.522   4.894  10.355 -0.0406  0.0320 -0.0880
   85SAPS    HY 8043   3.640   5.028  10.389 -0.4322  0.5044  1.6753
   85SAPS   O31 8044   3.493   5.060  10.241  0.0682 -0.1232  0.0137
   85SAPS   C31 8045   3.524   5.188  10.224  0.5458 -0.8463  0.1473
   85SAPS   O32 8046   3.593   5.254  10.304  0.0665  0.5677  0.3226
   85SAPS   C32 8047   3.432   5.230  10.110  0.4679 -0.0400  0.1064
   85SAPS   H2X 8048   3.332   5.263  10.146  0.9987  2.9975 -0.9486
   85SAPS   H2Y 8049   3.421   5.146  10.039 -1.2674  0.5999 -0.4500
   85SAPS   C23 8050   3.027   4.930  10.260 -0.4037 -0.1156 -0.0519
   85SAPS   H3R 8051   3.030   5.021  10.197  0.0177  1.6886  2.3961
   85SAPS   H3S 8052   2.921   4.901  10.271 -0.9075  2.0636  1.5017
   85SAPS   C24 8053   3.108   4.811  10.192  0.8405 -0.4135 -0.4101
   85SAPS   H4R 8054   3.030   4.765  10.128 -0.1484  1.5682 -0.7242
   85SAPS   H4S 8055   3.142   4.750  10.278  2.7029  1.3229  0.1771
   85SAPS   C25 8056   3.225   4.860  10.107 -0.0961  0.2825  0.4850
   85SAPS   H5R 8057   3.299   4.914  10.169  1.7410 -1.3567 -0.1904
   85SAPS   C26 8058   3.246   4.854   9.972 -0.9343  0.1579  0.6285
   85SAPS   H6R 8059   3.335   4.898   9.925 -2.1209  2.2807  0.2266
   85SAPS   C27 8060   3.155   4.791   9.872  0.4384  0.2582 -0.3736
   85SAPS   H7R 8061   3.073   4.735   9.921 -0.3933 -0.6606 -2.6460
   85SAPS   H7S 8062   3.205   4.725   9.798 -1.8377 -0.3682 -1.4609
   85SAPS   C28 8063   3.071   4.905   9.808 -0.6618  0.4558  0.1813
   85SAPS   H8R 8064   3.006   4.958   9.879  0.4411 -1.7189  3.0198
   85SAPS   C29 8065   3.076   4.939   9.676 -0.1301  0.5872  0.0662
   85SAPS   H9R 8066   2.994   5.007   9.649 -1.5077 -1.0548 -0.0977
   85SAPS  C210 8067   3.166   4.886   9.566 -0.0770 -0.4863  0.0140
   85SAPS  H10R 8068   3.109   4.806   9.514  0.2406 -0.3895 -0.4961
   85SAPS  H10S 8069   3.257   4.838   9.609  0.6795  0.5165 -0.4095
   85SAPS  C211 8070   3.209   4.994   9.468 -0.5853 -0.8802 -0.3832
   85SAPS  H11R 8071   3.231   5.092   9.513 -1.0341 -0.9774  0.0552
   85SAPS  C212 8072   3.208   4.992   9.332  0.6651  0.3309 -0.3499
   85SAPS  H12R 8073   3.245   5.079   9.277  1.8618  0.8169  1.1312
   85SAPS  C213 8074   3.171   4.881   9.246 -0.0204  0.8508  0.2937
   85SAPS  H13R 8075   3.085   4.906   9.180  0.0806 -1.7051 -0.9518
   85SAPS  H13S 8076   3.115   4.800   9.298  0.1909 -0.8485 -1.9350
   85SAPS  C214 8077   3.290   4.829   9.168  0.3841 -0.0502  0.2035
   85SAPS  H14R 8078   3.381   4.826   9.228  0.6001  0.1352 -0.1123
   85SAPS  C215 8079   3.293   4.809   9.035 -0.5714 -0.1497 -0.0172
   85SAPS  H15R 8080   3.390   4.779   8.991 -0.2537  2.2448 -1.1655
   85SAPS  C216 8081   3.178   4.817   8.943 -0.1998 -0.4653 -0.7495
   85SAPS  H16R 8082   3.170   4.911   8.884 -1.2185 -2.1918 -3.5757
   85SAPS  H16S 8083   3.083   4.812   9.001  1.7714  0.5752  2.9519
   85SAPS  C217 8084   3.174   4.702   8.838  0.0304  0.4587 -0.3828
   85SAPS  H17R 8085   3.180   4.608   8.897  1.7293  1.0425  0.4461
   85SAPS  H17S 8086   3.258   4.698   8.765  0.5375 -0.0495  0.2169
   85SAPS  C218 8087   3.040   4.702   8.761 -0.5700  0.7553  0.2611
   85SAPS  H18R 8088   3.031   4.787   8.690 -1.7751 -0.0681 -0.5889
   85SAPS  H18S 8089   2.957   4.709   8.835  1.3748  0.7906  2.5941
   85SAPS  C219 8090   3.009   4.587   8.670 -0.4990  0.2643  0.2594
   85SAPS  H19R 8091   3.022   4.487   8.717  0.5689  0.8675  1.3229
   85SAPS  H19S 8092   3.079   4.588   8.584  0.2549 -0.2573  0.8500
   85SAPS  C220 8093   2.860   4.587   8.631 -0.2350 -0.2158  0.8342
   85SAPS  H20R 8094   2.832   4.491   8.582 -0.7915 -0.9915  2.6266
   85SAPS  H20S 8095   2.827   4.678   8.576 -0.0542 -0.7454 -0.1893
   85SAPS  H20T 8096   2.815   4.581   8.732  1.9502  2.5756  2.1422
   85SAPS   C33 8097   3.495   5.358  10.044  0.8506 -0.0999 -0.4583
   85SAPS   H3X 8098   3.595   5.325  10.007  0.3122 -0.0474 -2.0429
   85SAPS   H3Y 8099   3.502   5.441  10.117  1.7688 -0.9658  0.4621
   85SAPS   C34 8100   3.398   5.415   9.931  0.0516 -0.0236  0.0665
   85SAPS   H4X 8101   3.464   5.451   9.849  0.6539  0.1703  0.6261
   85SAPS   H4Y 8102   3.336   5.495   9.976 -1.4554 -1.0472 -0.1224
   85SAPS   C35 8103   3.313   5.306   9.862 -0.5782  0.1019  0.0983
   85SAPS   H5X 8104   3.254   5.263   9.945  2.1634 -1.9708  1.1220
   85SAPS   H5Y 8105   3.380   5.227   9.820  1.1014  1.4208  0.1573
   85SAPS   C36 8106   3.223   5.349   9.745  0.4176 -0.6621  0.9675
   85SAPS   H6X 8107   3.131   5.408   9.768  0.2303 -0.3044 -0.5637
   85SAPS   H6Y 8108   3.185   5.261   9.689  0.9307  1.3315 -2.8473
   85SAPS   C37 8109   3.310   5.426   9.643  0.5477  0.3079  0.1698
   85SAPS   H7X 8110   3.408   5.374   9.633 -0.5337 -2.1536  1.5653
   85SAPS   H7Y 8111   3.329   5.529   9.682 -0.4516  1.0932 -1.3121
   85SAPS   C38 8112   3.251   5.431   9.500  0.5591 -0.7763  0.0942
   85SAPS   H8X 8113   3.156   5.487   9.512  0.6566 -0.9115  1.6936
   85SAPS   H8Y 8114   3.229   5.332   9.456 -0.3105 -0.7967  0.5517
   85SAPS   C39 8115   3.347   5.510   9.403 -0.1104 -0.8822  0.0685
   85SAPS   H9X 8116   3.407   5.442   9.338 -1.6481 -0.5770 -1.7407
   85SAPS   H9Y 8117   3.423   5.569   9.459  0.2206 -1.0610 -0.1810
   85SAPS  C310 8118   3.265   5.604   9.313  0.1938  0.0670 -0.6395
   85SAPS  H10X 8119   3.221   5.689   9.370 -0.7664 -0.8136 -0.0473
   85SAPS  H10Y 8120   3.181   5.547   9.270 -1.9678  3.1447 -0.8381
   85SAPS  C311 8121   3.351   5.653   9.198  0.4862  0.2716  0.4502
   85SAPS  H11X 8122   3.395   5.558   9.161 -0.6557  0.1798 -0.7111
   85SAPS  H11Y 8123   3.435   5.719   9.229  0.7694 -0.8995  2.3374
   85SAPS  C312 8124   3.262   5.694   9.078 -0.6520 -0.0811 -0.4390
   85SAPS  H12X 8125   3.206   5.789   9.090  1.5197  1.1110  0.7611
   85SAPS  H12Y 8126   3.206   5.599   9.063 -0.2149 -0.4329  0.1175
   85SAPS  C313 8127   3.350   5.708   8.954  0.4827 -0.3555 -0.8183
   85SAPS  H13X 8128   3.397   5.610   8.933  2.1736 -0.5261  2.9486
   85SAPS  H13Y 8129   3.439   5.772   8.973  0.3386 -0.5939  0.7790
   85SAPS  C314 8130   3.276   5.753   8.831  0.3384  0.3007  0.7284
   85SAPS  H14X 8131   3.225   5.850   8.847 -0.0240 -0.0506  1.7359
   85SAPS  H14Y 8132   3.194   5.681   8.810  0.1663  1.4596 -3.8307
   85SAPS  C315 8133   3.361   5.747   8.696  0.4679 -0.3590 -0.4140
   85SAPS  H15X 8134   3.373   5.637   8.681 -0.6889 -0.6920  0.9397
   85SAPS  H15Y 8135   3.460   5.795   8.712  0.1955 -0.3683  1.5715
   85SAPS  C316 8136   3.292   5.801   8.575  0.4663  1.0998  0.0437
   85SAPS  H16X 8137   3.184   5.778   8.571  0.4717  1.0698  0.0754
   85SAPS  H16Y 8138   3.348   5.758   8.489  0.3353 -0.6413  0.8029
   85SAPS  C317 8139   3.298   5.957   8.551  0.2877  0.4212  0.2132
   85SAPS  H17X 8140   3.400   5.982   8.515  0.4391 -0.5532 -0.0509
   85SAPS  H17Y 8141   3.286   6.008   8.649 -2.0180 -2.5577  1.6465
   85SAPS  C318 8142   3.200   6.008   8.451  0.1023 -0.2046  0.8269
   85SAPS  H18X 8143   3.096   5.971   8.461 -0.2732  0.6392  0.1636
   85SAPS  H18Y 8144   3.237   5.971   8.353 -0.5396  1.7814 -0.2192
   85SAPS  H18Z 8145   3.204   6.118   8.463 -1.5974 -0.0915  0.5954
   86SAPS     N 8146   4.964   4.073  10.936  0.8291 -0.1789  0.3199
   86SAPS   HN1 8147   5.021   4.084  10.850  2.1726  0.2163  1.2417
   86SAPS   HN2 8148   4.992   3.995  10.998 -0.7958 -1.0888 -0.0222
   86SAPS   HN3 8149   4.864   4.060  10.908  0.3061  2.5848  0.6581
   86SAPS   C12 8150   4.975   4.212  11.002  0.0327 -0.5195  0.0052
   86SAPS  H12A 8151   4.905   4.213  11.084 -0.7602  0.2812 -0.6670
   86SAPS   C13 8152   5.113   4.249  11.059 -0.4864  0.2213  0.4327
   86SAPS  O13A 8153   5.201   4.153  11.043 -0.3808 -0.6284  0.6520
   86SAPS  O13B 8154   5.157   4.367  11.078 -0.1063  0.1850 -0.1313
   86SAPS   C11 8155   4.919   4.325  10.901 -0.9918 -0.1176  0.0882
   86SAPS  H11A 8156   4.992   4.346  10.821  0.2590 -1.2295  0.8942
   86SAPS  H11B 8157   4.911   4.419  10.959 -2.7351  1.2995 -2.2890
   86SAPS     P 8158   4.665   4.318  10.911  0.5759 -0.2516 -0.1850
   86SAPS   O13 8159   4.649   4.245  11.037 -0.0214 -0.3431 -0.2734
   86SAPS   O14 8160   4.665   4.466  10.924 -1.1989  0.2237  0.4317
   86SAPS   O12 8161   4.801   4.272  10.847  0.0341 -0.9683 -0.0697
   86SAPS   O11 8162   4.554   4.271  10.802  0.1709 -0.0206 -0.6291
   86SAPS    C1 8163   4.555   4.332  10.673  0.9644 -0.0400  0.4822
   86SAPS    HA 8164   4.453   4.366  10.645  0.5697 -1.2429  0.3906
   86SAPS    HB 8165   4.619   4.423  10.667  1.3236 -0.3297 -0.3331
   86SAPS    C2 8166   4.628   4.244  10.569 -0.0415 -0.0804 -0.5262
   86SAPS    HS 8167   4.733   4.243  10.606 -0.3632  0.9696  0.4738
   86SAPS   O21 8168   4.629   4.301  10.441  0.2372  0.4487  0.4956
   86SAPS   C21 8169   4.716   4.389  10.403  0.0931 -0.3936  0.4005
   86SAPS   O22 8170   4.808   4.435  10.475  0.4425 -0.0608 -0.3528
   86SAPS   C22 8171   4.659   4.455  10.273 -0.5406  0.3406  0.6057
   86SAPS   H2R 8172   4.602   4.383  10.210  1.6792 -0.1380 -0.9722
   86SAPS   H2S 8173   4.593   4.536  10.310 -0.4395  2.2220 -2.9218
   86SAPS    C3 8174   4.564   4.104  10.572  0.4751  0.6746 -0.2398
   86SAPS    HX 8175   4.460   4.124  10.538 -0.9139  0.1118  3.2531
   86SAPS    HY 8176   4.569   4.061  10.674  1.9957  0.4056 -0.4021
   86SAPS   O31 8177   4.624   4.009  10.477  0.3771 -0.3352 -0.3179
   86SAPS   C31 8178   4.714   3.925  10.529  0.4251  0.0623 -0.0022
   86SAPS   O32 8179   4.758   3.937  10.642 -0.9720  0.0932  0.0965
   86SAPS   C32 8180   4.754   3.825  10.417  1.0698 -0.1497 -0.2009
   86SAPS   H2X 8181   4.664   3.807  10.355  0.5178  0.8718  0.2713
   86SAPS   H2Y 8182   4.799   3.735  10.463 -0.1726 -0.8312 -0.2910
   86SAPS   C23 8183   4.765   4.525  10.185 -0.3260 -0.4643  0.2113
   86SAPS   H3R 8184   4.830   4.446  10.142  2.1626  0.7140  1.6164
   86SAPS   H3S 8185   4.829   4.590  10.247  3.5694 -1.0489 -2.7585
   86SAPS   C24 8186   4.719   4.613  10.064  0.6205 -0.2607 -0.0094
   86SAPS   H4R 8187   4.801   4.681  10.029  0.7988 -0.6285 -0.3129
   86SAPS   H4S 8188   4.644   4.683  10.108  0.9091 -0.7775  1.3414
   86SAPS   C25 8189   4.662   4.528   9.946  0.1816  0.1143  0.2203
   86SAPS   H5R 8190   4.576   4.467   9.976  1.4348 -0.7101  2.3416
   86SAPS   C26 8191   4.710   4.524   9.822 -0.7950 -0.2028  0.1827
   86SAPS   H6R 8192   4.671   4.457   9.743  0.6302  1.3764 -1.9825
   86SAPS   C27 8193   4.841   4.598   9.780  0.4847 -0.7708 -0.1040
   86SAPS   H7R 8194   4.916   4.612   9.861  1.4122 -1.1021 -0.8997
   86SAPS   H7S 8195   4.814   4.696   9.736 -2.0809 -2.0026 -1.4763
   86SAPS   C28 8196   4.921   4.509   9.690 -0.2876 -0.1786  0.1927
   86SAPS   H8R 8197   5.007   4.459   9.735  0.8958  3.5869  2.6426
   86SAPS   C29 8198   4.904   4.501   9.558 -0.1043 -0.0989  0.3364
   86SAPS   H9R 8199   4.982   4.447   9.503  1.5798  0.5702  1.9934
   86SAPS  C210 8200   4.805   4.576   9.480  1.1242 -0.0794  1.0134
   86SAPS  H10R 8201   4.859   4.624   9.396 -1.1813 -3.0112 -2.4032
   86SAPS  H10S 8202   4.749   4.659   9.529 -0.9771 -0.8200 -0.0323
   86SAPS  C211 8203   4.697   4.491   9.422  0.2096  0.1719  1.0026
   86SAPS  H11R 8204   4.614   4.470   9.492  0.4985  0.3173  1.3971
   86SAPS  C212 8205   4.692   4.451   9.293  1.1074  0.3352  0.4475
   86SAPS  H12R 8206   4.599   4.397   9.267  1.0495 -0.3706  2.0162
   86SAPS  C213 8207   4.792   4.478   9.184  0.3106  0.3319 -0.1607
   86SAPS  H13R 8208   4.788   4.389   9.118 -0.7204  0.8640 -0.8553
   86SAPS  H13S 8209   4.894   4.493   9.224 -0.6390  2.1275  1.8257
   86SAPS  C214 8210   4.756   4.599   9.102  0.1827 -0.3102  0.7320
   86SAPS  H14R 8211   4.773   4.696   9.150 -0.7352  0.7908 -1.0748
   86SAPS  C215 8212   4.676   4.598   8.993  0.5170  0.1559  0.4697
   86SAPS  H15R 8213   4.640   4.688   8.940 -1.5776 -0.8144  0.1425
   86SAPS  C216 8214   4.624   4.471   8.922 -0.2249  0.3026 -0.0451
   86SAPS  H16R 8215   4.533   4.441   8.977 -0.0076  0.2103  0.2675
   86SAPS  H16S 8216   4.686   4.381   8.941 -0.4801  0.5823  2.4673
   86SAPS  C217 8217   4.586   4.478   8.776  0.1252  0.6810 -0.3708
   86SAPS  H17R 8218   4.573   4.374   8.738  2.2867  0.1979  0.0895
   86SAPS  H17S 8219   4.680   4.494   8.720  0.4630 -0.0974 -0.0467
   86SAPS  C218 8220   4.481   4.584   8.747 -0.4117  0.2460 -0.3127
   86SAPS  H18R 8221   4.528   4.684   8.750  0.8185 -0.2035 -2.3618
   86SAPS  H18S 8222   4.392   4.596   8.813 -0.3778  1.1400 -0.4223
   86SAPS  C219 8223   4.442   4.577   8.600  0.0651  0.3382 -0.2772
   86SAPS  H19R 8224   4.422   4.470   8.577  2.7691 -0.0928 -0.9633
   86SAPS  H19S 8225   4.530   4.609   8.539  0.6426 -0.6975 -0.0050
   86SAPS  C220 8226   4.306   4.650   8.573 -0.7780  0.2539 -0.0733
   86SAPS  H20R 8227   4.231   4.614   8.646  1.1371  1.8527  2.8842
   86SAPS  H20S 8228   4.271   4.636   8.469  0.5496  0.6532 -0.6043
   86SAPS  H20T 8229   4.312   4.760   8.592 -0.6955 -0.0568  1.9623
   86SAPS   C33 8230   4.864   3.875  10.330  0.3426  0.6449 -0.1326
   86SAPS   H3X 8231   4.894   3.791  10.263 -0.6940  0.2267 -0.0850
   86SAPS   H3Y 8232   4.955   3.885  10.393  1.1152 -2.0578 -0.7187
   86SAPS   C34 8233   4.841   4.000  10.244 -0.6696 -0.4807  0.0255
   86SAPS   H4X 8234   4.831   4.086  10.315  2.1555 -0.8663  1.0248
   86SAPS   H4Y 8235   4.754   3.999  10.175  0.5645  0.8107 -1.6496
   86SAPS   C35 8236   4.957   4.033  10.149  0.2415 -1.0748  0.3756
   86SAPS   H5X 8237   4.958   3.945  10.080 -3.4935 -0.6301 -0.4643
   86SAPS   H5Y 8238   5.053   4.041  10.204 -0.0577  2.2911  0.6143
   86SAPS   C36 8239   4.927   4.168  10.076  0.5705 -0.2549 -0.0849
   86SAPS   H6X 8240   4.924   4.246  10.155  2.9398  0.8311 -0.9848
   86SAPS   H6Y 8241   4.829   4.156  10.026 -0.4884 -1.6265  2.1369
   86SAPS   C37 8242   5.024   4.214   9.968 -0.1049 -0.2792 -1.0511
   86SAPS   H7X 8243   5.129   4.226  10.003  0.2812 -1.2913 -1.8041
   86SAPS   H7Y 8244   4.990   4.311   9.927 -1.2730 -0.1469  0.1386
   86SAPS   C38 8245   5.018   4.122   9.848  0.2434 -0.1740  0.2954
   86SAPS   H8X 8246   4.921   4.118   9.794  0.4332  0.4767 -0.1010
   86SAPS   H8Y 8247   5.057   4.020   9.867 -1.1846 -0.8282 -0.1821
   86SAPS   C39 8248   5.106   4.181   9.736 -0.3786  0.1775 -1.1242
   86SAPS   H9X 8249   5.210   4.199   9.770 -0.5669  0.1872 -0.5450
   86SAPS   H9Y 8250   5.073   4.272   9.682  0.1723  0.8691 -0.3210
   86SAPS  C310 8251   5.124   4.075   9.620  0.2141  0.4924  0.3546
   86SAPS  H10X 8252   5.021   4.053   9.584  0.1051  0.2697  0.8035
   86SAPS  H10Y 8253   5.170   3.978   9.646  0.0940  0.6858  1.3492
   86SAPS  C311 8254   5.194   4.133   9.491  0.6705 -0.5682 -0.0071
   86SAPS  H11X 8255   5.301   4.132   9.522  2.0211  3.0290 -3.5957
   86SAPS  H11Y 8256   5.176   4.243   9.488  0.4502 -0.6210 -0.7555
   86SAPS  C312 8257   5.174   4.073   9.358 -0.5336 -0.1808 -1.1123
   86SAPS  H12X 8258   5.069   4.072   9.319 -0.5870 -0.9157 -0.9616
   86SAPS  H12Y 8259   5.200   3.965   9.350 -1.3741 -0.2765 -3.7763
   86SAPS  C313 8260   5.250   4.158   9.253 -0.0780  0.0109  0.7467
   86SAPS  H13X 8261   5.359   4.152   9.274 -0.1699 -0.0485  1.2102
   86SAPS  H13Y 8262   5.206   4.259   9.270 -0.6162 -0.3527  1.5915
   86SAPS  C314 8263   5.220   4.116   9.112 -0.3701  0.0411 -0.6452
   86SAPS  H14X 8264   5.113   4.138   9.088 -0.5818  0.1210  0.3147
   86SAPS  H14Y 8265   5.246   4.011   9.091  0.3208  0.4174 -1.7645
   86SAPS  C315 8266   5.289   4.203   9.007  0.0344 -0.3222  0.3416
   86SAPS  H15X 8267   5.396   4.211   9.034 -0.0270  1.2435  0.2105
   86SAPS  H15Y 8268   5.251   4.307   8.999  0.5938 -0.0787  0.8352
   86SAPS  C316 8269   5.286   4.141   8.868  0.5270  0.1364 -0.1648
   86SAPS  H16X 8270   5.177   4.140   8.850  0.4071  0.4334  0.5111
   86SAPS  H16Y 8271   5.328   4.038   8.880 -3.0773 -1.5007 -0.3883
   86SAPS  C317 8272   5.359   4.219   8.756 -0.4474  0.3240 -0.0470
   86SAPS  H17X 8273   5.462   4.236   8.793  0.2041  2.0601 -2.4391
   86SAPS  H17Y 8274   5.296   4.309   8.735  1.0109  0.8460 -2.5434
   86SAPS  C318 8275   5.370   4.146   8.623 -0.0504 -0.3985 -0.2497
   86SAPS  H18X 8276   5.428   4.217   8.560  0.5148 -1.6450 -1.1876
   86SAPS  H18Y 8277   5.269   4.138   8.577 -0.1494  0.6659 -0.2270
   86SAPS  H18Z 8278   5.420   4.048   8.638 -0.4928 -0.4533  0.9386
   87SAPS     N 8279   4.818   6.542  11.102 -0.7315  0.3139 -0.3310
   87SAPS   HN1 8280   4.832   6.525  11.203  1.0016  3.0485 -0.0057
   87SAPS   HN2 8281   4.912   6.547  11.057  0.3317 -3.1381  1.1946
   87SAPS   HN3 8282   4.766   6.632  11.101  2.1447  2.1328  0.8156
   87SAPS   C12 8283   4.747   6.433  11.044  0.1256 -0.0462 -0.1889
   87SAPS  H12A 8284   4.825   6.378  10.993 -0.8486 -0.9851 -0.6899
   87SAPS   C13 8285   4.682   6.347  11.154  0.3336 -0.4066 -0.9005
   87SAPS  O13A 8286   4.709   6.358  11.279 -0.0511  0.4606 -0.2927
   87SAPS  O13B 8287   4.595   6.265  11.119 -0.0228  0.4120  0.6527
   87SAPS   C11 8288   4.643   6.489  10.942 -0.0069  0.4561  0.0687
   87SAPS  H11A 8289   4.551   6.525  10.993  0.9801  1.1247  1.4338
   87SAPS  H11B 8290   4.622   6.398  10.882 -0.8213 -0.1855  1.2998
   87SAPS     P 8291   4.639   6.720  10.806 -0.4854  0.1121  0.1393
   87SAPS   O13 8292   4.540   6.774  10.905 -0.0276 -0.0131  0.6703
   87SAPS   O14 8293   4.744   6.816  10.766 -0.2328  0.2917  0.0737
   87SAPS   O12 8294   4.707   6.596  10.864  0.5224  0.0033 -0.2928
   87SAPS   O11 8295   4.570   6.666  10.677 -0.9402 -0.4721  0.7797
   87SAPS    C1 8296   4.620   6.567  10.592 -0.2793  0.4636 -0.0591
   87SAPS    HA 8297   4.685   6.491  10.640 -0.1267 -0.7096 -2.0159
   87SAPS    HB 8298   4.530   6.512  10.557  0.0479  0.0206 -0.2012
   87SAPS    C2 8299   4.692   6.633  10.472 -0.2347 -0.2952  0.3387
   87SAPS    HS 8300   4.773   6.690  10.524  0.6000 -0.7548 -0.4253
   87SAPS   O21 8301   4.606   6.722  10.398  0.0478 -0.0865 -0.5854
   87SAPS   C21 8302   4.669   6.813  10.330  0.5019  0.3695 -0.4349
   87SAPS   O22 8303   4.787   6.843  10.331 -0.1364  0.4759  1.2063
   87SAPS   C22 8304   4.568   6.883  10.243  0.1276  0.4184  0.4533
   87SAPS   H2R 8305   4.476   6.913  10.299  1.1260  2.3724  1.1689
   87SAPS   H2S 8306   4.613   6.977  10.203 -1.3509 -0.1628 -2.8776
   87SAPS    C3 8307   4.761   6.521  10.389  0.1616  0.2337 -0.0111
   87SAPS    HX 8308   4.682   6.451  10.353 -0.6306  0.5863  1.0040
   87SAPS    HY 8309   4.831   6.461  10.452 -1.2133  0.1015  1.4377
   87SAPS   O31 8310   4.821   6.577  10.268 -0.1211  0.5494  0.3797
   87SAPS   C31 8311   4.946   6.621  10.277  0.4526  0.4488 -0.1467
   87SAPS   O32 8312   5.009   6.621  10.383  0.1548 -0.1835 -0.1892
   87SAPS   C32 8313   4.994   6.653  10.136  0.1903 -0.5045  0.9188
   87SAPS   H2X 8314   4.917   6.644  10.056  3.0509  1.2734 -2.2718
   87SAPS   H2Y 8315   5.063   6.570  10.108  0.2009  0.2635 -1.6359
   87SAPS   C23 8316   4.526   6.799  10.121 -0.9978  0.5773  1.0293
   87SAPS   H3R 8317   4.436   6.837  10.068  0.3404  0.0726 -1.7668
   87SAPS   H3S 8318   4.495   6.695  10.144 -0.7171 -0.7234 -3.5793
   87SAPS   C24 8319   4.641   6.805  10.015  0.5298 -0.0675  0.1874
   87SAPS   H4R 8320   4.732   6.771  10.069 -0.6355 -1.1733  1.5213
   87SAPS   H4S 8321   4.658   6.913   9.995  0.4906  0.1041  1.0276
   87SAPS   C25 8322   4.602   6.717   9.905 -0.2526  0.1565 -0.5695
   87SAPS   H5R 8323   4.625   6.616   9.942 -1.8744 -0.1981 -0.4702
   87SAPS   C26 8324   4.551   6.754   9.784  0.0378  0.2838 -0.3520
   87SAPS   H6R 8325   4.518   6.670   9.720 -0.3803  0.1171  0.0708
   87SAPS   C27 8326   4.525   6.893   9.740  0.1595 -0.2213 -0.2802
   87SAPS   H7R 8327   4.523   6.968   9.821  0.7263  0.5145 -0.9298
   87SAPS   H7S 8328   4.421   6.898   9.702  0.2616 -0.5688 -0.6137
   87SAPS   C28 8329   4.628   6.946   9.637 -0.0247 -0.2698 -0.5473
   87SAPS   H8R 8330   4.685   7.031   9.677 -0.4762 -0.1565 -0.1306
   87SAPS   C29 8331   4.646   6.915   9.507 -0.9505  0.1893 -0.7167
   87SAPS   H9R 8332   4.728   6.970   9.458 -0.0256  1.8351  2.4083
   87SAPS  C210 8333   4.583   6.797   9.424  0.7978 -0.3511 -1.1344
   87SAPS  H10R 8334   4.489   6.840   9.383  1.2114  0.8452 -0.8677
   87SAPS  H10S 8335   4.550   6.717   9.494 -2.1759  0.6946 -1.1867
   87SAPS  C211 8336   4.680   6.732   9.324  0.6065 -0.3583  0.5976
   87SAPS  H11R 8337   4.750   6.656   9.364 -0.3164 -1.9779 -0.7179
   87SAPS  C212 8338   4.692   6.763   9.192  0.2145 -0.0264 -0.4528
   87SAPS  H12R 8339   4.757   6.703   9.126  0.9962  0.4009 -0.0885
   87SAPS  C213 8340   4.622   6.870   9.112  0.7492  0.2550 -0.1833
   87SAPS  H13R 8341   4.607   6.952   9.186 -0.3619 -0.1075  0.0136
   87SAPS  H13S 8342   4.521   6.831   9.086  1.0160 -1.3478  1.0482
   87SAPS  C214 8343   4.693   6.935   8.999 -0.3218 -0.0308  0.0679
   87SAPS  H14R 8344   4.799   6.953   9.024 -0.5985  0.8394  0.6575
   87SAPS  C215 8345   4.637   6.962   8.870 -0.4675  1.1854 -0.7232
   87SAPS  H15R 8346   4.698   7.019   8.799 -0.6731  1.9985 -0.2645
   87SAPS  C216 8347   4.502   6.933   8.810  0.4079  0.6960 -0.3076
   87SAPS  H16R 8348   4.432   7.017   8.833  0.6151  1.1616 -1.3157
   87SAPS  H16S 8349   4.469   6.840   8.863 -1.8166  0.6522 -1.6326
   87SAPS  C217 8350   4.509   6.913   8.660  0.1344  0.9445  0.2834
   87SAPS  H17R 8351   4.555   7.001   8.610  0.6878 -0.3518 -1.5731
   87SAPS  H17S 8352   4.404   6.900   8.629  0.7157 -1.6670 -0.8777
   87SAPS  C218 8353   4.595   6.793   8.626 -0.0036  0.6339  0.5144
   87SAPS  H18R 8354   4.540   6.704   8.665 -0.9241  0.0366 -1.9905
   87SAPS  H18S 8355   4.693   6.801   8.676  0.0042 -1.0026  0.8288
   87SAPS  C219 8356   4.611   6.788   8.474  0.1520 -0.1882 -0.3168
   87SAPS  H19R 8357   4.704   6.729   8.460  0.3472  0.0534 -0.0486
   87SAPS  H19S 8358   4.628   6.883   8.419  0.4161 -0.4467 -0.6912
   87SAPS  C220 8359   4.495   6.717   8.403 -0.0525 -0.1858 -0.1574
   87SAPS  H20R 8360   4.493   6.724   8.292  0.7988  1.2183 -0.1077
   87SAPS  H20S 8361   4.393   6.746   8.437  1.3812  2.4323  2.3925
   87SAPS  H20T 8362   4.498   6.606   8.410  0.5451 -0.1907 -0.4002
   87SAPS   C33 8363   5.030   6.803  10.112 -0.2086 -0.9145  0.6138
   87SAPS   H3X 8364   5.090   6.843  10.197  2.0845 -0.2687 -1.1841
   87SAPS   H3Y 8365   4.947   6.876  10.105 -0.1269 -0.8721  0.0690
   87SAPS   C34 8366   5.115   6.825   9.982  0.6498  1.0694  0.5544
   87SAPS   H4X 8367   5.205   6.759   9.991  0.0655 -0.1730 -1.9670
   87SAPS   H4Y 8368   5.144   6.932   9.972  0.8480  1.5632  4.6261
   87SAPS   C35 8369   5.037   6.773   9.858  0.4684 -0.6875  0.0001
   87SAPS   H5X 8370   4.941   6.828   9.850  1.3933  0.7846 -1.5256
   87SAPS   H5Y 8371   5.014   6.664   9.866 -2.8639 -0.3958 -3.2292
   87SAPS   C36 8372   5.127   6.795   9.733  0.0141  0.6517 -0.1930
   87SAPS   H6X 8373   5.218   6.737   9.760 -1.7797 -2.5026 -0.5284
   87SAPS   H6Y 8374   5.140   6.904   9.717 -1.4045  0.9262  0.3998
   87SAPS   C37 8375   5.066   6.743   9.603 -0.1153 -0.2183 -0.7608
   87SAPS   H7X 8376   4.963   6.785   9.604 -0.5313 -1.1074 -2.7412
   87SAPS   H7Y 8377   5.055   6.633   9.608  0.6942 -0.2569  1.1092
   87SAPS   C38 8378   5.152   6.778   9.487  0.4435  0.0039  0.5375
   87SAPS   H8X 8379   5.245   6.726   9.517 -0.6120 -2.1270  0.2624
   87SAPS   H8Y 8380   5.168   6.888   9.482  0.0928  0.2453  3.1340
   87SAPS   C39 8381   5.086   6.709   9.366 -0.4199 -1.0027  0.3823
   87SAPS   H9X 8382   4.976   6.721   9.361 -0.4934 -1.4323  0.8729
   87SAPS   H9Y 8383   5.119   6.603   9.371  0.0899 -0.8605  0.1525
   87SAPS  C310 8384   5.139   6.765   9.236  0.2539 -0.0298  0.0136
   87SAPS  H10X 8385   5.246   6.732   9.238  0.1789 -0.2808  1.7514
   87SAPS  H10Y 8386   5.139   6.875   9.224  1.3606 -0.0162  0.0372
   87SAPS  C311 8387   5.075   6.689   9.112 -0.5535  0.6494  0.0413
   87SAPS  H11X 8388   4.967   6.711   9.113 -0.7116  0.0554  2.6235
   87SAPS  H11Y 8389   5.097   6.581   9.124 -1.1373  0.4294 -0.7765
   87SAPS  C312 8390   5.118   6.742   8.979 -0.6032  0.2720  0.4423
   87SAPS  H12X 8391   5.224   6.716   8.958 -0.1114  1.7603  0.9359
   87SAPS  H12Y 8392   5.116   6.853   8.972  0.6076  0.2355 -0.8661
   87SAPS  C313 8393   5.047   6.672   8.868  0.0668 -0.1586  0.5417
   87SAPS  H13X 8394   4.946   6.716   8.856  0.3898  0.5313  0.3261
   87SAPS  H13Y 8395   5.030   6.564   8.889 -1.1050 -0.7172 -2.5994
   87SAPS  C314 8396   5.111   6.689   8.729  0.4136  0.5839 -0.6553
   87SAPS  H14X 8397   5.046   6.641   8.653  0.8336  0.8980 -1.2244
   87SAPS  H14Y 8398   5.212   6.643   8.730  0.9294  1.5256  2.9962
   87SAPS  C315 8399   5.125   6.834   8.674 -1.0443  0.0196 -0.1715
   87SAPS  H15X 8400   5.201   6.836   8.592  0.2601 -1.2856  0.9481
   87SAPS  H15Y 8401   5.175   6.888   8.756 -0.1016 -3.7399  1.9844
   87SAPS  C316 8402   4.992   6.889   8.632  1.1342  0.7481  0.3504
   87SAPS  H16X 8403   4.918   6.905   8.713 -0.3533 -4.4624  0.3810
   87SAPS  H16Y 8404   4.941   6.817   8.565 -1.4904  0.4212  2.5512
   87SAPS  C317 8405   5.006   7.024   8.559 -0.5253 -0.7867  0.2229
   87SAPS  H17X 8406   5.059   7.010   8.463 -1.0809  2.1930 -0.6152
   87SAPS  H17Y 8407   5.069   7.095   8.616 -0.3704  0.0453 -0.9685
   87SAPS  C318 8408   4.873   7.083   8.523 -0.4527 -0.9335  0.0715
   87SAPS  H18X 8409   4.821   7.000   8.471 -0.3007  0.1042 -1.8365
   87SAPS  H18Y 8410   4.875   7.172   8.457  1.4858  0.3419  1.7221
   87SAPS  H18Z 8411   4.826   7.104   8.621  2.8051 -1.6700  1.9494
   88SAPS     N 8412   0.564   3.777  10.704  0.5684 -0.7567  0.3720
   88SAPS   HN1 8413   0.583   3.677  10.727 -3.6572 -1.5810  1.0556
   88SAPS   HN2 8414   0.575   3.831  10.792  2.2357 -0.7384  0.1798
   88SAPS   HN3 8415   0.464   3.771  10.678 -0.3578  3.1694  2.2225
   88SAPS   C12 8416   0.639   3.826  10.583 -0.1119 -0.2134  0.5083
   88SAPS  H12A 8417   0.650   3.933  10.595 -0.0598 -0.2391  0.6986
   88SAPS   C13 8418   0.768   3.767  10.553 -0.5975  0.2255  0.3326
   88SAPS  O13A 8419   0.816   3.672  10.620  0.1715 -0.2541  0.0206
   88SAPS  O13B 8420   0.836   3.823  10.463  0.3394 -0.2454 -0.3308
   88SAPS   C11 8421   0.552   3.814  10.448 -0.2859  0.7798  0.1302
   88SAPS  H11A 8422   0.534   3.715  10.401  2.5149  0.2007  0.1247
   88SAPS  H11B 8423   0.618   3.859  10.371  1.6702 -0.8045  0.7926
   88SAPS     P 8424   0.415   4.027  10.411  0.4406  0.3641  0.1109
   88SAPS   O13 8425   0.281   4.088  10.431  0.4805  0.0344 -0.2571
   88SAPS   O14 8426   0.542   4.095  10.446 -0.3601 -0.4008 -0.6355
   88SAPS   O12 8427   0.424   3.878  10.462 -0.5244 -0.6350 -0.5361
   88SAPS   O11 8428   0.435   3.999  10.260  0.5694  0.0687 -0.0101
   88SAPS    C1 8429   0.334   3.925  10.179  0.0601  0.2177 -1.0263
   88SAPS    HA 8430   0.289   3.837  10.229 -0.1516  0.0931 -1.4297
   88SAPS    HB 8431   0.252   3.992  10.145 -0.2683  0.0793 -0.5238
   88SAPS    C2 8432   0.381   3.874  10.045 -0.1177  0.3915  0.3560
   88SAPS    HS 8433   0.320   3.790  10.005  1.9115 -0.6436 -0.7441
   88SAPS   O21 8434   0.514   3.817  10.041 -0.1712 -0.0362 -0.1045
   88SAPS   C21 8435   0.510   3.685  10.095 -0.3117 -0.1419  0.2995
   88SAPS   O22 8436   0.411   3.625  10.138 -0.0115 -0.1000  0.4367
   88SAPS   C22 8437   0.641   3.618  10.069  0.0797  0.2095  0.2680
   88SAPS   H2R 8438   0.710   3.704  10.060  2.7912 -1.8843 -0.3879
   88SAPS   H2S 8439   0.671   3.551  10.152 -0.3746  0.3895  0.5789
   88SAPS    C3 8440   0.385   3.993   9.939  0.2236 -0.4656 -0.1228
   88SAPS    HX 8441   0.454   4.074   9.970  1.8267 -0.7992 -2.5383
   88SAPS    HY 8442   0.282   4.034   9.933  0.8838  1.4524  0.8410
   88SAPS   O31 8443   0.424   3.958   9.804  0.5426 -0.1296  0.3097
   88SAPS   C31 8444   0.546   3.994   9.763  0.3673  0.1086 -0.0967
   88SAPS   O32 8445   0.628   4.058   9.824 -0.8705 -0.3609  0.4380
   88SAPS   C32 8446   0.557   3.960   9.613 -0.1500  0.5214 -0.4659
   88SAPS   H2X 8447   0.473   3.894   9.584  1.3976 -3.7210  3.4151
   88SAPS   H2Y 8448   0.649   3.899   9.598  0.5011  1.0902  0.9979
   88SAPS   C23 8449   0.641   3.531   9.939 -0.1802  0.3208 -0.3205
   88SAPS   H3R 8450   0.574   3.443   9.934  2.7782 -2.0625 -0.1431
   88SAPS   H3S 8451   0.744   3.492   9.933  0.2306  1.4845 -1.1616
   88SAPS   C24 8452   0.631   3.616   9.818 -0.1366  0.1052  0.3711
   88SAPS   H4R 8453   0.704   3.700   9.829 -0.6356  0.6230 -0.2578
   88SAPS   H4S 8454   0.537   3.672   9.804  1.5766  2.3242 -4.5973
   88SAPS   C25 8455   0.664   3.530   9.697 -0.4326  0.2006  0.3601
   88SAPS   H5R 8456   0.768   3.509   9.669 -0.2404  0.5096  0.8395
   88SAPS   C26 8457   0.571   3.476   9.619 -0.8479  0.3077 -0.5332
   88SAPS   H6R 8458   0.597   3.411   9.535  2.2499  1.4668 -0.6213
   88SAPS   C27 8459   0.423   3.486   9.632 -0.6686 -0.3675 -0.3768
   88SAPS   H7R 8460   0.397   3.487   9.740 -0.6935  0.2432 -0.3906
   88SAPS   H7S 8461   0.362   3.404   9.587 -1.4273  0.6689 -1.3026
   88SAPS   C28 8462   0.378   3.618   9.572  0.0464  0.2948 -0.4361
   88SAPS   H8R 8463   0.339   3.695   9.640  0.5968 -0.1570  0.4146
   88SAPS   C29 8464   0.382   3.651   9.446  0.3926 -0.8616  0.4037
   88SAPS   H9R 8465   0.342   3.747   9.410  1.5984 -0.3721  0.3094
   88SAPS  C210 8466   0.430   3.572   9.329 -0.2559  0.6452 -0.2294
   88SAPS  H10R 8467   0.342   3.556   9.263 -0.4127 -1.3641  0.4109
   88SAPS  H10S 8468   0.471   3.474   9.358 -0.3895 -0.4784 -3.3999
   88SAPS  C211 8469   0.543   3.649   9.263 -0.3713 -0.7246 -0.6464
   88SAPS  H11R 8470   0.626   3.677   9.329 -2.1516 -1.0091  1.8267
   88SAPS  C212 8471   0.544   3.684   9.134  0.6871  0.0595 -0.1486
   88SAPS  H12R 8472   0.628   3.737   9.087 -0.0576 -0.3254 -1.9952
   88SAPS  C213 8473   0.424   3.663   9.036 -0.4581 -0.1096 -0.2644
   88SAPS  H13R 8474   0.421   3.749   8.967  0.2135  0.2490  0.1425
   88SAPS  H13S 8475   0.326   3.680   9.086 -1.2321 -0.7963 -1.4930
   88SAPS  C214 8476   0.436   3.532   8.958  0.0271 -0.5645 -0.3402
   88SAPS  H14R 8477   0.392   3.447   9.013  0.0564 -0.7591 -0.6155
   88SAPS  C215 8478   0.488   3.509   8.833  0.4290 -0.0377 -0.6588
   88SAPS  H15R 8479   0.487   3.403   8.802  0.4815  0.2778 -1.7643
   88SAPS  C216 8480   0.549   3.608   8.732 -0.0994 -0.9634 -0.2226
   88SAPS  H16R 8481   0.657   3.584   8.742 -0.2547 -1.3980  0.4478
   88SAPS  H16S 8482   0.516   3.713   8.751 -1.6673 -0.9938 -2.3143
   88SAPS  C217 8483   0.500   3.578   8.592 -0.6651  0.6550 -0.2121
   88SAPS  H17R 8484   0.389   3.588   8.594 -0.5907  2.0999 -1.3215
   88SAPS  H17S 8485   0.512   3.475   8.552 -2.7222  0.4280 -0.3755
   88SAPS  C218 8486   0.543   3.683   8.481  0.3720  0.5050 -0.0262
   88SAPS  H18R 8487   0.522   3.631   8.385 -0.4852 -1.6762  1.2702
   88SAPS  H18S 8488   0.653   3.693   8.482  0.3245  2.1037 -2.6787
   88SAPS  C219 8489   0.469   3.818   8.477 -0.0492  0.8215  1.0687
   88SAPS  H19R 8490   0.484   3.858   8.579  0.3420 -1.4320  1.9624
   88SAPS  H19S 8491   0.359   3.809   8.461  0.2112  1.9794 -1.9696
   88SAPS  C220 8492   0.520   3.896   8.355  0.4562 -0.1373  0.1335
   88SAPS  H20R 8493   0.630   3.912   8.360  0.5518 -0.9240  0.9820
   88SAPS  H20S 8494   0.454   3.984   8.341 -0.4799 -0.4504  2.1900
   88SAPS  H20T 8495   0.511   3.836   8.262 -1.9197 -0.5149  0.5394
   88SAPS   C33 8496   0.584   4.081   9.531  0.0210 -0.5424 -0.7885
   88SAPS   H3X 8497   0.662   4.142   9.580 -0.5427  0.7483 -1.4526
   88SAPS   H3Y 8498   0.497   4.150   9.524  1.0326  0.9095  0.3580
   88SAPS   C34 8499   0.638   4.043   9.392 -0.7144 -0.6813  0.1636
   88SAPS   H4X 8500   0.562   3.983   9.338 -0.9557  1.8137 -2.5566
   88SAPS   H4Y 8501   0.728   3.981   9.408  0.3717  0.9557  0.6888
   88SAPS   C35 8502   0.676   4.165   9.303  0.2065 -0.0486  0.0393
   88SAPS   H5X 8503   0.765   4.215   9.348  0.4935  1.0643 -1.6604
   88SAPS   H5Y 8504   0.593   4.237   9.288  0.1545 -0.1556 -0.1959
   88SAPS   C36 8505   0.741   4.130   9.165  0.2748 -0.2491 -0.1491
   88SAPS   H6X 8506   0.688   4.054   9.105 -1.3817 -1.1957  2.3884
   88SAPS   H6Y 8507   0.840   4.084   9.185 -0.8011 -1.8525  1.7914
   88SAPS   C37 8508   0.770   4.250   9.077  0.3824 -0.1175  0.5845
   88SAPS   H7X 8509   0.850   4.316   9.117 -0.2267  0.7830  0.3299
   88SAPS   H7Y 8510   0.678   4.308   9.058  0.1411 -1.2355 -2.1765
   88SAPS   C38 8511   0.812   4.217   8.929 -0.6068 -0.0071  0.2043
   88SAPS   H8X 8512   0.741   4.153   8.873  2.8276 -1.1062 -3.4142
   88SAPS   H8Y 8513   0.905   4.160   8.952  0.2682  0.5416 -1.7637
   88SAPS   C39 8514   0.827   4.345   8.837  0.4343  0.3782 -0.4400
   88SAPS   H9X 8515   0.870   4.422   8.904  0.7574 -1.0479  1.0797
   88SAPS   H9Y 8516   0.723   4.370   8.807  0.8475  0.1681 -2.1321
   88SAPS  C310 8517   0.922   4.331   8.708 -0.4528 -0.1996  0.0465
   88SAPS  H10X 8518   0.879   4.252   8.643 -1.6657  0.0973  0.4709
   88SAPS  H10Y 8519   1.024   4.304   8.741 -0.1442  1.5941  0.6829
   88SAPS  C311 8520   0.944   4.467   8.647  0.1452 -0.7614  0.5181
   88SAPS  H11X 8521   1.051   4.469   8.618  0.7584 -0.5063  2.6368
   88SAPS  H11Y 8522   0.928   4.546   8.723 -0.4669 -1.3240  0.9914
   88SAPS  C312 8523   0.845   4.494   8.529 -0.3455 -0.5985 -0.2628
   88SAPS  H12X 8524   0.740   4.471   8.558 -0.8732 -0.4587 -1.9920
   88SAPS  H12Y 8525   0.862   4.424   8.445  1.0710  0.0446 -0.5489
   88SAPS  C313 8526   0.847   4.636   8.467  0.2323  0.0233  0.5648
   88SAPS  H13X 8527   0.842   4.713   8.546 -1.4955  1.4814 -0.8717
   88SAPS  H13Y 8528   0.754   4.636   8.406 -0.9573 -2.2178  2.2141
   88SAPS  C314 8529   0.975   4.656   8.380  0.5607 -0.0187  0.3094
   88SAPS  H14X 8530   0.967   4.575   8.305 -1.5510  0.2786  0.1536
   88SAPS  H14Y 8531   1.065   4.642   8.444  0.6967  0.2609  0.1831
   88SAPS  C315 8532   0.977   4.794   8.312  0.4221 -0.0358 -0.2240
   88SAPS  H15X 8533   0.968   4.876   8.386  0.6750 -0.0893 -0.1338
   88SAPS  H15Y 8534   0.892   4.809   8.242 -0.3732 -0.1206  0.6979
   88SAPS  C316 8535   1.112   4.813   8.237  1.0495  0.0123 -0.3518
   88SAPS  H16X 8536   1.103   4.756   8.142 -1.4510 -4.1689  2.1338
   88SAPS  H16Y 8537   1.209   4.786   8.284  2.6419  1.5219 -2.5832
   88SAPS  C317 8538   1.137   4.960   8.195  0.0965  0.0212 -0.2786
   88SAPS  H17X 8539   1.137   5.035   8.277  0.2165 -1.0959  0.7732
   88SAPS  H17Y 8540   1.058   4.991   8.123  0.4448  0.8198 -0.3356
   88SAPS  C318 8541   1.274   4.975   8.119 -0.8139  0.3401 -0.0170
   88SAPS  H18X 8542   1.351   4.914   8.171 -1.9899 -1.2017 -0.0069
   88SAPS  H18Y 8543   1.300   5.083   8.117 -3.2156  0.9966  0.5566
   88SAPS  H18Z 8544   1.264   4.928   8.019 -1.7044 -0.2134  0.3174
   89SAPS     N 8545   6.701   0.330  10.929 -0.1174  0.2862 -0.3883
   89SAPS   HN1 8546   6.627   0.329  11.003 -0.0583 -1.2568 -0.3017
   89SAPS   HN2 8547   6.786   0.305  10.983  0.4342 -0.0180 -1.3731
   89SAPS   HN3 8548   6.711   0.428  10.898  1.0299  0.5376  0.7055
   89SAPS   C12 8549   6.651   0.234  10.830  0.1992  0.2131  0.3956
   89SAPS  H12A 8550   6.714   0.237  10.743  0.1466 -1.2287  0.2857
   89SAPS   C13 8551   6.655   0.086  10.878 -0.4951 -0.3956  0.2451
   89SAPS  O13A 8552   6.677   0.055  10.999  0.8398 -0.6496  0.2259
   89SAPS  O13B 8553   6.606   0.000  10.800  0.4636 -0.0224 -0.4548
   89SAPS   C11 8554   6.505   0.282  10.798 -0.5253  0.2732  0.8817
   89SAPS  H11A 8555   6.433   0.264  10.881 -3.7342  4.8907 -0.4782
   89SAPS  H11B 8556   6.464   0.231  10.708 -1.3936  0.4950  1.1439
   89SAPS     P 8557   6.473   0.509  10.656  0.2848 -0.3058 -0.0717
   89SAPS   O13 8558   6.331   0.540  10.629  0.3706 -0.0593 -0.5840
   89SAPS   O14 8559   6.562   0.630  10.679  0.6155  0.8593 -0.1324
   89SAPS   O12 8560   6.498   0.422  10.778  0.7352 -0.6951 -0.4513
   89SAPS   O11 8561   6.524   0.427  10.533 -0.3536 -0.4696  0.2442
   89SAPS    C1 8562   6.664   0.427  10.503  0.0196 -0.1608 -0.0197
   89SAPS    HA 8563   6.733   0.434  10.590  1.2698  0.9966 -1.0479
   89SAPS    HB 8564   6.681   0.324  10.467 -2.1225 -0.8497  0.7556
   89SAPS    C2 8565   6.701   0.536  10.395  0.3581 -0.5048  0.6787
   89SAPS    HS 8566   6.664   0.631  10.439  0.8191  0.0746 -0.1435
   89SAPS   O21 8567   6.650   0.503  10.265  0.0871 -0.4067  0.3155
   89SAPS   C21 8568   6.591   0.600  10.202 -0.2070 -0.0329  0.4436
   89SAPS   O22 8569   6.562   0.714  10.246 -0.6046  0.2136  0.1139
   89SAPS   C22 8570   6.575   0.569  10.049 -0.2542  0.4500 -0.3089
   89SAPS   H2R 8571   6.672   0.533  10.010  0.6625  2.4440 -0.0045
   89SAPS   H2S 8572   6.494   0.493  10.042 -1.3375  1.5318  0.1722
   89SAPS    C3 8573   6.854   0.543  10.389 -0.2104  0.5642  0.1015
   89SAPS    HX 8574   6.901   0.450  10.350  0.8784  1.3059 -0.4367
   89SAPS    HY 8575   6.886   0.570  10.492 -2.5376 -0.8800  1.2855
   89SAPS   O31 8576   6.896   0.645  10.299 -0.2463  0.0831 -1.2113
   89SAPS   C31 8577   7.028   0.648  10.300 -0.6759  0.1299  0.2481
   89SAPS   O32 8578   7.108   0.577  10.362  0.4335  0.0171 -0.5926
   89SAPS   C32 8579   7.077   0.766  10.214  0.6208  0.9389 -0.0751
   89SAPS   H2X 8580   7.175   0.792  10.260  0.2071  1.8224  0.3237
   89SAPS   H2Y 8581   7.013   0.857  10.221  0.0753  0.5323  0.3533
   89SAPS   C23 8582   6.555   0.695   9.973  0.2456 -0.3438 -0.9354
   89SAPS   H3R 8583   6.651   0.746   9.953  1.5870 -2.7927 -1.1699
   89SAPS   H3S 8584   6.478   0.767  10.008  0.2763 -0.2164 -1.1273
   89SAPS   C24 8585   6.493   0.648   9.841  0.4238  1.0843 -0.2109
   89SAPS   H4R 8586   6.399   0.592   9.864  1.2850 -1.6938 -2.8640
   89SAPS   H4S 8587   6.568   0.579   9.799  0.1791  0.1187  0.8912
   89SAPS   C25 8588   6.477   0.756   9.746  0.1504  0.1652  0.0264
   89SAPS   H5R 8589   6.501   0.855   9.786  0.2700 -0.8326  2.6030
   89SAPS   C26 8590   6.435   0.732   9.621  0.4239 -0.4834  0.6851
   89SAPS   H6R 8591   6.437   0.809   9.542 -0.4023 -1.7286 -0.5820
   89SAPS   C27 8592   6.401   0.596   9.569  0.0153  0.7312  0.2840
   89SAPS   H7R 8593   6.314   0.554   9.623  0.4129 -2.1357 -1.1370
   89SAPS   H7S 8594   6.482   0.522   9.585 -1.0771 -0.7145 -0.6280
   89SAPS   C28 8595   6.358   0.592   9.417  0.1460 -0.0284 -0.2172
   89SAPS   H8R 8596   6.254   0.564   9.399  0.7368 -2.3767 -0.3238
   89SAPS   C29 8597   6.447   0.624   9.317  0.3611  0.2553 -0.1250
   89SAPS   H9R 8598   6.410   0.633   9.213 -3.5040 -0.1863  1.0633
   89SAPS  C210 8599   6.589   0.665   9.329  0.0394 -0.3678  0.2957
   89SAPS  H10R 8600   6.647   0.582   9.282 -0.3242 -1.7554  2.1828
   89SAPS  H10S 8601   6.623   0.658   9.434  0.3837 -1.6696  0.1091
   89SAPS  C211 8602   6.619   0.803   9.279 -0.0144 -0.3275  0.1427
   89SAPS  H11R 8603   6.557   0.885   9.316 -0.2895 -0.4371 -0.0733
   89SAPS  C212 8604   6.716   0.841   9.192 -0.3247 -0.7614  0.5707
   89SAPS  H12R 8605   6.724   0.947   9.163 -0.2256 -0.9036  0.0732
   89SAPS  C213 8606   6.813   0.758   9.119  0.1456  0.1750  0.5520
   89SAPS  H13R 8607   6.791   0.651   9.139 -1.9517 -0.2162 -3.0378
   89SAPS  H13S 8608   6.915   0.773   9.160  1.0052 -2.5167 -0.3974
   89SAPS  C214 8609   6.798   0.785   8.968 -0.2098 -0.1882  0.3722
   89SAPS  H14R 8610   6.880   0.847   8.930  0.6035 -0.7547  1.1597
   89SAPS  C215 8611   6.704   0.747   8.880 -0.0877  0.1925 -0.3504
   89SAPS  H15R 8612   6.730   0.769   8.775 -1.7227 -0.7263 -0.9998
   89SAPS  C216 8613   6.580   0.651   8.906 -0.3115  0.3303 -0.0820
   89SAPS  H16R 8614   6.497   0.700   8.852 -0.3947 -0.4207 -0.6489
   89SAPS  H16S 8615   6.570   0.640   9.017  1.1650  0.0382  0.0423
   89SAPS  C217 8616   6.590   0.519   8.829 -0.3153  0.3295  0.2985
   89SAPS  H17R 8617   6.494   0.466   8.847  0.0541  0.3531  2.6316
   89SAPS  H17S 8618   6.661   0.446   8.874 -0.9834 -0.3968  0.1917
   89SAPS  C218 8619   6.614   0.540   8.679 -0.8366  0.1605  0.1926
   89SAPS  H18R 8620   6.712   0.590   8.662 -1.5231  1.9549  1.2558
   89SAPS  H18S 8621   6.532   0.596   8.630  0.0239 -1.1421 -3.0064
   89SAPS  C219 8622   6.628   0.411   8.601  0.2564 -1.2469 -0.3320
   89SAPS  H19R 8623   6.537   0.353   8.630 -0.8816  0.0524 -1.1620
   89SAPS  H19S 8624   6.715   0.356   8.642  0.0965 -0.6059  0.9226
   89SAPS  C220 8625   6.640   0.425   8.452 -0.8196 -0.4903  0.7449
   89SAPS  H20R 8626   6.674   0.333   8.401 -0.5493 -0.2541  0.4966
   89SAPS  H20S 8627   6.711   0.505   8.424 -0.3473 -0.8389  0.9266
   89SAPS  H20T 8628   6.542   0.460   8.414  0.1273 -0.3345 -1.6931
   89SAPS   C33 8629   7.108   0.717  10.071  1.1215 -0.1451 -1.1227
   89SAPS   H3X 8630   7.159   0.618  10.067  1.0727 -0.1297 -3.2045
   89SAPS   H3Y 8631   7.163   0.798  10.020  0.8623  0.0920 -1.0273
   89SAPS   C34 8632   6.981   0.690   9.992 -0.2336  0.1599  0.2405
   89SAPS   H4X 8633   6.915   0.779   9.998  0.2407  0.6792 -1.4876
   89SAPS   H4Y 8634   6.933   0.595  10.023  2.1807 -1.4521 -0.6510
   89SAPS   C35 8635   7.009   0.684   9.833  0.1105  0.1158 -0.3952
   89SAPS   H5X 8636   7.080   0.600   9.812 -0.9462 -0.9562  0.2012
   89SAPS   H5Y 8637   7.054   0.783   9.810  0.0038  0.1997 -0.2434
   89SAPS   C36 8638   6.883   0.662   9.745  0.1350 -0.4395 -0.3599
   89SAPS   H6X 8639   6.811   0.718   9.808  0.6161  0.5773 -0.6927
   89SAPS   H6Y 8640   6.856   0.555   9.729  0.9132 -0.4619 -1.6454
   89SAPS   C37 8641   6.899   0.727   9.600 -0.0977 -0.0270 -0.4097
   89SAPS   H7X 8642   6.896   0.837   9.613  0.3335 -0.2885  2.7265
   89SAPS   H7Y 8643   6.804   0.709   9.545 -0.1954 -0.7768 -0.0180
   89SAPS   C38 8644   7.012   0.682   9.499 -0.0463 -0.3845 -0.4089
   89SAPS   H8X 8645   7.109   0.719   9.539 -2.3919  2.1336  3.5355
   89SAPS   H8Y 8646   6.988   0.725   9.399  0.4448 -0.5379 -0.5968
   89SAPS   C39 8647   7.004   0.528   9.484  0.1481  0.5241 -0.7212
   89SAPS   H9X 8648   6.900   0.494   9.466  1.6335 -4.1782 -1.8006
   89SAPS   H9Y 8649   7.057   0.476   9.567  2.6299  2.5059 -0.9420
   89SAPS  C310 8650   7.083   0.497   9.352  0.8369 -0.6782  0.7499
   89SAPS  H10X 8651   7.050   0.552   9.262 -0.4434 -1.0628  0.9543
   89SAPS  H10Y 8652   7.042   0.395   9.333  0.4610  0.0343 -2.8355
   89SAPS  C311 8653   7.241   0.508   9.358  0.4199  0.3877  0.0409
   89SAPS  H11X 8654   7.297   0.449   9.433  0.3149 -0.8644 -0.8279
   89SAPS  H11Y 8655   7.275   0.614   9.358  0.1928  0.4639  0.6590
   89SAPS  C312 8656   7.291   0.450   9.225 -0.1352  0.6042  0.1395
   89SAPS  H12X 8657   7.390   0.491   9.198  0.2798 -0.4003  0.1102
   89SAPS  H12Y 8658   7.225   0.470   9.137 -0.3348 -2.0692 -0.4017
   89SAPS  C313 8659   7.305   0.294   9.222  0.3050  0.1598  0.1018
   89SAPS  H13X 8660   7.305   0.259   9.117  3.0044  3.1412 -1.0400
   89SAPS  H13Y 8661   7.223   0.251   9.283  1.4442 -0.3010  1.3584
   89SAPS  C314 8662   7.432   0.255   9.291  0.3309 -0.4675 -0.7017
   89SAPS  H14X 8663   7.419   0.281   9.398  1.2155  0.5308 -0.8157
   89SAPS  H14Y 8664   7.516   0.319   9.256  0.5743  0.4176  1.3483
   89SAPS  C315 8665   7.461   0.101   9.281  0.0565 -0.4753 -0.1867
   89SAPS  H15X 8666   7.361   0.055   9.298 -0.2402  0.1778 -0.1503
   89SAPS  H15Y 8667   7.528   0.066   9.362 -1.0740 -1.4534  0.3517
   89SAPS  C316 8668   7.515   0.050   9.156 -0.5109 -0.1109 -0.3971
   89SAPS  H16X 8669   7.625   0.055   9.169 -0.6564  0.1811  0.7593
   89SAPS  H16Y 8670   7.483   0.112   9.069  0.5785 -1.4751 -1.8249
   89SAPS  C317 8671   7.476  -0.091   9.111 -0.1761 -0.5487  0.1064
   89SAPS  H17X 8672   7.367  -0.081   9.096 -0.3824 -2.3284  0.2000
   89SAPS  H17Y 8673   7.509  -0.170   9.181  1.1929  0.5805  0.7936
   89SAPS  C318 8674   7.509  -0.122   8.964 -0.1185 -0.0338  0.4835
   89SAPS  H18X 8675   7.480  -0.225   8.934  0.8019  0.3440 -1.9698
   89SAPS  H18Y 8676   7.618  -0.119   8.944 -0.1330 -0.1130  0.3903
   89SAPS  H18Z 8677   7.471  -0.043   8.897  2.5105  0.8732 -0.0535
   90SAPS     N 8678   0.853   6.369  11.034  0.0607  0.7582  0.1107
   90SAPS   HN1 8679   0.873   6.395  11.133  0.9934  1.2327 -0.1956
   90SAPS   HN2 8680   0.871   6.452  10.975  1.7205 -0.7107 -1.5861
   90SAPS   HN3 8681   0.755   6.338  11.017  1.3905 -1.7717 -5.0034
   90SAPS   C12 8682   0.948   6.261  10.996  0.2956 -0.6600 -1.1601
   90SAPS  H12A 8683   1.047   6.304  10.987  0.3549 -0.8790 -1.6007
   90SAPS   C13 8684   0.944   6.137  11.096  0.1071 -0.1043 -0.5604
   90SAPS  O13A 8685   0.860   6.132  11.190 -0.4011  0.0280 -0.2234
   90SAPS  O13B 8686   1.035   6.051  11.078 -0.1455  0.2662 -0.0408
   90SAPS   C11 8687   0.915   6.204  10.857  0.1328  0.3551 -0.5732
   90SAPS  H11A 8688   0.994   6.130  10.834  2.1082  2.7436 -2.0838
   90SAPS  H11B 8689   0.936   6.290  10.789  3.6821  0.2824  0.2422
   90SAPS     P 8690   0.732   6.042  10.753  0.5582  0.2839  0.1978
   90SAPS   O13 8691   0.691   5.931  10.838  0.1814  0.1845 -0.1326
   90SAPS   O14 8692   0.626   6.096  10.656  0.2048 -0.2986 -0.2672
   90SAPS   O12 8693   0.782   6.158  10.844  0.2612 -0.2343  0.0425
   90SAPS   O11 8694   0.861   6.007  10.664  0.0071  0.0958  0.0161
   90SAPS    C1 8695   0.872   6.059  10.529  0.9590 -0.1006 -0.2004
   90SAPS    HA 8696   0.801   6.141  10.509 -0.9938 -2.1866 -2.3651
   90SAPS    HB 8697   0.972   6.108  10.524  0.0017  2.1063  0.9113
   90SAPS    C2 8698   0.852   5.952  10.419 -0.1851 -0.4402  0.1644
   90SAPS    HS 8699   0.758   5.896  10.436 -2.0421  2.0089 -1.2737
   90SAPS   O21 8700   0.966   5.868  10.421  0.3507  0.1938 -0.1635
   90SAPS   C21 8701   0.948   5.735  10.388 -0.8360  0.0261 -0.2792
   90SAPS   O22 8702   0.839   5.689  10.369  0.1097  0.5532 -0.1832
   90SAPS   C22 8703   1.084   5.662  10.392  0.3858  0.3644 -0.0219
   90SAPS   H2R 8704   1.096   5.638  10.499  0.3113 -0.3637 -0.1725
   90SAPS   H2S 8705   1.059   5.570  10.335  0.7968 -0.3855  0.9846
   90SAPS    C3 8706   0.843   6.005  10.272  0.3838  0.8603 -0.2764
   90SAPS    HX 8707   0.945   6.044  10.253  0.9975 -0.3091  0.5283
   90SAPS    HY 8708   0.771   6.089  10.265  0.6798  1.0352 -1.3943
   90SAPS   O31 8709   0.816   5.906  10.170 -0.0052 -0.0152 -0.2601
   90SAPS   C31 8710   0.688   5.885  10.149  0.4391  0.4445  0.1510
   90SAPS   O32 8711   0.595   5.949  10.184  0.6171 -0.4308  0.1121
   90SAPS   C32 8712   0.677   5.776  10.041 -0.4028 -0.5211 -0.1207
   90SAPS   H2X 8713   0.765   5.711  10.064  2.1330  1.9028 -2.2318
   90SAPS   H2Y 8714   0.693   5.823   9.942 -0.6429 -0.1257  0.0299
   90SAPS   C23 8715   1.206   5.741  10.330  1.1763  0.7669 -0.0326
   90SAPS   H3R 8716   1.223   5.839  10.379  0.0662  0.8801  0.1416
   90SAPS   H3S 8717   1.183   5.755  10.222  4.4246 -3.7100 -1.6302
   90SAPS   C24 8718   1.343   5.658  10.327 -0.0478  0.2060  0.4203
   90SAPS   H4R 8719   1.383   5.655  10.431  0.6240 -0.7132  0.1513
   90SAPS   H4S 8720   1.411   5.715  10.261 -0.7572 -0.2657 -0.7516
   90SAPS   C25 8721   1.331   5.514  10.285 -0.7218 -0.0808  0.3465
   90SAPS   H5R 8722   1.289   5.441  10.355 -0.6744  1.2110  1.7828
   90SAPS   C26 8723   1.372   5.472  10.161 -0.2860 -0.2165  0.7408
   90SAPS   H6R 8724   1.360   5.369  10.124 -0.2997 -0.2924  0.9548
   90SAPS   C27 8725   1.422   5.570  10.055  0.1260  0.1085  0.0049
   90SAPS   H7R 8726   1.523   5.595  10.094  0.4873 -0.4190 -0.5889
   90SAPS   H7S 8727   1.362   5.664  10.049  0.5310  0.5885  2.3446
   90SAPS   C28 8728   1.415   5.505   9.917 -0.9849 -0.1501 -0.0595
   90SAPS   H8R 8729   1.314   5.465   9.902 -0.1221 -2.5494  0.0581
   90SAPS   C29 8730   1.511   5.505   9.825 -0.4180  0.4506 -0.8951
   90SAPS   H9R 8731   1.490   5.452   9.731 -2.9391 -0.6509  0.1859
   90SAPS  C210 8732   1.646   5.564   9.842  0.8226  0.3962  0.3056
   90SAPS  H10R 8733   1.650   5.630   9.931 -0.5990  0.8604  0.0584
   90SAPS  H10S 8734   1.662   5.635   9.757  0.9919 -0.1403 -0.1128
   90SAPS  C211 8735   1.752   5.458   9.824  0.1746 -0.5388 -0.4768
   90SAPS  H11R 8736   1.785   5.456   9.719  1.9561 -1.4063  0.0703
   90SAPS  C212 8737   1.801   5.371   9.917  0.0162  0.2778 -0.9482
   90SAPS  H12R 8738   1.868   5.290   9.882  0.3851  0.9931 -1.9632
   90SAPS  C213 8739   1.765   5.364  10.071  0.1485 -0.2778 -0.4317
   90SAPS  H13R 8740   1.694   5.280  10.084 -0.7384  0.7499  1.9292
   90SAPS  H13S 8741   1.722   5.457  10.114  3.1830  1.5957 -1.0916
   90SAPS  C214 8742   1.877   5.323  10.162  0.8403 -0.3745 -0.0518
   90SAPS  H14R 8743   1.931   5.409  10.205 -1.4228  1.6246 -0.9911
   90SAPS  C215 8744   1.915   5.197  10.201  0.7678 -0.2912 -0.0381
   90SAPS  H15R 8745   1.994   5.188  10.277  0.1819  1.5740  0.8413
   90SAPS  C216 8746   1.854   5.064  10.167  0.7244  0.6126 -0.3636
   90SAPS  H16R 8747   1.757   5.065  10.112  0.9975  1.4839 -0.8271
   90SAPS  H16S 8748   1.844   5.015  10.267  0.4969 -0.9306 -1.1057
   90SAPS  C217 8749   1.958   4.998  10.071 -0.3231  0.0532  0.0607
   90SAPS  H17R 8750   2.062   4.991  10.108  0.0992 -1.0295 -1.2479
   90SAPS  H17S 8751   1.957   5.062   9.980 -2.2061  1.0509  0.7366
   90SAPS  C218 8752   1.928   4.853  10.031  0.3851  0.3857 -0.7060
   90SAPS  H18R 8753   1.996   4.814   9.953  0.9761 -0.8645  0.4059
   90SAPS  H18S 8754   1.830   4.835   9.982 -0.7360 -1.2873  1.9396
   90SAPS  C219 8755   1.934   4.757  10.152 -0.0830 -0.0837 -0.3111
   90SAPS  H19R 8756   1.837   4.764  10.205  0.0757 -2.9617  0.5621
   90SAPS  H19S 8757   2.011   4.795  10.223 -0.0514 -2.4276  1.0231
   90SAPS  C220 8758   1.956   4.614  10.119 -0.1530 -0.1719 -0.1134
   90SAPS  H20R 8759   2.054   4.579  10.080 -0.7333  0.4639 -2.2608
   90SAPS  H20S 8760   1.890   4.580  10.037 -0.3311  1.6970 -0.7913
   90SAPS  H20T 8761   1.928   4.546  10.202  1.0170 -0.3448  0.1672
   90SAPS   C33 8762   0.537   5.697  10.033 -0.1796 -0.0523  0.3698
   90SAPS   H3X 8763   0.464   5.767   9.986  0.4361  2.3014  2.6486
   90SAPS   H3Y 8764   0.489   5.682  10.132 -1.3293 -1.8564 -0.4270
   90SAPS   C34 8765   0.552   5.568   9.950  0.7023  0.0790 -0.1099
   90SAPS   H4X 8766   0.604   5.495  10.015 -1.1894  0.9236  2.5515
   90SAPS   H4Y 8767   0.602   5.588   9.853  1.4323 -2.3568 -0.3117
   90SAPS   C35 8768   0.412   5.506   9.925  0.5355 -0.0436  0.8732
   90SAPS   H5X 8769   0.365   5.534   9.829 -0.0451  0.6842  1.3608
   90SAPS   H5Y 8770   0.344   5.542  10.005  1.7300  0.0761  1.8654
   90SAPS   C36 8771   0.407   5.354   9.921 -0.8694  0.7220  0.0823
   90SAPS   H6X 8772   0.469   5.306  10.000  1.2373 -1.8463 -2.8462
   90SAPS   H6Y 8773   0.478   5.320   9.842  0.1816 -1.0008  1.6649
   90SAPS   C37 8774   0.275   5.277   9.900  0.0663 -0.3993  0.2563
   90SAPS   H7X 8775   0.220   5.267   9.996  0.6810 -2.3248  0.4553
   90SAPS   H7Y 8776   0.297   5.174   9.866 -1.1386 -0.5168 -0.1986
   90SAPS   C38 8777   0.190   5.322   9.779 -0.3142 -0.0074 -0.0206
   90SAPS   H8X 8778   0.154   5.425   9.800 -0.6306  0.5041 -2.7244
   90SAPS   H8Y 8779   0.097   5.266   9.759  0.6149 -1.6747  0.1811
   90SAPS   C39 8780   0.266   5.315   9.645 -0.1115 -0.4712  0.6030
   90SAPS   H9X 8781   0.310   5.214   9.625  3.1526  1.4067 -3.0939
   90SAPS   H9Y 8782   0.354   5.382   9.642  0.5612 -1.3266 -2.4217
   90SAPS  C310 8783   0.175   5.345   9.526 -0.0924  0.2169  0.8510
   90SAPS  H10X 8784   0.132   5.447   9.538 -0.5973 -0.1947  2.8886
   90SAPS  H10Y 8785   0.089   5.277   9.511  1.1501 -1.0834 -0.8098
   90SAPS  C311 8786   0.258   5.359   9.397 -0.1831 -0.0982 -0.3144
   90SAPS  H11X 8787   0.305   5.260   9.380  0.0365  0.0470 -0.5685
   90SAPS  H11Y 8788   0.338   5.434   9.419 -0.4968  0.1113  0.1306
   90SAPS  C312 8789   0.171   5.415   9.282 -0.2203  0.3060  0.4370
   90SAPS  H12X 8790   0.139   5.519   9.305 -3.1605  0.3869 -3.1497
   90SAPS  H12Y 8791   0.078   5.356   9.278  1.2471 -2.0578 -1.7958
   90SAPS  C313 8792   0.233   5.412   9.140  0.7293  0.3949  0.0452
   90SAPS  H13X 8793   0.278   5.311   9.130  2.1923  0.8897  1.1684
   90SAPS  H13Y 8794   0.323   5.476   9.128  3.2645 -2.7801  0.6178
   90SAPS  C314 8795   0.119   5.433   9.041  0.8156 -0.0960  0.1784
   90SAPS  H14X 8796   0.078   5.532   9.072 -0.5594 -0.3929 -0.6040
   90SAPS  H14Y 8797   0.030   5.367   9.047 -1.2430  2.5832  1.6584
   90SAPS  C315 8798   0.172   5.439   8.900 -0.2896  0.2545 -0.3047
   90SAPS  H15X 8799   0.261   5.504   8.908 -0.0291 -0.2370  1.0527
   90SAPS  H15Y 8800   0.095   5.472   8.827  0.5396 -1.8408 -2.2500
   90SAPS  C316 8801   0.219   5.299   8.839  0.7152 -0.0195 -0.1940
   90SAPS  H16X 8802   0.135   5.226   8.836  0.3043  0.3334  1.6073
   90SAPS  H16Y 8803   0.294   5.251   8.905  0.9917 -1.1483 -1.3077
   90SAPS  C317 8804   0.299   5.316   8.710 -0.2587  0.0135  0.0948
   90SAPS  H17X 8805   0.386   5.381   8.734 -0.5740  0.7607 -0.7324
   90SAPS  H17Y 8806   0.224   5.352   8.636 -0.5717 -0.3906  0.2091
   90SAPS  C318 8807   0.343   5.177   8.666 -0.1428 -0.2937 -0.1895
   90SAPS  H18X 8808   0.413   5.172   8.580 -0.3071  2.1191 -0.5280
   90SAPS  H18Y 8809   0.258   5.123   8.620 -0.5112 -1.4249  1.7175
   90SAPS  H18Z 8810   0.390   5.117   8.747 -0.6018 -1.8481 -1.0264
   91SAPS     N 8811   5.445   4.972   5.696  0.2471  0.8003  0.5874
   91SAPS   HN1 8812   5.519   4.908   5.732  1.6004  2.5539  1.0535
   91SAPS   HN2 8813   5.358   4.969   5.753 -0.7313  1.1971 -0.8430
   91SAPS   HN3 8814   5.424   4.938   5.600  0.3446 -0.2037  0.9045
   91SAPS   C12 8815   5.506   5.101   5.673 -0.0604  0.1604 -1.2570
   91SAPS  H12A 8816   5.571   5.125   5.756 -0.5711  0.9227 -1.0649
   91SAPS   C13 8817   5.585   5.092   5.544 -0.3117 -0.1727  0.2635
   91SAPS  O13A 8818   5.580   4.995   5.457 -0.4773 -0.4231 -0.1904
   91SAPS  O13B 8819   5.689   5.161   5.543 -0.1718  0.3303  0.1493
   91SAPS   C11 8820   5.395   5.209   5.662 -0.4717 -0.3796 -0.2354
   91SAPS  H11A 8821   5.324   5.184   5.579  0.4240  0.1253 -1.1772
   91SAPS  H11B 8822   5.446   5.303   5.632  0.5819 -0.6339  0.6904
   91SAPS     P 8823   5.288   5.379   5.847  0.4120  0.3335  0.0200
   91SAPS   O13 8824   5.374   5.482   5.787 -0.0304  0.2044  0.2733
   91SAPS   O14 8825   5.140   5.395   5.829  0.1322 -0.3046 -0.3402
   91SAPS   O12 8826   5.322   5.238   5.785 -0.0104 -0.2631  0.6938
   91SAPS   O11 8827   5.321   5.360   5.994  0.4342 -0.2957  0.4892
   91SAPS    C1 8828   5.402   5.254   6.050 -0.1978  0.1868  0.8029
   91SAPS    HA 8829   5.448   5.188   5.973  0.6881  1.5680  0.0799
   91SAPS    HB 8830   5.483   5.300   6.111 -0.0143  0.8296  0.0953
   91SAPS    C2 8831   5.316   5.156   6.138 -0.7281 -0.1809 -0.4544
   91SAPS    HS 8832   5.228   5.121   6.079 -0.5153 -0.4887 -0.5915
   91SAPS   O21 8833   5.271   5.231   6.255 -0.4391  0.0616  0.1625
   91SAPS   C21 8834   5.166   5.186   6.312  0.5343  0.2788 -0.4778
   91SAPS   O22 8835   5.098   5.091   6.280  0.1541 -0.3343 -0.0451
   91SAPS   C22 8836   5.151   5.272   6.440  0.6920  0.1050  0.1861
   91SAPS   H2R 8837   5.229   5.349   6.456  0.6232  0.4673 -1.1082
   91SAPS   H2S 8838   5.056   5.327   6.423  0.4010 -0.4111  0.1326
   91SAPS    C3 8839   5.389   5.030   6.177  0.2395  0.4125  0.0040
   91SAPS    HX 8840   5.407   4.983   6.078  1.3245  3.8136 -1.5869
   91SAPS    HY 8841   5.326   4.970   6.245  0.9133 -0.0623  0.2237
   91SAPS   O31 8842   5.516   5.054   6.228 -0.6449 -0.3122 -0.3506
   91SAPS   C31 8843   5.614   4.973   6.183  0.2631 -0.3127  0.2551
   91SAPS   O32 8844   5.612   4.894   6.091  0.1183 -0.1303 -0.0737
   91SAPS   C32 8845   5.741   5.001   6.264 -0.2351 -0.2323 -0.3599
   91SAPS   H2X 8846   5.719   5.098   6.311 -0.7474  0.3228 -1.6788
   91SAPS   H2Y 8847   5.824   5.029   6.196  0.0093 -1.0300 -0.4088
   91SAPS   C23 8848   5.125   5.185   6.563 -0.2415  0.0949 -0.4515
   91SAPS   H3R 8849   5.216   5.126   6.587  1.2448  2.1517 -0.7226
   91SAPS   H3S 8850   5.039   5.118   6.542  1.4115 -1.8872 -1.2930
   91SAPS   C24 8851   5.091   5.266   6.690 -0.4597 -1.0159  0.1802
   91SAPS   H4R 8852   5.030   5.194   6.749 -1.2824 -1.2474 -0.9008
   91SAPS   H4S 8853   5.029   5.354   6.662  2.0257  0.7960  0.0473
   91SAPS   C25 8854   5.213   5.325   6.758 -0.3006 -0.2275 -0.4558
   91SAPS   H5R 8855   5.266   5.399   6.696 -0.4523  1.1490  0.9851
   91SAPS   C26 8856   5.260   5.294   6.877 -0.2268 -0.0820  0.7211
   91SAPS   H6R 8857   5.349   5.338   6.925  0.9760  1.2160 -2.4372
   91SAPS   C27 8858   5.202   5.176   6.954  0.0136  0.2446 -0.3520
   91SAPS   H7R 8859   5.268   5.113   7.016 -1.9602 -3.0937 -1.3832
   91SAPS   H7S 8860   5.149   5.104   6.888 -0.7479  1.0387 -0.6372
   91SAPS   C28 8861   5.101   5.235   7.051  0.0026  0.4060  0.1825
   91SAPS   H8R 8862   5.004   5.264   7.008  0.0041  0.4581  0.2146
   91SAPS   C29 8863   5.122   5.255   7.181  0.4939  0.1235 -0.3577
   91SAPS   H9R 8864   5.042   5.285   7.250  2.3884 -0.1540  2.1293
   91SAPS  C210 8865   5.256   5.230   7.251 -0.3464  0.1960 -0.0272
   91SAPS  H10R 8866   5.304   5.328   7.272 -2.1149  0.8515  1.2302
   91SAPS  H10S 8867   5.328   5.179   7.184  0.2781  0.2266  0.6051
   91SAPS  C211 8868   5.237   5.151   7.379 -0.0867 -0.0825  0.1158
   91SAPS  H11R 8869   5.238   5.041   7.373 -1.1613 -0.1086  0.1832
   91SAPS  C212 8870   5.211   5.206   7.500 -0.1706  0.2167 -0.0492
   91SAPS  H12R 8871   5.194   5.146   7.590 -3.4129  1.2504  0.1749
   91SAPS  C213 8872   5.192   5.359   7.509  0.2238  0.2117 -0.1347
   91SAPS  H13R 8873   5.132   5.393   7.423  1.3263 -0.4818 -1.2209
   91SAPS  H13S 8874   5.289   5.409   7.489  0.3037 -0.6596 -2.1289
   91SAPS  C214 8875   5.134   5.404   7.642  0.8180  0.0919 -0.3456
   91SAPS  H14R 8876   5.211   5.448   7.707  2.4222 -2.1344 -0.6350
   91SAPS  C215 8877   5.005   5.405   7.679  0.3557  0.2013 -0.3630
   91SAPS  H15R 8878   4.971   5.450   7.774  0.1347 -1.6946  0.5037
   91SAPS  C216 8879   4.889   5.363   7.591  0.3551 -0.3384 -0.3492
   91SAPS  H16R 8880   4.810   5.335   7.664 -0.8590  0.9571 -1.1011
   91SAPS  H16S 8881   4.914   5.272   7.533  0.3713  0.3868 -1.5133
   91SAPS  C217 8882   4.839   5.483   7.506 -0.3097  0.6180 -0.1259
   91SAPS  H17R 8883   4.924   5.531   7.452  0.6088 -3.0373 -2.2952
   91SAPS  H17S 8884   4.796   5.549   7.584 -2.2362  0.8798 -1.3371
   91SAPS  C218 8885   4.726   5.440   7.412  0.3800 -0.0647  0.1248
   91SAPS  H18R 8886   4.673   5.534   7.386 -1.4997 -1.0100  0.3798
   91SAPS  H18S 8887   4.653   5.378   7.468  1.3304 -1.0443  0.3109
   91SAPS  C219 8888   4.768   5.370   7.276 -0.2302 -0.2353  0.7004
   91SAPS  H19R 8889   4.816   5.274   7.305 -1.1029 -1.4355 -1.5918
   91SAPS  H19S 8890   4.841   5.436   7.225 -1.0747 -0.8376 -1.4287
   91SAPS  C220 8891   4.650   5.358   7.175  0.1698  0.0546 -0.2315
   91SAPS  H20R 8892   4.564   5.313   7.229  1.6420 -1.5042  0.8928
   91SAPS  H20S 8893   4.675   5.298   7.084  1.7539 -0.2150  0.3549
   91SAPS  H20T 8894   4.626   5.461   7.141 -0.0818  0.9467  2.4743
   91SAPS   C33 8895   5.790   4.885   6.360 -0.0135  0.0388  0.0089
   91SAPS   H3X 8896   5.900   4.886   6.380 -0.1338 -0.3321  0.7253
   91SAPS   H3Y 8897   5.756   4.784   6.328 -0.5723  0.1244  0.3315
   91SAPS   C34 8898   5.729   4.905   6.494 -0.3745 -0.5141 -0.2223
   91SAPS   H4X 8899   5.705   5.012   6.510 -0.5228 -0.5019 -0.5311
   91SAPS   H4Y 8900   5.804   4.868   6.568 -0.6533 -2.2470 -0.7745
   91SAPS   C35 8901   5.603   4.835   6.524  1.0280  0.0605 -0.3729
   91SAPS   H5X 8902   5.632   4.729   6.542 -1.0292 -0.7534 -1.4680
   91SAPS   H5Y 8903   5.522   4.835   6.447 -3.2296  0.8247  3.6474
   91SAPS   C36 8904   5.534   4.887   6.655 -0.0141 -1.0500  0.0609
   91SAPS   H6X 8905   5.445   4.822   6.675 -1.0736  0.3322 -0.0394
   91SAPS   H6Y 8906   5.487   4.987   6.642 -1.8285 -1.7122  1.1243
   91SAPS   C37 8907   5.625   4.889   6.778 -0.5442  0.1827 -0.6310
   91SAPS   H7X 8908   5.690   4.979   6.770 -1.3722  1.1350  1.9944
   91SAPS   H7Y 8909   5.691   4.800   6.767  1.5312  1.4468  0.7430
   91SAPS   C38 8910   5.557   4.884   6.920  0.0776 -0.3532  0.0944
   91SAPS   H8X 8911   5.474   4.810   6.919 -2.0878  1.9586  0.0957
   91SAPS   H8Y 8912   5.523   4.988   6.936 -0.1307 -0.7174  2.2448
   91SAPS   C39 8913   5.651   4.834   7.032  0.3803 -0.2900 -0.2584
   91SAPS   H9X 8914   5.723   4.915   7.058 -0.3823 -0.1314  1.5281
   91SAPS   H9Y 8915   5.712   4.752   6.988 -0.8068 -0.8843 -0.8283
   91SAPS  C310 8916   5.583   4.800   7.168 -0.3715  0.3776 -0.0734
   91SAPS  H10X 8917   5.498   4.732   7.146  1.4421 -2.2453  0.4617
   91SAPS  H10Y 8918   5.530   4.892   7.201  1.5170  1.6236 -0.3359
   91SAPS  C311 8919   5.676   4.745   7.282  0.5014 -0.3133  0.1580
   91SAPS  H11X 8920   5.764   4.812   7.294  2.0092 -2.3119  0.6887
   91SAPS  H11Y 8921   5.703   4.646   7.239 -0.7378 -0.6023  0.0044
   91SAPS  C312 8922   5.617   4.734   7.421 -0.7077  0.1686  0.0761
   91SAPS  H12X 8923   5.521   4.679   7.433  0.8824 -2.1714  3.5033
   91SAPS  H12Y 8924   5.594   4.840   7.445  0.7527  0.2685  1.1374
   91SAPS  C313 8925   5.719   4.678   7.524 -0.2468  0.5649  0.1364
   91SAPS  H13X 8926   5.820   4.709   7.491  0.4824 -0.1135  1.6654
   91SAPS  H13Y 8927   5.721   4.567   7.524 -3.5570  0.3486 -2.0139
   91SAPS  C314 8928   5.691   4.725   7.664  0.2323  0.8026 -0.0848
   91SAPS  H14X 8929   5.589   4.691   7.693  0.4716 -0.0073 -0.1511
   91SAPS  H14Y 8930   5.686   4.835   7.672 -0.7736  0.6881  1.3819
   91SAPS  C315 8931   5.789   4.672   7.764  0.6705  0.4605 -0.1340
   91SAPS  H15X 8932   5.893   4.706   7.747  0.3703  0.3999 -2.4682
   91SAPS  H15Y 8933   5.792   4.562   7.748 -0.1648  0.4618 -0.3246
   91SAPS  C316 8934   5.755   4.693   7.910 -0.2572 -0.8475 -0.2299
   91SAPS  H16X 8935   5.658   4.639   7.921 -0.4301 -0.8899 -1.8509
   91SAPS  H16Y 8936   5.744   4.802   7.929  2.2736 -0.8426  1.8145
   91SAPS  C317 8937   5.852   4.626   8.012  0.2225  0.5110  0.1397
   91SAPS  H17X 8938   5.893   4.533   7.968 -0.4920  0.8217 -1.2646
   91SAPS  H17Y 8939   5.800   4.579   8.098 -1.1902 -1.5480 -1.7432
   91SAPS  C318 8940   5.971   4.700   8.069 -0.4703 -0.4308 -0.6703
   91SAPS  H18X 8941   5.930   4.775   8.139 -1.8821 -1.6986 -0.0754
   91SAPS  H18Y 8942   6.028   4.747   7.986 -0.6146  1.1011  0.0631
   91SAPS  H18Z 8943   6.033   4.627   8.127 -2.0020 -1.3515 -0.1374
   92SAPS     N 8944   3.269   2.507   6.027  0.4543 -0.1156 -0.1352
   92SAPS   HN1 8945   3.275   2.609   6.048  1.2489 -0.1566 -0.1413
   92SAPS   HN2 8946   3.175   2.477   5.993 -0.0337  0.2070  0.8817
   92SAPS   HN3 8947   3.275   2.465   6.122 -0.3985  0.4534  0.1906
   92SAPS   C12 8948   3.375   2.467   5.935 -0.5453  0.5841 -0.4872
   92SAPS  H12A 8949   3.335   2.394   5.867 -0.0555 -0.6721  0.5225
   92SAPS   C13 8950   3.442   2.575   5.846  0.0534 -0.2012 -0.9207
   92SAPS  O13A 8951   3.421   2.694   5.860  0.7486  0.1633 -0.1437
   92SAPS  O13B 8952   3.513   2.528   5.753 -0.0108 -0.1670  0.2307
   92SAPS   C11 8953   3.484   2.389   6.021 -0.2958 -0.0747  0.1596
   92SAPS  H11A 8954   3.566   2.356   5.954  0.1027  0.0767  0.5720
   92SAPS  H11B 8955   3.450   2.289   6.058  0.7650  0.0555  1.5302
   92SAPS     P 8956   3.681   2.450   6.175 -0.4162  0.0783  0.1514
   92SAPS   O13 8957   3.698   2.317   6.236  0.8872  0.2022 -0.6358
   92SAPS   O14 8958   3.765   2.488   6.058  0.5296  0.4035 -0.1541
   92SAPS   O12 8959   3.530   2.465   6.130 -0.0400  1.1430  0.0085
   92SAPS   O11 8960   3.711   2.569   6.274  0.0406  0.4113  0.4046
   92SAPS    C1 8961   3.627   2.685   6.293  0.5959 -0.4340 -0.2965
   92SAPS    HA 8962   3.634   2.754   6.206  2.0433 -1.5633 -1.1359
   92SAPS    HB 8963   3.521   2.652   6.296 -0.5329  2.8406 -0.0981
   92SAPS    C2 8964   3.664   2.761   6.425  0.0957  0.5585  0.2143
   92SAPS    HS 8965   3.764   2.806   6.412  0.8891 -0.9720  0.8163
   92SAPS   O21 8966   3.657   2.676   6.538  0.1301  0.3978 -0.8141
   92SAPS   C21 8967   3.782   2.630   6.580 -0.0717 -0.4131  0.0283
   92SAPS   O22 8968   3.892   2.650   6.538 -0.2568 -0.4709  0.2538
   92SAPS   C22 8969   3.750   2.534   6.696  0.9363  0.1995 -0.5254
   92SAPS   H2R 8970   3.650   2.563   6.734  1.1049  3.8377 -2.4229
   92SAPS   H2S 8971   3.734   2.436   6.646  1.6020  0.3428 -1.0364
   92SAPS    C3 8972   3.555   2.867   6.443 -0.8775 -0.4166  0.3370
   92SAPS    HX 8973   3.451   2.830   6.427  0.3274 -3.0938 -2.0174
   92SAPS    HY 8974   3.562   2.938   6.358  3.2700  1.7024  2.1466
   92SAPS   O31 8975   3.578   2.959   6.558 -0.3052  0.2423  0.5274
   92SAPS   C31 8976   3.525   2.911   6.667  0.3163  0.6740 -0.1473
   92SAPS   O32 8977   3.457   2.810   6.673  0.0584 -0.3323 -0.4760
   92SAPS   C32 8978   3.594   2.984   6.794  0.5271 -1.0098  0.3311
   92SAPS   H2X 8979   3.605   3.088   6.757 -1.0105 -0.8998  0.1113
   92SAPS   H2Y 8980   3.687   2.928   6.819  1.0599 -0.8137 -1.1440
   92SAPS   C23 8981   3.853   2.515   6.804  0.5072 -0.2310 -0.3734
   92SAPS   H3R 8982   3.951   2.483   6.763  1.6543  1.4037  0.9371
   92SAPS   H3S 8983   3.807   2.432   6.862 -0.2158  0.6340  0.3131
   92SAPS   C24 8984   3.878   2.629   6.900 -0.1812 -0.0788  0.4194
   92SAPS   H4R 8985   3.905   2.718   6.839  1.8265 -0.2401  0.9942
   92SAPS   H4S 8986   3.963   2.613   6.970  1.5444 -0.3270 -1.6245
   92SAPS   C25 8987   3.755   2.666   6.972  0.3196  0.0275  0.0382
   92SAPS   H5R 8988   3.671   2.702   6.911  0.4197  0.0600 -0.0806
   92SAPS   C26 8989   3.726   2.674   7.103 -0.2791  0.0089 -0.2630
   92SAPS   H6R 8990   3.619   2.694   7.124  0.0175  0.4060  0.9717
   92SAPS   C27 8991   3.825   2.654   7.218 -0.0674 -0.3108  0.8347
   92SAPS   H7R 8992   3.902   2.733   7.203  1.8859 -2.2857 -0.1550
   92SAPS   H7S 8993   3.874   2.555   7.210 -1.5271 -0.9171 -1.8880
   92SAPS   C28 8994   3.769   2.679   7.358 -0.1604 -0.8494  0.5265
   92SAPS   H8R 8995   3.675   2.734   7.366  1.1800  1.7905 -0.5296
   92SAPS   C29 8996   3.822   2.631   7.471 -1.0581 -0.8157  0.4717
   92SAPS   H9R 8997   3.766   2.653   7.564 -2.3436 -0.3615 -0.3843
   92SAPS  C210 8998   3.948   2.550   7.487  0.3253  0.0581 -1.0981
   92SAPS  H10R 8999   3.954   2.481   7.400  3.4644  0.0172 -0.9714
   92SAPS  H10S 9000   3.942   2.487   7.578 -3.1442  2.1124  0.2804
   92SAPS  C211 9001   4.082   2.628   7.495 -0.0416  0.6388  0.4313
   92SAPS  H11R 9002   4.129   2.660   7.401 -0.6742  1.7292  0.4619
   92SAPS  C212 9003   4.138   2.671   7.609  0.5334 -1.0964 -0.0553
   92SAPS  H12R 9004   4.240   2.711   7.601  0.9614 -1.3886  2.7833
   92SAPS  C213 9005   4.084   2.656   7.749 -0.3925 -0.2633  0.1114
   92SAPS  H13R 9006   4.168   2.626   7.816  0.8351  0.0665 -1.2216
   92SAPS  H13S 9007   4.014   2.570   7.745  0.4142 -0.9028 -0.6319
   92SAPS  C214 9008   4.014   2.778   7.802 -1.3121  0.3252  0.2764
   92SAPS  H14R 9009   4.053   2.866   7.749  0.5049 -1.8214 -2.2047
   92SAPS  C215 9010   3.923   2.785   7.897  0.5588  0.1773 -0.0116
   92SAPS  H15R 9011   3.877   2.879   7.931  0.9783  0.3679  0.0390
   92SAPS  C216 9012   3.869   2.668   7.964  0.2562 -0.2187  0.1636
   92SAPS  H16R 9013   3.911   2.572   7.926 -1.0449 -1.4729  1.7502
   92SAPS  H16S 9014   3.760   2.667   7.941  0.0933  1.9123  0.6261
   92SAPS  C217 9015   3.878   2.671   8.115 -0.2057 -0.3347  1.0746
   92SAPS  H17R 9016   3.836   2.763   8.163  1.3001 -0.4013  2.6242
   92SAPS  H17S 9017   3.988   2.678   8.127  0.0519 -0.7848 -0.7842
   92SAPS  C218 9018   3.851   2.549   8.191  0.2606 -0.8722 -0.5133
   92SAPS  H18R 9019   3.741   2.528   8.194  0.3168 -1.1102  0.9100
   92SAPS  H18S 9020   3.879   2.564   8.298 -1.7422 -3.5973  0.5329
   92SAPS  C219 9021   3.907   2.414   8.152  0.7512 -0.0735  0.1827
   92SAPS  H19R 9022   3.872   2.397   8.048  0.2116 -0.8291  0.4811
   92SAPS  H19S 9023   3.849   2.343   8.215 -3.2333  2.7393  0.0320
   92SAPS  C220 9024   4.058   2.410   8.144 -0.5040 -0.1915 -0.3542
   92SAPS  H20R 9025   4.111   2.486   8.082  0.8488 -1.4786 -0.8331
   92SAPS  H20S 9026   4.099   2.317   8.100  2.7638  1.2767 -0.7462
   92SAPS  H20T 9027   4.102   2.432   8.244 -1.7962 -0.9586  0.4151
   92SAPS   C33 9028   3.502   2.995   6.918 -0.2975  0.4110  0.6487
   92SAPS   H3X 9029   3.464   2.893   6.943  3.4266 -1.3291 -0.1758
   92SAPS   H3Y 9030   3.414   3.056   6.889  0.5731  1.0966 -0.6668
   92SAPS   C34 9031   3.585   3.051   7.030  0.2146  0.2757  0.3272
   92SAPS   H4X 9032   3.600   3.155   6.994 -1.1986  1.0568  1.8451
   92SAPS   H4Y 9033   3.679   2.992   7.034 -0.2298 -0.4065  2.9189
   92SAPS   C35 9034   3.520   3.025   7.161  0.0486 -0.0057  0.6707
   92SAPS   H5X 9035   3.515   2.916   7.182  0.4773 -0.4394 -1.2966
   92SAPS   H5Y 9036   3.412   3.049   7.159 -0.7550 -2.9170  2.4607
   92SAPS   C36 9037   3.590   3.095   7.283  0.0297  0.0687 -0.9800
   92SAPS   H6X 9038   3.565   3.203   7.286 -3.4509 -0.3871 -4.8638
   92SAPS   H6Y 9039   3.699   3.096   7.261  0.9734 -1.7902  2.7352
   92SAPS   C37 9040   3.568   3.024   7.423  0.4954  0.0963 -0.3242
   92SAPS   H7X 9041   3.521   2.926   7.398  1.5843 -0.7063  0.6888
   92SAPS   H7Y 9042   3.492   3.085   7.477  1.6504  0.1632  1.2938
   92SAPS   C38 9043   3.684   3.017   7.521  0.0826  0.4947 -0.4073
   92SAPS   H8X 9044   3.717   3.120   7.546  1.5479 -0.3168  1.2291
   92SAPS   H8Y 9045   3.763   2.960   7.468 -0.4377 -1.2557  0.6163
   92SAPS   C39 9046   3.649   2.936   7.651  0.5053  0.1347 -0.6790
   92SAPS   H9X 9047   3.742   2.895   7.694  0.0890  0.1669  0.2614
   92SAPS   H9Y 9048   3.592   2.847   7.616 -2.9217  1.1586  1.7722
   92SAPS  C310 9049   3.572   3.021   7.758  0.6039 -0.3780 -0.4230
   92SAPS  H10X 9050   3.488   3.071   7.704 -1.5829 -1.2207  1.9679
   92SAPS  H10Y 9051   3.641   3.097   7.799  0.1561 -1.0823  1.7594
   92SAPS  C311 9052   3.527   2.926   7.873 -0.2342 -0.3905 -0.0097
   92SAPS  H11X 9053   3.618   2.871   7.905 -0.8478  0.2924  3.3977
   92SAPS  H11Y 9054   3.453   2.849   7.841  2.3047 -1.9415 -2.6116
   92SAPS  C312 9055   3.484   2.986   8.005  0.0316  0.6530 -0.3929
   92SAPS  H12X 9056   3.463   2.908   8.081 -1.1675  1.4279  0.1157
   92SAPS  H12Y 9057   3.389   3.042   8.011 -1.7576 -2.1598 -0.8285
   92SAPS  C313 9058   3.582   3.090   8.068  0.3067 -0.4737 -0.0666
   92SAPS  H13X 9059   3.628   3.166   8.001 -0.2833  0.5862  0.6934
   92SAPS  H13Y 9060   3.666   3.027   8.102  0.7947  0.5817  0.7213
   92SAPS  C314 9061   3.541   3.162   8.202  0.1287  0.8951  0.6562
   92SAPS  H14X 9062   3.518   3.080   8.274 -1.2336 -1.6894 -2.4569
   92SAPS  H14Y 9063   3.447   3.219   8.189 -1.0844 -0.9334  0.9807
   92SAPS  C315 9064   3.643   3.249   8.271  0.5051  0.8806  0.4791
   92SAPS  H15X 9065   3.609   3.278   8.373  1.7836  3.4143  0.2405
   92SAPS  H15Y 9066   3.639   3.345   8.217 -1.2977 -0.5163 -2.1040
   92SAPS  C316 9067   3.781   3.194   8.283  0.0746  0.2739 -0.0555
   92SAPS  H16X 9068   3.856   3.257   8.335 -0.8987  0.2964  1.3651
   92SAPS  H16Y 9069   3.841   3.167   8.193  2.2617 -1.4076  1.7836
   92SAPS  C317 9070   3.776   3.061   8.366 -0.4902 -0.2457  0.4631
   92SAPS  H17X 9071   3.721   2.993   8.297 -2.0393  0.6211  0.8141
   92SAPS  H17Y 9072   3.713   3.065   8.457 -1.2899 -2.0439  0.0364
   92SAPS  C318 9073   3.915   3.006   8.400  0.2211  0.0420  0.3334
   92SAPS  H18X 9074   3.913   2.931   8.482  2.8130  1.1233  1.4998
   92SAPS  H18Y 9075   3.987   3.089   8.415  0.2402  0.0813  0.0222
   92SAPS  H18Z 9076   3.953   2.947   8.314 -1.7193  1.6276 -1.7309
   93SAPS     N 9077   6.731   2.830   6.043 -0.1562 -0.0948 -0.1754
   93SAPS   HN1 9078   6.717   2.933   6.040  0.0232 -0.0699 -0.1714
   93SAPS   HN2 9079   6.813   2.815   6.105  0.8703 -1.6316 -1.8183
   93SAPS   HN3 9080   6.735   2.784   5.950 -0.4623 -2.1868  0.7910
   93SAPS   C12 9081   6.614   2.771   6.112  0.1301 -0.6531 -0.2109
   93SAPS  H12A 9082   6.526   2.811   6.064 -0.0406  0.9126  1.3092
   93SAPS   C13 9083   6.602   2.616   6.111 -0.5136  0.2190  0.3343
   93SAPS  O13A 9084   6.692   2.555   6.048  0.5859 -0.0129  0.6452
   93SAPS  O13B 9085   6.521   2.552   6.179  0.2943 -0.4835  0.4967
   93SAPS   C11 9086   6.604   2.814   6.265 -0.6531  0.3454  0.8408
   93SAPS  H11A 9087   6.679   2.757   6.324 -1.2301 -0.7094  0.5820
   93SAPS  H11B 9088   6.504   2.777   6.297 -1.4893  1.5724 -0.2804
   93SAPS     P 9089   6.502   3.045   6.304 -0.0290 -0.3166 -0.1824
   93SAPS   O13 9090   6.555   3.182   6.306 -0.2002 -0.3485 -0.3843
   93SAPS   O14 9091   6.396   3.015   6.211 -0.5314 -0.3288 -0.0385
   93SAPS   O12 9092   6.626   2.955   6.263  0.3365 -0.2298 -0.3627
   93SAPS   O11 9093   6.471   2.994   6.448  0.1551  0.6147  0.7202
   93SAPS    C1 9094   6.464   3.090   6.559  0.2213 -0.7473 -0.0001
   93SAPS    HA 9095   6.562   3.098   6.610  0.2738 -1.4808  0.0169
   93SAPS    HB 9096   6.432   3.190   6.522  1.4325 -0.4290 -0.2169
   93SAPS    C2 9097   6.350   3.047   6.659 -0.1799 -0.5884 -0.1044
   93SAPS    HS 9098   6.348   3.119   6.743 -2.5004 -1.1764  0.4276
   93SAPS   O21 9099   6.369   2.910   6.708  0.1967 -0.1854 -0.3197
   93SAPS   C21 9100   6.461   2.895   6.799  0.7045  0.3359 -0.2371
   93SAPS   O22 9101   6.542   2.978   6.837 -0.5688  0.4084  0.2384
   93SAPS   C22 9102   6.449   2.755   6.861 -0.5318 -0.0536  0.8912
   93SAPS   H2R 9103   6.460   2.680   6.780  0.0465 -0.2118  1.1159
   93SAPS   H2S 9104   6.536   2.734   6.926 -0.1788 -3.6487 -0.5391
   93SAPS    C3 9105   6.203   3.058   6.594 -0.4385  0.4661  0.5490
   93SAPS    HX 9106   6.209   2.981   6.514  0.0519  0.6553  0.3956
   93SAPS    HY 9107   6.195   3.160   6.551 -0.9429  0.5545  0.8479
   93SAPS   O31 9108   6.101   3.051   6.685 -0.3443 -0.2084  0.3463
   93SAPS   C31 9109   6.014   2.953   6.667  0.1699 -0.1099 -0.6854
   93SAPS   O32 9110   6.005   2.882   6.571 -0.0686 -0.4491  0.0356
   93SAPS   C32 9111   5.919   2.946   6.787  0.4176  0.3630 -0.6684
   93SAPS   H2X 9112   5.824   2.989   6.750  0.7595  0.5183 -1.3824
   93SAPS   H2Y 9113   5.953   3.006   6.874 -1.9102  0.2653  0.3890
   93SAPS   C23 9114   6.318   2.738   6.951  0.5075 -0.0864 -0.2301
   93SAPS   H3R 9115   6.307   2.635   6.993 -1.3548  0.7724  1.6124
   93SAPS   H3S 9116   6.226   2.758   6.892  0.4812 -2.9833 -1.3513
   93SAPS   C24 9117   6.333   2.828   7.084  0.4440  0.4381  0.3628
   93SAPS   H4R 9118   6.346   2.933   7.051 -0.8017  0.0663 -1.4516
   93SAPS   H4S 9119   6.431   2.791   7.122  0.5606 -1.1436 -1.2965
   93SAPS   C25 9120   6.216   2.821   7.179 -0.2448  0.2632 -0.0301
   93SAPS   H5R 9121   6.115   2.834   7.138 -0.2228  0.3107 -0.0690
   93SAPS   C26 9122   6.228   2.810   7.315  0.0700  0.1163  0.5621
   93SAPS   H6R 9123   6.131   2.803   7.365  0.6199 -1.7036  1.4625
   93SAPS   C27 9124   6.366   2.792   7.382  0.2194 -0.1241  0.2102
   93SAPS   H7R 9125   6.411   2.882   7.428  2.2199 -0.4118 -1.0586
   93SAPS   H7S 9126   6.445   2.770   7.306 -2.1625  0.3253 -2.5705
   93SAPS   C28 9127   6.352   2.677   7.491  0.6440  0.4856  0.1537
   93SAPS   H8R 9128   6.396   2.584   7.450  0.3374  0.5065 -0.2351
   93SAPS   C29 9129   6.328   2.691   7.624 -0.4502  0.1379  0.8983
   93SAPS   H9R 9130   6.329   2.602   7.689  0.5006 -1.2232 -0.8883
   93SAPS  C210 9131   6.289   2.820   7.689  0.1973  0.4085 -0.2190
   93SAPS  H10R 9132   6.187   2.814   7.733 -0.2445  4.5495 -0.2361
   93SAPS  H10S 9133   6.277   2.897   7.610  1.7561 -0.5538 -1.4632
   93SAPS  C211 9134   6.391   2.863   7.797  0.4622 -0.0016  0.3947
   93SAPS  H11R 9135   6.457   2.942   7.758 -1.9210  1.5506 -0.7796
   93SAPS  C212 9136   6.384   2.829   7.929  0.7922 -0.3863  0.1853
   93SAPS  H12R 9137   6.457   2.864   8.003  2.2488 -0.0019 -1.3682
   93SAPS  C213 9138   6.268   2.761   7.993  0.3357 -0.2396 -0.2556
   93SAPS  H13R 9139   6.272   2.654   7.962  2.5455 -0.2558 -0.1066
   93SAPS  H13S 9140   6.175   2.798   7.946  0.0621 -2.5102 -1.6472
   93SAPS  C214 9141   6.270   2.784   8.147 -0.1327  0.1177  0.3681
   93SAPS  H14R 9142   6.361   2.760   8.203 -1.3942  2.5049  3.7297
   93SAPS  C215 9143   6.176   2.831   8.224  0.0546 -0.1993 -0.2760
   93SAPS  H15R 9144   6.189   2.847   8.332  0.1302  0.2996 -0.3543
   93SAPS  C216 9145   6.037   2.871   8.173  0.3169  0.0432  0.0841
   93SAPS  H16R 9146   5.972   2.784   8.147 -0.2401  0.5577 -0.2689
   93SAPS  H16S 9147   6.038   2.941   8.086  4.2386  0.1897  0.0550
   93SAPS  C217 9148   5.951   2.958   8.271 -0.0655  0.4995  0.4105
   93SAPS  H17R 9149   5.865   2.994   8.212  1.1116 -0.0498 -1.7390
   93SAPS  H17S 9150   6.004   3.049   8.306  3.7566 -1.9830  1.7607
   93SAPS  C218 9151   5.918   2.887   8.400  0.3161 -0.1358  0.3312
   93SAPS  H18R 9152   6.009   2.871   8.461  1.5820  0.4709 -1.3360
   93SAPS  H18S 9153   5.875   2.786   8.383 -0.3781 -0.1423  1.9434
   93SAPS  C219 9154   5.820   2.973   8.482 -0.1472  0.5865  0.3311
   93SAPS  H19R 9155   5.742   2.991   8.405  1.5833 -2.1776 -2.2843
   93SAPS  H19S 9156   5.880   3.065   8.500 -0.8695  0.7715  1.9797
   93SAPS  C220 9157   5.764   2.905   8.608  0.2011 -0.2644 -0.0558
   93SAPS  H20R 9158   5.702   2.819   8.576 -0.2713  0.9903 -2.8570
   93SAPS  H20S 9159   5.700   2.966   8.675  0.8238 -0.7947  1.0436
   93SAPS  H20T 9160   5.851   2.871   8.668  2.1388  1.9005 -1.4149
   93SAPS   C33 9161   5.891   2.800   6.852  0.5461  0.2768  0.0671
   93SAPS   H3X 9162   5.965   2.775   6.931  0.1890 -1.2892 -0.0624
   93SAPS   H3Y 9163   5.893   2.717   6.779 -2.1081 -0.8723  1.1731
   93SAPS   C34 9164   5.739   2.794   6.903  0.1738  0.3820 -0.0921
   93SAPS   H4X 9165   5.710   2.693   6.939 -0.8892  0.7695  0.1781
   93SAPS   H4Y 9166   5.669   2.823   6.822  0.1183 -0.6587 -0.4333
   93SAPS   C35 9167   5.711   2.896   7.018 -0.3508 -0.3337  0.0876
   93SAPS   H5X 9168   5.603   2.919   7.026 -0.0500  1.0219  0.6751
   93SAPS   H5Y 9169   5.766   2.986   6.984 -0.7996 -0.4096 -0.8529
   93SAPS   C36 9170   5.772   2.858   7.158 -0.0748 -0.5844  0.1493
   93SAPS   H6X 9171   5.773   2.951   7.219 -0.0628 -0.7356  0.3815
   93SAPS   H6Y 9172   5.882   2.842   7.153  0.2379  0.7911  1.6630
   93SAPS   C37 9173   5.698   2.752   7.230  0.5910 -0.1434 -0.6713
   93SAPS   H7X 9174   5.735   2.660   7.181  3.5632  0.8309 -0.4580
   93SAPS   H7Y 9175   5.588   2.759   7.214  0.1380 -0.6481  1.8362
   93SAPS   C38 9176   5.723   2.746   7.383  0.2076  0.1773  0.7291
   93SAPS   H8X 9177   5.677   2.653   7.425  1.1367 -1.0108 -0.7734
   93SAPS   H8Y 9178   5.683   2.838   7.431 -0.7057 -1.0541  2.4601
   93SAPS   C39 9179   5.876   2.735   7.405 -0.0094 -0.6590 -0.6484
   93SAPS   H9X 9180   5.923   2.831   7.373 -1.5976  0.7368  0.9431
   93SAPS   H9Y 9181   5.903   2.657   7.331 -0.6190 -1.3696 -0.1426
   93SAPS  C310 9182   5.921   2.695   7.544  0.0997  0.0992  0.0769
   93SAPS  H10X 9183   5.895   2.763   7.628  0.4551 -1.7732  1.8030
   93SAPS  H10Y 9184   6.032   2.698   7.538  0.1456 -1.6073 -0.3243
   93SAPS  C311 9185   5.878   2.548   7.582 -0.0983  0.0529 -0.8566
   93SAPS  H11X 9186   5.942   2.489   7.513  1.5117  1.7260 -0.8654
   93SAPS  H11Y 9187   5.773   2.525   7.556 -0.0427 -0.5725 -0.5556
   93SAPS  C312 9188   5.909   2.500   7.730  0.4607 -0.6535  0.2273
   93SAPS  H12X 9189   6.012   2.534   7.754  0.1929  0.0741  0.3563
   93SAPS  H12Y 9190   5.892   2.390   7.729 -0.0332 -0.6146 -2.0784
   93SAPS  C313 9191   5.807   2.562   7.832  0.6258  0.2032 -0.7027
   93SAPS  H13X 9192   5.710   2.545   7.781 -0.2366 -1.3273  1.3429
   93SAPS  H13Y 9193   5.832   2.669   7.848  0.2230  0.4050 -1.3746
   93SAPS  C314 9194   5.791   2.497   7.974 -0.2477  0.6127 -0.4341
   93SAPS  H14X 9195   5.892   2.484   8.017 -1.0714 -1.0890  1.1168
   93SAPS  H14Y 9196   5.746   2.395   7.969 -0.7385  0.8537 -1.0455
   93SAPS  C315 9197   5.704   2.566   8.068 -0.2329 -0.0142  0.5440
   93SAPS  H15X 9198   5.598   2.549   8.040 -0.8287 -1.1545  3.2268
   93SAPS  H15Y 9199   5.720   2.676   8.068  0.9500 -0.1755  0.7146
   93SAPS  C316 9200   5.715   2.495   8.208  0.1068 -0.3242  0.1374
   93SAPS  H16X 9201   5.822   2.476   8.231  0.1561 -0.4384 -0.1847
   93SAPS  H16Y 9202   5.665   2.397   8.193  0.7529 -1.0641  2.3490
   93SAPS  C317 9203   5.639   2.571   8.315 -0.5738 -0.1409 -0.2410
   93SAPS  H17X 9204   5.533   2.576   8.282 -0.2910 -0.9951 -1.3057
   93SAPS  H17Y 9205   5.682   2.673   8.323  0.5045 -0.5939 -0.1179
   93SAPS  C318 9206   5.641   2.510   8.457 -0.0639  0.0190 -0.6039
   93SAPS  H18X 9207   5.580   2.420   8.478  0.5170 -0.3381 -0.4246
   93SAPS  H18Y 9208   5.641   2.589   8.535 -1.3914  0.9791 -1.5301
   93SAPS  H18Z 9209   5.741   2.462   8.466 -0.6421 -0.9487  1.2866
   94SAPS     N 9210   4.871   4.545   5.780  0.0990 -0.3853 -0.7550
   94SAPS   HN1 9211   4.826   4.474   5.718 -0.8148  2.0857 -3.1140
   94SAPS   HN2 9212   4.965   4.513   5.812 -0.4801 -0.3116  1.1231
   94SAPS   HN3 9213   4.815   4.561   5.866  1.3498 -1.0644  0.2157
   94SAPS   C12 9214   4.899   4.664   5.700 -0.3169 -0.1882  0.4614
   94SAPS  H12A 9215   4.967   4.630   5.624  0.2803 -1.2889  1.4577
   94SAPS   C13 9216   4.773   4.732   5.634 -0.1848 -0.4102  0.2514
   94SAPS  O13A 9217   4.666   4.663   5.620 -0.1837 -0.2408 -0.1192
   94SAPS  O13B 9218   4.795   4.823   5.549  0.1342 -0.2018 -0.2664
   94SAPS   C11 9219   4.990   4.762   5.778  0.8686 -0.5165  0.2705
   94SAPS  H11A 9220   4.920   4.797   5.857 -1.3707 -1.3268 -1.2388
   94SAPS  H11B 9221   5.037   4.836   5.711  1.6760 -1.2909 -0.0443
   94SAPS     P 9222   5.206   4.765   5.916  0.2786  0.0942 -0.2880
   94SAPS   O13 9223   5.328   4.681   5.935  0.5651  0.5268 -0.4581
   94SAPS   O14 9224   5.217   4.898   5.864 -0.3731  0.5805 -0.1734
   94SAPS   O12 9225   5.109   4.696   5.824  0.2538 -0.0099 -0.0180
   94SAPS   O11 9226   5.128   4.774   6.051  0.0717 -0.1145 -0.2754
   94SAPS    C1 9227   5.059   4.669   6.118  0.1570 -0.6757 -0.5717
   94SAPS    HA 9228   4.982   4.719   6.180  0.8781 -0.2020 -0.0368
   94SAPS    HB 9229   5.010   4.602   6.044  0.6570 -0.1978 -1.3549
   94SAPS    C2 9230   5.165   4.597   6.218 -0.0969 -0.0277 -0.3763
   94SAPS    HS 9231   5.218   4.519   6.159  1.2630 -1.8924  3.0267
   94SAPS   O21 9232   5.101   4.532   6.330 -0.1132  0.1960 -0.1180
   94SAPS   C21 9233   5.038   4.425   6.297 -0.3197 -0.8236  0.1441
   94SAPS   O22 9234   5.000   4.394   6.186  0.7567  0.1138 -0.0726
   94SAPS   C22 9235   5.008   4.331   6.419 -0.0952 -0.8809  0.2412
   94SAPS   H2R 9236   5.111   4.297   6.446  0.9021  2.4053  1.0254
   94SAPS   H2S 9237   4.969   4.391   6.503 -1.2173  2.5178 -2.4566
   94SAPS    C3 9238   5.275   4.690   6.276 -0.6015  0.0558 -0.4019
   94SAPS    HX 9239   5.229   4.790   6.291 -0.2858  0.2671 -0.8310
   94SAPS    HY 9240   5.358   4.693   6.202  0.8770  1.0600  1.2243
   94SAPS   O31 9241   5.330   4.637   6.397 -0.7636  0.3311  0.0238
   94SAPS   C31 9242   5.396   4.524   6.375 -0.6165  0.1523 -0.1837
   94SAPS   O32 9243   5.442   4.491   6.265  0.4223 -0.0135  0.6136
   94SAPS   C32 9244   5.408   4.443   6.505  0.1793 -0.1265  0.4011
   94SAPS   H2X 9245   5.513   4.454   6.539  0.6403 -0.0780 -0.9859
   94SAPS   H2Y 9246   5.405   4.334   6.488  0.4980 -0.2797  1.3264
   94SAPS   C23 9247   4.920   4.204   6.390 -0.3863  0.0194  0.7866
   94SAPS   H3R 9248   4.994   4.137   6.340  0.3014  1.5479 -0.3390
   94SAPS   H3S 9249   4.836   4.225   6.320  1.0581  1.9432 -0.4966
   94SAPS   C24 9250   4.856   4.152   6.515  0.5692  0.7245 -0.0684
   94SAPS   H4R 9251   4.798   4.063   6.483 -0.6309  1.3427  0.3296
   94SAPS   H4S 9252   4.776   4.221   6.550  1.7934  1.3703  1.6486
   94SAPS   C25 9253   4.960   4.100   6.622 -0.5682 -0.4334 -0.1205
   94SAPS   H5R 9254   5.027   4.017   6.596 -1.1210 -0.5957 -1.1041
   94SAPS   C26 9255   4.978   4.154   6.742 -0.2739  0.4110  0.1083
   94SAPS   H6R 9256   5.051   4.104   6.808  0.4883 -0.0459 -1.0483
   94SAPS   C27 9257   4.907   4.280   6.792 -0.1114  0.6449  0.6037
   94SAPS   H7R 9258   4.802   4.259   6.824 -1.0162  1.7466 -1.4842
   94SAPS   H7S 9259   4.890   4.357   6.714  2.2284  1.8699  1.2082
   94SAPS   C28 9260   4.981   4.340   6.905 -0.4902  0.2845 -1.0733
   94SAPS   H8R 9261   5.042   4.429   6.886  0.9520  0.6325  3.7621
   94SAPS   C29 9262   4.962   4.301   7.032 -0.5698  0.3085 -0.7285
   94SAPS   H9R 9263   5.012   4.363   7.107  0.2665 -0.5617 -0.5443
   94SAPS  C210 9264   4.874   4.181   7.072  0.0370  0.6205  0.2618
   94SAPS  H10R 9265   4.948   4.099   7.089  1.3032  0.8707 -3.1732
   94SAPS  H10S 9266   4.809   4.135   6.995 -0.0092 -2.1377  1.8336
   94SAPS  C211 9267   4.796   4.213   7.191 -0.7314 -0.0541 -0.3592
   94SAPS  H11R 9268   4.694   4.250   7.170 -0.1633  2.2729  0.6875
   94SAPS  C212 9269   4.849   4.206   7.317  0.0721 -0.0420  0.3478
   94SAPS  H12R 9270   4.784   4.240   7.400 -0.1463  0.1305  0.1055
   94SAPS  C213 9271   4.984   4.145   7.353  0.0156 -0.2113 -0.0869
   94SAPS  H13R 9272   5.054   4.138   7.267 -1.3690  1.0402 -1.3835
   94SAPS  H13S 9273   4.982   4.038   7.381  0.2598 -0.6225 -1.5926
   94SAPS  C214 9274   5.062   4.227   7.458  0.2681  0.8566 -0.0642
   94SAPS  H14R 9275   5.129   4.300   7.409 -1.4970  1.4443 -1.7561
   94SAPS  C215 9276   5.073   4.190   7.589  0.2418 -0.3390 -0.1832
   94SAPS  H15R 9277   5.132   4.259   7.651 -0.3747  0.8576 -0.8822
   94SAPS  C216 9278   4.999   4.085   7.662 -0.1819  0.6506 -0.2031
   94SAPS  H16R 9279   5.072   4.017   7.711 -0.5473  2.3599  2.9906
   94SAPS  H16S 9280   4.929   4.029   7.596  0.6702 -1.8710  0.9212
   94SAPS  C217 9281   4.925   4.135   7.789  0.3241  0.0057 -0.0255
   94SAPS  H17R 9282   4.850   4.054   7.802 -0.4157  0.1666 -2.7792
   94SAPS  H17S 9283   4.865   4.223   7.758 -1.5783 -1.5389 -0.9131
   94SAPS  C218 9284   5.011   4.160   7.913  0.1385 -0.8130  0.3052
   94SAPS  H18R 9285   5.080   4.247   7.906 -1.6776  0.6457 -0.6024
   94SAPS  H18S 9286   5.083   4.077   7.925  0.1705 -0.9659 -0.8271
   94SAPS  C219 9287   4.920   4.181   8.033  0.2016 -1.0873 -0.3944
   94SAPS  H19R 9288   4.967   4.146   8.128  0.9825  0.9111 -0.0073
   94SAPS  H19S 9289   4.833   4.114   8.014 -1.8783  2.0211 -2.6962
   94SAPS  C220 9290   4.867   4.323   8.052  0.7367  0.1005 -0.0060
   94SAPS  H20R 9291   4.942   4.398   8.088 -0.3307  0.1957  2.1418
   94SAPS  H20S 9292   4.785   4.335   8.125  0.8113  1.6301 -0.1275
   94SAPS  H20T 9293   4.828   4.365   7.957  0.3124 -1.4859 -0.5624
   94SAPS   C33 9294   5.305   4.478   6.619 -0.8993 -0.3154  0.5889
   94SAPS   H3X 9295   5.203   4.445   6.588 -0.3072 -1.6840  0.0328
   94SAPS   H3Y 9296   5.304   4.588   6.632 -1.0656 -0.3582  0.9590
   94SAPS   C34 9297   5.343   4.420   6.754 -0.0868  0.3690  0.1227
   94SAPS   H4X 9298   5.426   4.348   6.736  2.4907  2.9370  1.0380
   94SAPS   H4Y 9299   5.254   4.360   6.783 -0.7316  0.1406 -2.1079
   94SAPS   C35 9300   5.392   4.524   6.855 -0.1847  0.2850 -0.3109
   94SAPS   H5X 9301   5.306   4.583   6.893 -0.1861  1.5406 -2.1263
   94SAPS   H5Y 9302   5.450   4.606   6.807 -0.7627  1.0574  0.2970
   94SAPS   C36 9303   5.469   4.459   6.971  0.0229  0.0034  0.0750
   94SAPS   H6X 9304   5.532   4.542   7.009 -0.3028  1.1341 -1.7221
   94SAPS   H6Y 9305   5.541   4.384   6.933  0.5416  1.1025 -1.2158
   94SAPS   C37 9306   5.383   4.419   7.097 -0.3225 -0.2990  0.1239
   94SAPS   H7X 9307   5.329   4.324   7.080  0.0446 -0.6419  0.8312
   94SAPS   H7Y 9308   5.314   4.503   7.122  1.0183  0.9681 -0.2964
   94SAPS   C38 9309   5.484   4.380   7.207  0.6112  0.1786  0.1364
   94SAPS   H8X 9310   5.541   4.473   7.226  0.0897  0.6020 -0.3164
   94SAPS   H8Y 9311   5.548   4.296   7.172  1.4046  0.7493  0.1939
   94SAPS   C39 9312   5.405   4.352   7.333 -0.6118  0.0173 -0.3928
   94SAPS   H9X 9313   5.350   4.255   7.332  1.3019 -1.1470  0.8159
   94SAPS   H9Y 9314   5.328   4.430   7.351 -0.1584  0.3966 -0.0899
   94SAPS  C310 9315   5.495   4.353   7.461 -0.2267  0.3566 -0.4237
   94SAPS  H10X 9316   5.540   4.455   7.463 -2.0009  1.1800 -0.2832
   94SAPS  H10Y 9317   5.583   4.287   7.452 -0.1426  0.3442  0.4654
   94SAPS  C311 9318   5.411   4.336   7.586  0.3551 -0.9791  0.0920
   94SAPS  H11X 9319   5.381   4.230   7.597 -1.1184 -0.5642  0.2362
   94SAPS  H11Y 9320   5.324   4.401   7.566  1.1219 -0.5700 -2.2401
   94SAPS  C312 9321   5.495   4.369   7.711 -0.5386  0.3077 -0.0113
   94SAPS  H12X 9322   5.508   4.478   7.727 -1.5957  0.1070  2.8003
   94SAPS  H12Y 9323   5.590   4.314   7.693 -2.2165 -2.1783 -2.1785
   94SAPS  C313 9324   5.424   4.310   7.831  0.7979  0.5566  0.2856
   94SAPS  H13X 9325   5.407   4.200   7.830 -0.1198  0.6786  0.9633
   94SAPS  H13Y 9326   5.322   4.352   7.844 -0.1959 -1.5685 -0.2502
   94SAPS  C314 9327   5.498   4.342   7.967  0.0242 -0.3201 -0.0994
   94SAPS  H14X 9328   5.519   4.449   7.986  0.9723 -0.8336  1.9849
   94SAPS  H14Y 9329   5.596   4.295   7.944  0.6653  0.0742  1.6784
   94SAPS  C315 9330   5.425   4.307   8.088 -0.0801  0.4120 -0.0023
   94SAPS  H15X 9331   5.478   4.329   8.183 -4.2092 -0.2039  2.7305
   94SAPS  H15Y 9332   5.406   4.198   8.074 -3.5331  0.9776 -0.5599
   94SAPS  C316 9333   5.302   4.390   8.106  0.3684 -0.2041  0.2300
   94SAPS  H16X 9334   5.214   4.358   8.046  1.4504  0.6445 -1.9158
   94SAPS  H16Y 9335   5.316   4.497   8.078 -2.1873  0.4934  1.2787
   94SAPS  C317 9336   5.254   4.401   8.248  0.1800 -0.1112  0.2625
   94SAPS  H17X 9337   5.167   4.470   8.249  0.0913 -0.2276  0.6090
   94SAPS  H17Y 9338   5.340   4.453   8.296 -0.3075  0.1590  0.8470
   94SAPS  C318 9339   5.213   4.267   8.310  0.1800 -0.8194 -0.0188
   94SAPS  H18X 9340   5.141   4.284   8.393 -1.0983 -1.3544 -0.9691
   94SAPS  H18Y 9341   5.287   4.206   8.366  1.4022  1.2677  0.7135
   94SAPS  H18Z 9342   5.158   4.200   8.240  1.8333 -1.8823 -0.3443
   95SAPS     N 9343   0.181   2.560   6.409 -0.8134  0.5993  0.5415
   95SAPS   HN1 9344   0.078   2.541   6.408 -0.2426 -4.0851  3.0724
   95SAPS   HN2 9345   0.233   2.479   6.447  0.6917  0.6680 -1.1991
   95SAPS   HN3 9346   0.204   2.648   6.460  1.1453  1.6743 -1.9482
   95SAPS   C12 9347   0.233   2.590   6.271 -0.2771 -0.3496 -0.6575
   95SAPS  H12A 9348   0.185   2.510   6.217 -1.9041 -0.0010  0.2223
   95SAPS   C13 9349   0.177   2.721   6.211 -0.1197 -0.1006  0.2513
   95SAPS  O13A 9350   0.097   2.785   6.283  0.5469  0.0856  0.5116
   95SAPS  O13B 9351   0.225   2.757   6.102 -0.0997  0.2135  0.2835
   95SAPS   C11 9352   0.391   2.592   6.265  0.1713 -0.4876 -1.0158
   95SAPS  H11A 9353   0.422   2.690   6.305 -2.4417 -0.7411  2.0650
   95SAPS  H11B 9354   0.428   2.590   6.160  4.2446  2.0538  0.1337
   95SAPS     P 9355   0.596   2.440   6.336  0.0201  0.1235 -0.2736
   95SAPS   O13 9356   0.601   2.353   6.222 -0.2176  0.2887 -0.0887
   95SAPS   O14 9357   0.689   2.555   6.344  0.2523  0.7729  0.2073
   95SAPS   O12 9358   0.452   2.495   6.348  0.2732 -0.7443 -0.3503
   95SAPS   O11 9359   0.599   2.346   6.460  0.4821  0.5612  1.0029
   95SAPS    C1 9360   0.657   2.379   6.583  0.0305  0.2738 -0.5096
   95SAPS    HA 9361   0.697   2.483   6.587 -1.4801  0.8576  1.2661
   95SAPS    HB 9362   0.575   2.374   6.657  0.8317  0.3957  0.4056
   95SAPS    C2 9363   0.771   2.273   6.615  0.1075 -0.1959  0.5208
   95SAPS    HS 9364   0.840   2.285   6.529 -1.2659  0.8558 -0.4824
   95SAPS   O21 9365   0.721   2.142   6.621 -0.4057 -0.1831  0.4790
   95SAPS   C21 9366   0.729   2.070   6.503  0.4498 -0.3263 -0.0398
   95SAPS   O22 9367   0.759   2.117   6.394  0.4462 -0.0625 -0.0509
   95SAPS   C22 9368   0.656   1.938   6.541  0.0930  0.6066  0.2184
   95SAPS   H2R 9369   0.660   1.929   6.651  0.8878  2.0889  0.3322
   95SAPS   H2S 9370   0.553   1.956   6.503  1.2924  1.0866 -3.2606
   95SAPS    C3 9371   0.841   2.296   6.751 -0.4902  0.6266  0.2240
   95SAPS    HX 9372   0.936   2.240   6.737 -1.7648 -1.8713  0.9767
   95SAPS    HY 9373   0.784   2.246   6.832  0.2158 -1.2283 -0.3876
   95SAPS   O31 9374   0.871   2.435   6.772  0.6353  0.2022 -0.0269
   95SAPS   C31 9375   0.932   2.448   6.889  0.2587 -0.2189 -0.3442
   95SAPS   O32 9376   0.955   2.361   6.966 -0.9595  0.2404 -1.0692
   95SAPS   C32 9377   0.959   2.597   6.908 -1.0182  0.3950 -0.2895
   95SAPS   H2X 9378   0.877   2.660   6.865 -1.1918  0.4044  0.0520
   95SAPS   H2Y 9379   1.043   2.621   6.840  0.9090  0.0665  1.8661
   95SAPS   C23 9380   0.717   1.802   6.486  0.4097  0.3630 -0.7365
   95SAPS   H3R 9381   0.751   1.804   6.380 -2.2537 -4.4796 -1.9671
   95SAPS   H3S 9382   0.641   1.722   6.492 -0.2151  1.0153  3.6701
   95SAPS   C24 9383   0.824   1.745   6.582 -0.0221 -0.4069  0.3276
   95SAPS   H4R 9384   0.870   1.653   6.542  0.9726  1.0826 -2.2100
   95SAPS   H4S 9385   0.769   1.733   6.678 -0.3550 -1.8913 -0.0209
   95SAPS   C25 9386   0.943   1.840   6.585  1.0124 -0.9802  0.4968
   95SAPS   H5R 9387   0.994   1.840   6.488 -0.4147 -3.8489 -0.3699
   95SAPS   C26 9388   0.976   1.928   6.684  0.0797 -0.4380  0.0225
   95SAPS   H6R 9389   1.060   1.996   6.662  0.1195 -0.7535 -0.8539
   95SAPS   C27 9390   0.911   1.926   6.823 -0.1363  0.0840 -0.2158
   95SAPS   H7R 9391   0.830   1.852   6.839  0.3072 -0.6716 -1.3485
   95SAPS   H7S 9392   0.866   2.022   6.856  1.5583  0.0794  2.3517
   95SAPS   C28 9393   1.025   1.886   6.915  0.7108 -0.1452  0.2860
   95SAPS   H8R 9394   1.113   1.849   6.861  0.6210  0.3390 -0.1994
   95SAPS   C29 9395   1.015   1.892   7.052 -0.6849 -0.0303  0.2674
   95SAPS   H9R 9396   1.104   1.872   7.113  0.8460  2.1228 -1.1369
   95SAPS  C210 9397   0.898   1.943   7.127  0.7983  0.5894 -0.2176
   95SAPS  H10R 9398   0.877   1.863   7.201 -0.2779  0.0612 -1.0607
   95SAPS  H10S 9399   0.809   1.938   7.060  0.5264 -3.7492  0.1907
   95SAPS  C211 9400   0.927   2.083   7.184  0.1540 -0.1116  0.1860
   95SAPS  H11R 9401   0.951   2.155   7.104 -0.8661 -1.5825 -1.5388
   95SAPS  C212 9402   0.975   2.101   7.312  0.4246  0.0648 -0.1145
   95SAPS  H12R 9403   0.993   2.206   7.338  3.0490  0.2105 -2.0754
   95SAPS  C213 9404   0.985   1.991   7.419 -0.1906 -0.4788  1.0423
   95SAPS  H13R 9405   1.075   2.009   7.482  1.0778  1.0938 -1.0658
   95SAPS  H13S 9406   0.999   1.886   7.386  0.6546 -0.0197 -0.1300
   95SAPS  C214 9407   0.868   1.988   7.511  0.2985  0.0504  0.6331
   95SAPS  H14R 9408   0.799   2.074   7.503  1.4930  1.1654  1.7421
   95SAPS  C215 9409   0.850   1.899   7.617 -0.2821 -1.9872 -0.4523
   95SAPS  H15R 9410   0.759   1.908   7.678  0.7250  0.0124  0.8492
   95SAPS  C216 9411   0.934   1.779   7.659  0.4495  0.1751  0.2053
   95SAPS  H16R 9412   1.012   1.771   7.580 -0.5004 -0.7093 -0.6657
   95SAPS  H16S 9413   0.866   1.691   7.653  1.5971 -0.6226 -2.1904
   95SAPS  C217 9414   1.013   1.795   7.792 -0.6236 -0.3934  0.5044
   95SAPS  H17R 9415   1.100   1.861   7.772 -2.2476  1.4236 -0.9922
   95SAPS  H17S 9416   1.046   1.691   7.810  0.7666  0.0931  0.9315
   95SAPS  C218 9417   0.933   1.844   7.914  0.7071 -0.4304 -0.0603
   95SAPS  H18R 9418   0.878   1.750   7.933  1.4297 -0.8191  0.1775
   95SAPS  H18S 9419   0.863   1.925   7.887 -0.5301 -1.6353 -0.5571
   95SAPS  C219 9420   1.030   1.892   8.027 -0.6028  0.3218 -0.6933
   95SAPS  H19R 9421   0.969   1.930   8.111 -0.5911 -1.4052  0.1385
   95SAPS  H19S 9422   1.094   1.972   7.983  0.6386  0.5309  1.3725
   95SAPS  C220 9423   1.118   1.771   8.072  0.2609  0.2867  0.5686
   95SAPS  H20R 9424   1.171   1.727   7.985 -0.2772 -0.5011  0.6353
   95SAPS  H20S 9425   1.060   1.698   8.133  1.3706 -0.9744  0.1533
   95SAPS  H20T 9426   1.202   1.806   8.136  0.7828 -0.5392  0.3391
   95SAPS   C33 9427   1.000   2.635   7.054  0.1250 -0.1644  0.4937
   95SAPS   H3X 9428   1.089   2.580   7.090 -0.7073 -0.3750  2.3387
   95SAPS   H3Y 9429   0.917   2.605   7.122 -1.2548  1.7801 -0.2163
   95SAPS   C34 9430   1.031   2.782   7.082  0.0965  0.1461 -0.3466
   95SAPS   H4X 9431   0.952   2.832   7.021  0.2734 -1.2698 -1.7956
   95SAPS   H4Y 9432   1.125   2.818   7.034  0.7745  0.6337  1.2990
   95SAPS   C35 9433   1.020   2.827   7.224  0.1686 -0.6961  0.1838
   95SAPS   H5X 9434   0.938   2.771   7.274  1.3873 -1.7648  1.0511
   95SAPS   H5Y 9435   0.995   2.935   7.220  3.0836  0.0277 -1.2566
   95SAPS   C36 9436   1.150   2.809   7.304 -0.0911 -0.3800 -0.4703
   95SAPS   H6X 9437   1.226   2.857   7.239  0.4510 -1.8156 -0.9452
   95SAPS   H6Y 9438   1.178   2.701   7.308 -0.1887 -0.4262 -0.9619
   95SAPS   C37 9439   1.141   2.858   7.448  0.9201  0.2145 -0.0206
   95SAPS   H7X 9440   1.067   2.801   7.508  0.8130  0.0224 -0.3328
   95SAPS   H7Y 9441   1.092   2.958   7.455  2.1608  0.7416  1.7003
   95SAPS   C38 9442   1.274   2.849   7.520  0.2786  0.0015  0.3081
   95SAPS   H8X 9443   1.349   2.914   7.469 -0.6081  0.4890 -0.3992
   95SAPS   H8Y 9444   1.310   2.744   7.515  1.9600  0.5042  1.1129
   95SAPS   C39 9445   1.282   2.881   7.672  0.5602  0.3353  0.2250
   95SAPS   H9X 9446   1.254   2.989   7.680  2.2889  1.0617 -2.2466
   95SAPS   H9Y 9447   1.389   2.877   7.701  0.2846 -1.4094  1.1499
   95SAPS  C310 9448   1.201   2.777   7.755 -0.4159 -0.5938  0.1620
   95SAPS  H10X 9449   1.274   2.725   7.821  1.2708  2.8233  1.2068
   95SAPS  H10Y 9450   1.155   2.706   7.681 -0.2532 -0.1293 -0.3907
   95SAPS  C311 9451   1.095   2.846   7.839 -0.4501 -0.6384 -0.3256
   95SAPS  H11X 9452   1.035   2.917   7.779 -0.8814  1.0981  2.0309
   95SAPS  H11Y 9453   1.148   2.905   7.916  0.7063 -2.0827  0.0404
   95SAPS  C312 9454   0.989   2.750   7.901 -0.5026  0.5396  1.0002
   95SAPS  H12X 9455   1.050   2.683   7.965  3.6174 -0.9236 -3.7977
   95SAPS  H12Y 9456   0.938   2.692   7.821 -1.5612  1.4988  0.9530
   95SAPS  C313 9457   0.885   2.832   7.990  0.4959  0.9404 -0.3318
   95SAPS  H13X 9458   0.863   2.924   7.932 -0.3446  0.6974 -0.4170
   95SAPS  H13Y 9459   0.943   2.872   8.077 -1.5124  0.9149  1.0821
   95SAPS  C314 9460   0.752   2.756   8.029 -0.6314  0.3245  0.8792
   95SAPS  H14X 9461   0.777   2.672   8.096 -0.3545 -0.8368 -0.6193
   95SAPS  H14Y 9462   0.720   2.734   7.924  0.3994 -0.7117  0.7775
   95SAPS  C315 9463   0.649   2.847   8.099  0.1795 -0.2952  0.2023
   95SAPS  H15X 9464   0.645   2.944   8.045 -1.7326  0.3438  1.3873
   95SAPS  H15Y 9465   0.673   2.883   8.201 -0.1425  2.3619 -0.5844
   95SAPS  C316 9466   0.510   2.786   8.105 -0.0125  0.0056 -1.0297
   95SAPS  H16X 9467   0.444   2.853   8.165  1.0190  0.0585  0.0806
   95SAPS  H16Y 9468   0.516   2.695   8.168  2.4529  1.2045  0.6509
   95SAPS  C317 9469   0.440   2.747   7.978 -0.3300 -0.2116  0.3327
   95SAPS  H17X 9470   0.499   2.667   7.928 -0.7191  0.8327 -1.9111
   95SAPS  H17Y 9471   0.448   2.831   7.906  1.0092  0.6211  1.4160
   95SAPS  C318 9472   0.299   2.710   7.978 -0.4174 -0.5730  0.2533
   95SAPS  H18X 9473   0.267   2.624   8.042 -1.4743 -1.4470 -1.3781
   95SAPS  H18Y 9474   0.261   2.680   7.878  0.2606 -1.9544  0.3829
   95SAPS  H18Z 9475   0.241   2.800   8.007  0.1809 -0.2579  0.4737
   96SAPS     N 9476   2.850   3.819   5.912 -0.0147 -0.2209 -0.4062
   96SAPS   HN1 9477   2.943   3.858   5.888  0.1673  0.8839  1.8525
   96SAPS   HN2 9478   2.871   3.758   5.994  1.0809 -1.4424 -1.5404
   96SAPS   HN3 9479   2.813   3.758   5.836  0.0445  0.3779 -0.9259
   96SAPS   C12 9480   2.749   3.919   5.959 -0.2625 -0.2571 -0.0665
   96SAPS  H12A 9481   2.737   3.971   5.865 -1.2517 -1.1462 -0.4516
   96SAPS   C13 9482   2.609   3.871   6.002 -0.6316 -0.8816  0.4638
   96SAPS  O13A 9483   2.578   3.756   5.975  0.5840 -0.4374  0.0718
   96SAPS  O13B 9484   2.524   3.959   6.031 -0.2807  0.2107 -0.4650
   96SAPS   C11 9485   2.811   4.001   6.082  0.3798 -0.3430  0.2238
   96SAPS  H11A 9486   2.810   3.929   6.166  0.5695 -1.0607 -0.3732
   96SAPS  H11B 9487   2.746   4.090   6.096  0.8842  0.2225 -0.8436
   96SAPS     P 9488   3.013   4.163   6.134  0.0310 -0.1881 -0.3454
   96SAPS   O13 9489   3.135   4.121   6.201  0.3511  0.0189  0.2401
   96SAPS   O14 9490   3.028   4.270   6.036  0.1606 -0.0741  0.2798
   96SAPS   O12 9491   2.949   4.037   6.056  0.2003  0.1282 -0.5178
   96SAPS   O11 9492   2.905   4.194   6.237  0.1674 -0.2726 -0.4338
   96SAPS    C1 9493   2.862   4.329   6.268  0.6880 -0.3768  0.0784
   96SAPS    HA 9494   2.938   4.406   6.245  1.0409 -1.1230 -1.3363
   96SAPS    HB 9495   2.773   4.341   6.204  1.4254 -0.5654 -1.0106
   96SAPS    C2 9496   2.810   4.326   6.416 -1.1308  0.0900  0.0482
   96SAPS    HS 9497   2.765   4.427   6.429  0.1553  0.7554 -0.6001
   96SAPS   O21 9498   2.916   4.296   6.503  0.6678 -0.1376 -0.1769
   96SAPS   C21 9499   2.984   4.393   6.548  0.8117 -0.7093 -0.2624
   96SAPS   O22 9500   2.965   4.512   6.522  0.1413  0.5007  0.2428
   96SAPS   C22 9501   3.083   4.339   6.646 -0.3431 -0.6992 -0.2134
   96SAPS   H2R 9502   3.100   4.230   6.635  0.1196 -0.6713  0.1498
   96SAPS   H2S 9503   3.180   4.387   6.620 -0.5871 -0.2573 -0.3174
   96SAPS    C3 9504   2.705   4.211   6.433  0.4606  0.0988 -0.7398
   96SAPS    HX 9505   2.762   4.118   6.411 -2.0555 -2.2412  1.8008
   96SAPS    HY 9506   2.624   4.214   6.357 -1.6720  0.3623  1.4469
   96SAPS   O31 9507   2.654   4.198   6.571 -0.0483 -0.5486  0.2575
   96SAPS   C31 9508   2.550   4.283   6.608 -0.1790  0.6724  0.3882
   96SAPS   O32 9509   2.481   4.346   6.533 -0.6980 -0.2329  0.5899
   96SAPS   C32 9510   2.561   4.292   6.762 -0.1663  0.2305 -0.9943
   96SAPS   H2X 9511   2.494   4.373   6.796 -1.2520 -1.6287  1.6790
   96SAPS   H2Y 9512   2.670   4.313   6.775 -0.4646  1.6335 -0.6107
   96SAPS   C23 9513   3.041   4.365   6.791 -0.1618  0.4968 -0.0044
   96SAPS   H3R 9514   2.934   4.342   6.806 -0.0176 -0.1260  0.1099
   96SAPS   H3S 9515   3.046   4.474   6.812 -0.5019  0.4672  0.2365
   96SAPS   C24 9516   3.129   4.282   6.896  0.2704 -0.2040  0.2988
   96SAPS   H4R 9517   3.121   4.175   6.867 -0.8334 -0.6533  2.0667
   96SAPS   H4S 9518   3.077   4.288   6.995  0.0607  0.9491  0.1287
   96SAPS   C25 9519   3.275   4.323   6.885 -0.5722 -0.3270 -0.3577
   96SAPS   H5R 9520   3.316   4.317   6.783 -0.3574  2.6511 -0.5327
   96SAPS   C26 9521   3.356   4.362   6.984 -0.3119 -0.5829  0.3866
   96SAPS   H6R 9522   3.462   4.387   6.966 -0.4983  0.9344  1.2942
   96SAPS   C27 9523   3.336   4.395   7.125 -0.5509 -0.5395 -0.0142
   96SAPS   H7R 9524   3.230   4.387   7.157 -0.5260 -0.1547  0.1696
   96SAPS   H7S 9525   3.371   4.498   7.147  0.3829 -0.7291 -0.5612
   96SAPS   C28 9526   3.408   4.298   7.209 -0.5065  0.4600  0.1114
   96SAPS   H8R 9527   3.447   4.199   7.178  0.6836  0.6696  0.8681
   96SAPS   C29 9528   3.462   4.337   7.327  0.3477 -0.5830  0.2399
   96SAPS   H9R 9529   3.519   4.264   7.387  1.0079  0.7406  1.2831
   96SAPS  C210 9530   3.428   4.468   7.399 -0.1826 -0.5707 -0.0144
   96SAPS  H10R 9531   3.326   4.491   7.363  0.4744 -0.9765 -2.2928
   96SAPS  H10S 9532   3.487   4.555   7.362 -1.9057 -0.4075 -2.6298
   96SAPS  C211 9533   3.439   4.466   7.548  0.5847  0.6242  0.1502
   96SAPS  H11R 9534   3.521   4.515   7.602  1.2255 -1.1835  0.8936
   96SAPS  C212 9535   3.350   4.402   7.628  0.2326  0.4146  0.0250
   96SAPS  H12R 9536   3.364   4.402   7.737 -2.9530 -0.1345  0.5596
   96SAPS  C213 9537   3.227   4.320   7.570 -0.1170 -0.0611 -0.3326
   96SAPS  H13R 9538   3.248   4.262   7.477  1.5409 -1.6409  0.9559
   96SAPS  H13S 9539   3.152   4.395   7.537 -2.5263 -1.4344  1.6869
   96SAPS  C214 9540   3.158   4.232   7.679  0.4867 -0.0378  1.1148
   96SAPS  H14R 9541   3.200   4.130   7.676 -1.1256 -0.7385  1.3946
   96SAPS  C215 9542   3.084   4.271   7.784  0.3210 -0.0960 -0.4536
   96SAPS  H15R 9543   3.031   4.188   7.834 -1.6083  0.7966 -0.8955
   96SAPS  C216 9544   3.047   4.414   7.825 -0.5942 -0.6241  0.2121
   96SAPS  H16R 9545   2.938   4.415   7.807 -0.4655 -0.1981 -0.5647
   96SAPS  H16S 9546   3.094   4.496   7.766 -0.6634 -0.9026 -0.2309
   96SAPS  C217 9547   3.091   4.429   7.971 -0.2475 -0.0599 -0.1045
   96SAPS  H17R 9548   3.202   4.429   7.970 -0.2493  0.6425 -0.5972
   96SAPS  H17S 9549   3.048   4.345   8.030 -1.4821  0.4595 -0.2320
   96SAPS  C218 9550   3.052   4.563   8.049 -0.1407  0.0820 -0.2913
   96SAPS  H18R 9551   3.077   4.645   7.979  0.1645 -0.4344 -0.7973
   96SAPS  H18S 9552   3.116   4.572   8.140 -1.6050 -0.3571  0.8323
   96SAPS  C219 9553   2.903   4.567   8.092 -0.8052 -0.3580 -0.5840
   96SAPS  H19R 9554   2.896   4.495   8.176  2.5384  1.2499  1.2820
   96SAPS  H19S 9555   2.835   4.534   8.010  0.8040  0.3333 -2.2769
   96SAPS  C220 9556   2.853   4.696   8.157 -0.5360  0.7546  0.0738
   96SAPS  H20R 9557   2.749   4.693   8.197 -0.6846  1.1532 -0.2709
   96SAPS  H20S 9558   2.859   4.784   8.089 -0.7564 -0.7417 -1.9523
   96SAPS  H20T 9559   2.913   4.714   8.249 -1.0455  0.7329  0.4156
   96SAPS   C33 9560   2.526   4.158   6.833 -0.5319  0.3300 -0.2995
   96SAPS   H3X 9561   2.559   4.175   6.938 -2.5927  0.0604  0.4525
   96SAPS   H3Y 9562   2.587   4.083   6.778 -0.9182 -0.4562  0.3208
   96SAPS   C34 9563   2.382   4.118   6.842 -0.0353  0.6498  0.6049
   96SAPS   H4X 9564   2.326   4.122   6.746 -0.8500  0.7964  1.0810
   96SAPS   H4Y 9565   2.320   4.181   6.909 -0.5719  1.1570 -0.3509
   96SAPS   C35 9566   2.374   3.973   6.886 -0.0177 -0.1771 -0.2906
   96SAPS   H5X 9567   2.397   3.908   6.800 -2.8965 -0.5997 -0.8553
   96SAPS   H5Y 9568   2.266   3.955   6.906  0.1169 -0.9162 -0.1825
   96SAPS   C36 9569   2.452   3.929   7.012 -0.2113 -0.2358  0.4517
   96SAPS   H6X 9570   2.559   3.955   7.002 -0.5582  0.8463 -0.8279
   96SAPS   H6Y 9571   2.453   3.819   7.027 -0.7889 -0.5807 -1.6431
   96SAPS   C37 9572   2.384   3.983   7.136  0.2025  0.1115 -0.1765
   96SAPS   H7X 9573   2.279   3.955   7.113  0.0779  0.1180  0.3745
   96SAPS   H7Y 9574   2.395   4.094   7.142  0.3227  0.0507  0.9446
   96SAPS   C38 9575   2.451   3.929   7.261  0.1009 -0.5440  0.1884
   96SAPS   H8X 9576   2.555   3.969   7.265 -0.0531 -0.1970  1.2696
   96SAPS   H8Y 9577   2.469   3.820   7.253 -0.5295 -0.5855 -0.7866
   96SAPS   C39 9578   2.371   3.964   7.395  0.0863 -0.1826  0.1642
   96SAPS   H9X 9579   2.277   3.905   7.391 -0.6779  0.9958  0.3748
   96SAPS   H9Y 9580   2.354   4.070   7.421 -0.3977 -0.1085 -0.4540
   96SAPS  C310 9581   2.454   3.903   7.509  0.1188 -0.1615  0.6436
   96SAPS  H10X 9582   2.555   3.945   7.525 -0.1177 -0.4085  3.1203
   96SAPS  H10Y 9583   2.467   3.796   7.482 -0.4436  0.2516 -1.5207
   96SAPS  C311 9584   2.373   3.911   7.642  0.8787  0.6416  0.0613
   96SAPS  H11X 9585   2.267   3.881   7.626  0.5801  2.4008 -1.7159
   96SAPS  H11Y 9586   2.379   4.013   7.687  0.0509  0.5309  0.4483
   96SAPS  C312 9587   2.439   3.830   7.758  0.4623 -0.2388 -0.1884
   96SAPS  H12X 9588   2.532   3.882   7.788 -0.6397  1.2565  0.7923
   96SAPS  H12Y 9589   2.448   3.727   7.717 -1.7286 -1.1791  1.4718
   96SAPS  C313 9590   2.352   3.820   7.888  0.1755 -0.0401 -0.2383
   96SAPS  H13X 9591   2.268   3.750   7.868 -0.0130  0.6391 -2.0314
   96SAPS  H13Y 9592   2.312   3.920   7.917  3.7685  1.4822 -0.0637
   96SAPS  C314 9593   2.441   3.785   8.007 -0.1538 -0.6276 -0.3423
   96SAPS  H14X 9594   2.518   3.864   8.023 -1.5144  0.3801  1.8718
   96SAPS  H14Y 9595   2.490   3.690   7.978  0.7079  0.3763 -2.4153
   96SAPS  C315 9596   2.371   3.764   8.142 -0.0692 -0.1901 -0.3788
   96SAPS  H15X 9597   2.284   3.695   8.128 -1.9739  1.6799  1.4597
   96SAPS  H15Y 9598   2.317   3.857   8.168  0.4905  0.2744 -0.8622
   96SAPS  C316 9599   2.470   3.740   8.258  0.1287  0.0881  0.2475
   96SAPS  H16X 9600   2.523   3.839   8.260 -1.5920  1.2334 -3.0827
   96SAPS  H16Y 9601   2.546   3.663   8.235  0.5463  0.2714  0.9683
   96SAPS  C317 9602   2.409   3.697   8.395 -0.0318  0.1964  0.1349
   96SAPS  H17X 9603   2.373   3.594   8.378  1.3226  0.1331 -3.0858
   96SAPS  H17Y 9604   2.318   3.759   8.412 -1.6682 -1.4616 -2.0209
   96SAPS  C318 9605   2.504   3.705   8.513  0.3183  0.0968  0.8220
   96SAPS  H18X 9606   2.590   3.638   8.490 -0.0734  0.4080 -1.7943
   96SAPS  H18Y 9607   2.457   3.681   8.611  0.7831 -1.4172  0.6917
   96SAPS  H18Z 9608   2.549   3.807   8.519  0.1980  0.1659  0.5468
   97SAPS     N 9609   2.924   1.233   5.914 -0.1674 -0.2861  0.0726
   97SAPS   HN1 9610   2.975   1.166   5.974  0.7082  1.0199  0.8336
   97SAPS   HN2 9611   2.990   1.270   5.843  0.7036 -0.2334  0.8955
   97SAPS   HN3 9612   2.879   1.311   5.966  0.3728  1.3806 -1.8088
   97SAPS   C12 9613   2.825   1.154   5.841  0.0786 -0.6154 -0.9323
   97SAPS  H12A 9614   2.762   1.224   5.788  0.1158  1.0584  1.1180
   97SAPS   C13 9615   2.898   1.063   5.743  0.3167 -0.4987  0.7930
   97SAPS  O13A 9616   3.021   1.061   5.740  0.2320  0.0439 -0.2380
   97SAPS  O13B 9617   2.824   0.986   5.675 -0.1768  0.2086 -0.4058
   97SAPS   C11 9618   2.740   1.081   5.947  0.5416 -0.6159  0.1703
   97SAPS  H11A 9619   2.802   1.008   6.003  0.8600 -0.4186  0.0814
   97SAPS  H11B 9620   2.662   1.032   5.886  0.3228 -0.8515  0.6363
   97SAPS     P 9621   2.613   1.138   6.170  0.1580  0.0867  0.0275
   97SAPS   O13 9622   2.507   1.235   6.198  0.7587  0.3386 -0.5673
   97SAPS   O14 9623   2.569   0.995   6.179 -0.0539 -0.4577  0.1815
   97SAPS   O12 9624   2.682   1.175   6.026  0.5433  0.6156 -0.1326
   97SAPS   O11 9625   2.730   1.158   6.272 -0.2072  0.7362 -0.3178
   97SAPS    C1 9626   2.802   1.045   6.324 -0.6622 -0.2921  0.5072
   97SAPS    HA 9627   2.803   0.958   6.255  0.7039  0.9913 -1.1749
   97SAPS    HB 9628   2.910   1.070   6.330 -1.0716  1.6261  0.6301
   97SAPS    C2 9629   2.755   1.013   6.469 -0.0331  0.2499  0.4805
   97SAPS    HS 9630   2.645   1.025   6.461  0.0171 -0.3196 -2.7627
   97SAPS   O21 9631   2.824   1.119   6.545 -0.2054 -0.1890  0.2818
   97SAPS   C21 9632   2.758   1.150   6.651 -0.3276 -0.1693 -0.5345
   97SAPS   O22 9633   2.642   1.112   6.686 -0.5964 -0.8201 -0.8717
   97SAPS   C22 9634   2.843   1.249   6.721  1.0898 -0.3893  0.5180
   97SAPS   H2R 9635   2.951   1.229   6.741  1.0927 -0.2102  0.6864
   97SAPS   H2S 9636   2.831   1.340   6.658 -2.2855 -0.2699  1.1664
   97SAPS    C3 9637   2.796   0.876   6.519 -0.5063  0.1660  0.5505
   97SAPS    HX 9638   2.906   0.863   6.513 -0.4999  0.1738  0.6469
   97SAPS    HY 9639   2.761   0.800   6.446 -0.1652  1.2325 -0.7773
   97SAPS   O31 9640   2.762   0.846   6.656 -0.4399 -0.0058  0.1851
   97SAPS   C31 9641   2.639   0.834   6.686  0.5838  0.5623 -0.2646
   97SAPS   O32 9642   2.535   0.845   6.618  0.1044  0.0598 -0.7874
   97SAPS   C32 9643   2.636   0.797   6.836 -0.1166 -0.1849 -0.2293
   97SAPS   H2X 9644   2.690   0.701   6.841  0.1571  0.0446  1.8128
   97SAPS   H2Y 9645   2.533   0.787   6.876  0.3862  1.1907  1.5105
   97SAPS   C23 9646   2.790   1.287   6.858  1.0890 -0.1877 -0.0606
   97SAPS   H3R 9647   2.820   1.207   6.929  0.0018  0.9018  1.7150
   97SAPS   H3S 9648   2.679   1.289   6.864  1.0087 -2.8453  0.6419
   97SAPS   C24 9649   2.840   1.417   6.934 -0.1614 -0.8904 -0.6532
   97SAPS   H4R 9650   2.790   1.423   7.033  0.6834  1.6927 -0.3167
   97SAPS   H4S 9651   2.798   1.503   6.878 -1.4060 -0.5793  0.7012
   97SAPS   C25 9652   2.993   1.418   6.954  0.1078 -0.2795  0.5206
   97SAPS   H5R 9653   3.059   1.428   6.867  0.1679 -0.2852  0.5646
   97SAPS   C26 9654   3.059   1.399   7.071 -0.1422 -0.1775 -0.0188
   97SAPS   H6R 9655   3.169   1.395   7.067 -0.0573  1.2057  0.4219
   97SAPS   C27 9656   2.988   1.376   7.205  0.2336  0.2703  0.2894
   97SAPS   H7R 9657   3.057   1.326   7.276  2.7850  2.0302 -0.7924
   97SAPS   H7S 9658   2.895   1.316   7.192  0.1421  0.4260  0.2174
   97SAPS   C28 9659   2.951   1.514   7.250  0.0271  1.1290 -1.3457
   97SAPS   H8R 9660   2.946   1.600   7.182 -0.1060  0.8348 -1.7128
   97SAPS   C29 9661   2.936   1.545   7.377 -0.0859 -0.4479 -0.2666
   97SAPS   H9R 9662   2.909   1.649   7.400  1.0924  0.2585 -1.9358
   97SAPS  C210 9663   2.946   1.442   7.487 -0.2797 -0.7357  0.4675
   97SAPS  H10R 9664   3.054   1.416   7.489  0.2507  1.0687 -1.1389
   97SAPS  H10S 9665   2.901   1.343   7.463  0.5925 -1.0712  0.2067
   97SAPS  C211 9666   2.898   1.498   7.619  0.4986  0.8030  0.2284
   97SAPS  H11R 9667   2.789   1.490   7.637  0.6832  0.1326  1.1558
   97SAPS  C212 9668   2.971   1.550   7.715  0.4080 -0.3191 -0.1478
   97SAPS  H12R 9669   2.923   1.593   7.804  0.8958 -1.0847  0.4864
   97SAPS  C213 9670   3.120   1.571   7.711 -0.1250  0.2014  0.0007
   97SAPS  H13R 9671   3.168   1.558   7.612 -0.3716  0.2294 -0.1234
   97SAPS  H13S 9672   3.167   1.493   7.774  2.9123  1.6967 -0.2493
   97SAPS  C214 9673   3.161   1.703   7.771  0.7778  0.6833  0.3563
   97SAPS  H14R 9674   3.175   1.784   7.698  1.0103  0.7367  0.4607
   97SAPS  C215 9675   3.181   1.726   7.901 -0.2694 -0.7382 -1.0294
   97SAPS  H15R 9676   3.199   1.830   7.930  0.5611 -0.9042 -0.9075
   97SAPS  C216 9677   3.174   1.632   8.013  0.4091 -0.1645 -0.4812
   97SAPS  H16R 9678   3.264   1.637   8.079  0.2693 -2.4534 -0.0437
   97SAPS  H16S 9679   3.174   1.528   7.976 -1.2740 -0.4828  0.2947
   97SAPS  C217 9680   3.066   1.655   8.117  0.3410  0.0954  0.1720
   97SAPS  H17R 9681   2.972   1.677   8.062 -1.2912 -0.8392  2.4077
   97SAPS  H17S 9682   3.094   1.741   8.182  0.1524  0.5167 -0.2989
   97SAPS  C218 9683   3.053   1.535   8.214  0.0370 -0.0279 -0.2258
   97SAPS  H18R 9684   3.148   1.504   8.261  1.0885  0.4226 -1.9386
   97SAPS  H18S 9685   3.027   1.454   8.143  0.5107 -2.7950  2.5543
   97SAPS  C219 9686   2.939   1.546   8.316 -0.3006 -0.1775  0.0120
   97SAPS  H19R 9687   2.841   1.559   8.266 -0.8903 -1.3732  0.8238
   97SAPS  H19S 9688   2.964   1.625   8.390  1.2661 -0.8683  0.2628
   97SAPS  C220 9689   2.937   1.411   8.390  0.6051  0.1754  0.1914
   97SAPS  H20R 9690   3.019   1.397   8.465 -0.5872 -2.3997  1.1567
   97SAPS  H20S 9691   2.928   1.328   8.317 -3.4495  0.0051  0.6708
   97SAPS  H20T 9692   2.841   1.406   8.447 -0.3355  0.4807 -1.3176
   97SAPS   C33 9693   2.700   0.910   6.915  0.4162  0.1031  0.1816
   97SAPS   H3X 9694   2.634   0.999   6.908 -0.2872 -0.4920 -1.0090
   97SAPS   H3Y 9695   2.801   0.931   6.873 -1.3625  1.6568 -3.8953
   97SAPS   C34 9696   2.712   0.857   7.061  0.1536  0.1119  0.3717
   97SAPS   H4X 9697   2.776   0.768   7.075  0.4700  0.2173 -0.3322
   97SAPS   H4Y 9698   2.607   0.835   7.089  0.2004 -0.8766 -0.2145
   97SAPS   C35 9699   2.755   0.968   7.160 -0.6686  0.4789  0.0032
   97SAPS   H5X 9700   2.717   1.070   7.138 -1.5135  0.0578 -0.5497
   97SAPS   H5Y 9701   2.863   0.982   7.140 -1.1502  1.8211 -1.9536
   97SAPS   C36 9702   2.731   0.936   7.309 -0.1243  0.2404 -0.1083
   97SAPS   H6X 9703   2.789   0.852   7.352 -1.6942 -1.8129 -1.7892
   97SAPS   H6Y 9704   2.625   0.913   7.330  0.0214  1.0933  1.7283
   97SAPS   C37 9705   2.756   1.065   7.393  0.2939  0.3298  0.6679
   97SAPS   H7X 9706   2.674   1.138   7.373  1.7090  1.8183  0.0846
   97SAPS   H7Y 9707   2.850   1.108   7.352 -1.0906  3.6531  0.6329
   97SAPS   C38 9708   2.774   1.034   7.540  0.5861  0.1073 -0.2355
   97SAPS   H8X 9709   2.861   0.971   7.569 -1.8714 -2.4901  2.1147
   97SAPS   H8Y 9710   2.682   0.984   7.578  0.3082 -0.1781 -1.2432
   97SAPS   C39 9711   2.785   1.162   7.631 -0.2641  0.5216  0.1543
   97SAPS   H9X 9712   2.712   1.237   7.593  0.7699  1.9630  0.8853
   97SAPS   H9Y 9713   2.887   1.204   7.632  0.2339 -0.6114  2.2119
   97SAPS  C310 9714   2.761   1.137   7.774  0.5082 -0.4831  0.3517
   97SAPS  H10X 9715   2.656   1.102   7.787  1.1831 -2.5276  0.7343
   97SAPS  H10Y 9716   2.784   1.229   7.832  0.3572  0.7584 -1.5074
   97SAPS  C311 9717   2.850   1.035   7.842 -0.4924  0.5787  0.1095
   97SAPS  H11X 9718   2.954   1.072   7.839 -0.8048  1.4267 -0.6780
   97SAPS  H11Y 9719   2.837   0.939   7.788  1.3745  0.4356 -0.1409
   97SAPS  C312 9720   2.815   1.018   7.994  0.1145  0.5517  0.7490
   97SAPS  H12X 9721   2.706   0.999   8.003  0.1956 -1.2172 -1.1744
   97SAPS  H12Y 9722   2.847   1.105   8.054 -0.5586  2.2707 -1.2575
   97SAPS  C313 9723   2.878   0.884   8.043 -0.0057  0.2904 -0.7499
   97SAPS  H13X 9724   2.983   0.909   8.068  0.4530 -2.1041 -0.0223
   97SAPS  H13Y 9725   2.883   0.809   7.962 -1.3235 -0.2310 -0.3668
   97SAPS  C314 9726   2.797   0.822   8.153 -0.0032  0.5438 -0.1732
   97SAPS  H14X 9727   2.689   0.829   8.129  0.1168 -0.8355 -1.2398
   97SAPS  H14Y 9728   2.829   0.883   8.241  0.3140  2.3673 -1.4930
   97SAPS  C315 9729   2.824   0.674   8.188  0.2358 -0.2429  0.1620
   97SAPS  H15X 9730   2.928   0.646   8.161  0.3817  0.4350  0.0074
   97SAPS  H15Y 9731   2.761   0.614   8.119  1.3634 -1.5669  0.2213
   97SAPS  C316 9732   2.777   0.636   8.333  0.4012  0.6682 -0.4643
   97SAPS  H16X 9733   2.676   0.671   8.363  1.7462  1.6100  3.6525
   97SAPS  H16Y 9734   2.847   0.692   8.399  2.0663 -3.5634  1.7735
   97SAPS  C317 9735   2.790   0.483   8.351 -0.3893  0.2713  0.2627
   97SAPS  H17X 9736   2.887   0.460   8.302  0.9226  1.3295  2.2348
   97SAPS  H17Y 9737   2.724   0.415   8.293  1.8235 -1.7126 -0.0503
   97SAPS  C318 9738   2.796   0.430   8.496 -0.1483  0.6061 -0.3505
   97SAPS  H18X 9739   2.705   0.447   8.558  0.5854 -0.3340  1.0502
   97SAPS  H18Y 9740   2.884   0.469   8.552  0.3228  0.0430 -0.6874
   97SAPS  H18Z 9741   2.807   0.320   8.485 -2.2943  0.3930 -0.9676
   98SAPS     N 9742   1.040   0.542   6.038  0.1850 -0.2790  0.2779
   98SAPS   HN1 9743   0.978   0.515   5.959 -1.3325 -0.8142  1.5930
   98SAPS   HN2 9744   1.081   0.448   6.058  1.3044  0.5340  2.0273
   98SAPS   HN3 9745   0.963   0.573   6.100  1.7561  0.5728  1.8871
   98SAPS   C12 9746   1.131   0.646   5.986  0.1142  0.3814  0.1732
   98SAPS  H12A 9747   1.217   0.592   5.949  0.1011  0.2696  0.3028
   98SAPS   C13 9748   1.065   0.718   5.868 -0.2614  0.1614 -0.8703
   98SAPS  O13A 9749   0.943   0.695   5.841 -0.8278 -0.6040 -0.1490
   98SAPS  O13B 9750   1.146   0.776   5.788 -0.2796 -0.0204  0.2984
   98SAPS   C11 9751   1.175   0.756   6.090 -0.0936  0.4673  0.4632
   98SAPS  H11A 9752   1.266   0.810   6.056  1.0087 -0.6245  1.5456
   98SAPS  H11B 9753   1.202   0.702   6.183  0.5514 -0.7321 -0.3968
   98SAPS     P 9754   0.945   0.841   6.223  0.3671 -0.4525  0.1584
   98SAPS   O13 9755   0.871   0.967   6.231  0.1235 -0.0158  0.4905
   98SAPS   O14 9756   0.857   0.731   6.187  0.3866 -0.0608 -0.1378
   98SAPS   O12 9757   1.072   0.855   6.120  0.0712  0.2565 -0.4903
   98SAPS   O11 9758   1.002   0.812   6.367 -0.0171 -0.8165 -0.3050
   98SAPS    C1 9759   1.121   0.893   6.406 -0.2817 -0.0195 -0.4886
   98SAPS    HA 9760   1.200   0.863   6.334  0.0974 -2.0960  0.7206
   98SAPS    HB 9761   1.104   1.003   6.408 -0.8913 -0.1191  0.8003
   98SAPS    C2 9762   1.178   0.849   6.543  0.3900  0.8201 -0.1951
   98SAPS    HS 9763   1.196   0.739   6.547 -0.0986  0.7643  0.7595
   98SAPS   O21 9764   1.081   0.877   6.651  0.3541  0.0403  0.1362
   98SAPS   C21 9765   1.113   0.827   6.764 -0.3523 -0.3416  0.5035
   98SAPS   O22 9766   1.194   0.734   6.776  0.1971  0.7646  0.2401
   98SAPS   C22 9767   1.013   0.881   6.866  0.4897 -0.2547 -0.4391
   98SAPS   H2R 9768   1.031   0.990   6.880  3.0042 -0.6000 -0.6238
   98SAPS   H2S 9769   0.912   0.866   6.823  0.8403  1.9597 -2.2242
   98SAPS    C3 9770   1.314   0.930   6.553  0.5351 -0.0732  0.5089
   98SAPS    HX 9771   1.374   0.890   6.468 -1.3054 -1.1376 -0.3534
   98SAPS    HY 9772   1.372   0.899   6.643 -0.0662  0.5103  1.1103
   98SAPS   O31 9773   1.298   1.080   6.553 -0.1810 -0.5254  0.2047
   98SAPS   C31 9774   1.314   1.123   6.680  0.4323 -0.1464 -0.4134
   98SAPS   O32 9775   1.346   1.058   6.780 -0.3546 -0.5067  0.4171
   98SAPS   C32 9776   1.269   1.271   6.676  0.5299 -0.5423 -0.8250
   98SAPS   H2X 9777   1.199   1.290   6.591 -0.5161  1.5413  0.4310
   98SAPS   H2Y 9778   1.355   1.341   6.668 -0.2138  0.1853 -3.6971
   98SAPS   C23 9779   1.041   0.796   6.994 -0.4236  0.4277 -0.7799
   98SAPS   H3R 9780   1.150   0.781   7.013 -0.5583 -0.9488 -0.9990
   98SAPS   H3S 9781   1.013   0.690   6.981  1.6748 -0.2516 -0.1455
   98SAPS   C24 9782   0.980   0.864   7.113 -0.1774 -0.2987 -0.0568
   98SAPS   H4R 9783   0.983   0.797   7.201  0.3694  1.2376  1.1453
   98SAPS   H4S 9784   0.876   0.898   7.096  0.2748  0.0909 -2.4615
   98SAPS   C25 9785   1.062   0.985   7.158  0.0412  0.2841  0.0989
   98SAPS   H5R 9786   1.155   1.006   7.104  0.5043  0.6932  1.0300
   98SAPS   C26 9787   1.019   1.075   7.245 -1.5304  0.0507 -0.9269
   98SAPS   H6R 9788   1.092   1.151   7.278 -0.2787 -1.1591 -0.7911
   98SAPS   C27 9789   0.883   1.070   7.305 -0.2179  0.3604 -0.1784
   98SAPS   H7R 9790   0.849   0.966   7.321  2.6906 -0.3247  2.5959
   98SAPS   H7S 9791   0.801   1.108   7.239 -0.5780 -0.5216 -0.2416
   98SAPS   C28 9792   0.866   1.146   7.435 -0.3210 -0.0686  0.4443
   98SAPS   H8R 9793   0.878   1.253   7.411  3.1173 -0.7936 -1.7938
   98SAPS   C29 9794   0.821   1.102   7.553  0.4076 -0.5689  0.8601
   98SAPS   H9R 9795   0.813   1.176   7.635 -1.9718 -0.8271  0.9167
   98SAPS  C210 9796   0.770   0.965   7.595 -0.2089 -0.1268  0.3086
   98SAPS  H10R 9797   0.724   0.933   7.499 -2.8289  1.4451  0.9449
   98SAPS  H10S 9798   0.693   0.960   7.674  0.8441 -0.9548  1.3115
   98SAPS  C211 9799   0.897   0.879   7.629  0.7288 -0.7845  0.0753
   98SAPS  H11R 9800   0.942   0.832   7.541 -2.5077 -1.4922 -1.3205
   98SAPS  C212 9801   0.955   0.860   7.749 -0.2155 -0.2065 -0.0672
   98SAPS  H12R 9802   1.056   0.816   7.755 -0.3595 -0.4969  0.2733
   98SAPS  C213 9803   0.902   0.926   7.875  0.6154 -0.3309  0.9801
   98SAPS  H13R 9804   0.849   0.854   7.941  1.7657 -1.2254  0.9695
   98SAPS  H13S 9805   0.832   1.009   7.852 -0.6459 -0.7803  2.9648
   98SAPS  C214 9806   1.014   0.996   7.950  0.1090 -0.1663  0.8275
   98SAPS  H14R 9807   1.080   1.062   7.891 -3.5744  1.8651 -1.4219
   98SAPS  C215 9808   1.044   0.975   8.080 -0.6795  0.6848  0.1874
   98SAPS  H15R 9809   1.127   1.027   8.129 -0.2968 -0.2850  0.5748
   98SAPS  C216 9810   0.976   0.878   8.165  0.0947  0.9246 -0.1932
   98SAPS  H16R 9811   0.976   0.783   8.106  0.9314  1.6126 -1.3456
   98SAPS  H16S 9812   0.873   0.906   8.195 -0.3304  0.9638 -1.6156
   98SAPS  C217 9813   1.055   0.850   8.292  0.0938 -0.5282 -0.3267
   98SAPS  H17R 9814   1.143   0.786   8.270 -0.9812 -1.5240 -1.9330
   98SAPS  H17S 9815   0.978   0.794   8.348  0.4318 -0.8137 -0.1427
   98SAPS  C218 9816   1.094   0.972   8.376 -0.3870  0.6302 -0.3891
   98SAPS  H18R 9817   1.016   1.052   8.374 -1.7188 -0.5182  1.6128
   98SAPS  H18S 9818   1.186   1.017   8.334  0.2426  0.0973  0.3886
   98SAPS  C219 9819   1.125   0.951   8.521  0.5178  0.0058  0.0691
   98SAPS  H19R 9820   1.194   0.867   8.545  0.0394 -0.5279 -0.3903
   98SAPS  H19S 9821   1.027   0.931   8.570  0.7033  0.0745  0.4681
   98SAPS  C220 9822   1.171   1.083   8.585 -0.3063 -0.5337  0.3705
   98SAPS  H20R 9823   1.090   1.157   8.566 -0.3555 -0.7324 -0.2009
   98SAPS  H20S 9824   1.266   1.115   8.537 -0.8980 -1.6930 -1.6675
   98SAPS  H20T 9825   1.181   1.071   8.695  1.8917  1.9309  0.5579
   98SAPS   C33 9826   1.202   1.307   6.811  0.1416 -0.3346  0.3776
   98SAPS   H3X 9827   1.269   1.293   6.898 -1.6617 -1.3206  1.6719
   98SAPS   H3Y 9828   1.118   1.239   6.835  1.5150 -1.4184  2.3773
   98SAPS   C34 9829   1.144   1.444   6.827  0.5915  0.1320  0.2569
   98SAPS   H4X 9830   1.103   1.469   6.726 -2.8226  0.3100  1.5395
   98SAPS   H4Y 9831   1.232   1.510   6.841 -1.2012  2.7270  0.0254
   98SAPS   C35 9832   1.029   1.466   6.935 -0.6693  0.0334  0.2154
   98SAPS   H5X 9833   0.945   1.401   6.904 -1.4232  2.1727 -2.6994
   98SAPS   H5Y 9834   0.983   1.567   6.927  0.6362  1.2631  4.9371
   98SAPS   C36 9835   1.070   1.443   7.084  0.3828  0.0107 -0.2541
   98SAPS   H6X 9836   1.087   1.337   7.111  1.8036  0.9016  2.7658
   98SAPS   H6Y 9837   0.991   1.480   7.153  0.9276  0.4280  0.1573
   98SAPS   C37 9838   1.194   1.531   7.116 -0.3191  0.5956  1.0161
   98SAPS   H7X 9839   1.199   1.620   7.051 -0.9157 -0.3058 -0.2931
   98SAPS   H7Y 9840   1.280   1.462   7.103 -0.9264 -0.3812  1.9999
   98SAPS   C38 9841   1.196   1.578   7.260 -0.4854 -0.2580 -0.0796
   98SAPS   H8X 9842   1.124   1.663   7.258 -0.3889 -0.1887 -0.9614
   98SAPS   H8Y 9843   1.298   1.622   7.275 -1.3549  1.3630  1.5582
   98SAPS   C39 9844   1.173   1.468   7.363  0.2941  0.3401 -0.3235
   98SAPS   H9X 9845   1.233   1.377   7.340 -3.5595 -3.0210  1.6797
   98SAPS   H9Y 9846   1.067   1.433   7.356  0.0598  1.3812 -3.0969
   98SAPS  C310 9847   1.195   1.515   7.511 -0.2451 -0.5181 -0.1671
   98SAPS  H10X 9848   1.101   1.552   7.558  0.9806 -0.2738  2.2246
   98SAPS  H10Y 9849   1.260   1.604   7.516 -0.3168 -0.5519  2.2678
   98SAPS  C311 9850   1.242   1.398   7.599  0.6903  0.1512 -0.0619
   98SAPS  H11X 9851   1.339   1.374   7.552  1.5507  2.4290  0.4168
   98SAPS  H11Y 9852   1.180   1.308   7.578  0.5368 -0.2404  1.8411
   98SAPS  C312 9853   1.257   1.431   7.751 -0.5502 -0.2715  0.2763
   98SAPS  H12X 9854   1.156   1.456   7.791 -0.6184 -1.8523  1.1809
   98SAPS  H12Y 9855   1.329   1.513   7.765 -3.0042  1.9155  0.8668
   98SAPS  C313 9856   1.307   1.304   7.827  0.5327  0.1221  0.0394
   98SAPS  H13X 9857   1.392   1.264   7.767 -0.3166 -3.3629  0.9062
   98SAPS  H13Y 9858   1.225   1.229   7.822  1.3789 -0.7342 -2.3424
   98SAPS  C314 9859   1.330   1.321   7.979 -0.0775 -0.0554 -0.1273
   98SAPS  H14X 9860   1.413   1.393   7.997  1.6496 -1.8924 -0.3076
   98SAPS  H14Y 9861   1.369   1.228   8.025 -0.8162  0.4356  1.5995
   98SAPS  C315 9862   1.201   1.357   8.047 -0.3501 -0.4701  0.1921
   98SAPS  H15X 9863   1.123   1.295   7.997  1.0919 -0.0101 -2.8528
   98SAPS  H15Y 9864   1.173   1.463   8.028  1.2180 -0.0125  0.2396
   98SAPS  C316 9865   1.200   1.327   8.197  0.0146  0.7136 -0.2546
   98SAPS  H16X 9866   1.254   1.232   8.217  0.0974  0.2760 -2.3852
   98SAPS  H16Y 9867   1.098   1.325   8.241 -0.5525  0.6002 -1.5401
   98SAPS  C317 9868   1.278   1.434   8.275 -0.5865 -0.5686 -0.1101
   98SAPS  H17X 9869   1.263   1.527   8.215 -3.2418 -0.6903  0.2250
   98SAPS  H17Y 9870   1.386   1.411   8.271 -0.6063 -0.5563 -1.1373
   98SAPS  C318 9871   1.243   1.463   8.423 -0.3137 -0.8992  0.1737
   98SAPS  H18X 9872   1.133   1.471   8.441 -0.4079  1.7454 -1.0799
   98SAPS  H18Y 9873   1.291   1.555   8.463 -1.6243  0.7138 -1.7309
   98SAPS  H18Z 9874   1.290   1.378   8.476 -1.1296 -2.4792 -1.5329
   99SAPS     N 9875   6.725   6.796   5.895 -0.2223 -0.3669 -0.1929
   99SAPS   HN1 9876   6.816   6.835   5.927 -1.2872  1.8546  0.3632
   99SAPS   HN2 9877   6.737   6.804   5.792 -1.6804  1.6070 -0.2740
   99SAPS   HN3 9878   6.651   6.855   5.940  0.9639 -0.1866  1.6465
   99SAPS   C12 9879   6.713   6.653   5.938  0.6856 -0.4904 -0.9653
   99SAPS  H12A 9880   6.617   6.621   5.901 -0.8366  1.4184  1.0246
   99SAPS   C13 9881   6.825   6.564   5.887 -0.0421 -0.1067 -0.3369
   99SAPS  O13A 9882   6.940   6.614   5.869 -0.1982  0.3029  0.6552
   99SAPS  O13B 9883   6.809   6.437   5.890  0.3155 -0.4294 -0.2844
   99SAPS   C11 9884   6.706   6.637   6.100 -0.4271  0.2230  0.3020
   99SAPS  H11A 9885   6.793   6.688   6.146 -0.9668 -0.1026  1.7616
   99SAPS  H11B 9886   6.708   6.532   6.137  0.7466 -0.9967 -2.8993
   99SAPS     P 9887   6.456   6.608   6.159  0.0464 -0.0390 -0.0485
   99SAPS   O13 9888   6.347   6.693   6.206  0.4143 -0.4436 -0.0752
   99SAPS   O14 9889   6.442   6.546   6.026 -0.0731  0.0423 -0.3790
   99SAPS   O12 9890   6.586   6.700   6.154 -0.1132  0.6163  0.6026
   99SAPS   O11 9891   6.503   6.497   6.264  0.3612 -0.8552  0.1989
   99SAPS    C1 9892   6.488   6.513   6.406  0.0732  0.1374 -0.4256
   99SAPS    HA 9893   6.383   6.543   6.427 -0.3884 -1.7661  0.2111
   99SAPS    HB 9894   6.520   6.425   6.467 -0.8383 -0.3241 -0.5938
   99SAPS    C2 9895   6.588   6.620   6.460  0.2059 -0.5907  0.0449
   99SAPS    HS 9896   6.558   6.716   6.414 -2.0674 -1.3886 -0.2446
   99SAPS   O21 9897   6.717   6.585   6.424  0.0896  0.2016 -0.2080
   99SAPS   C21 9898   6.807   6.672   6.447 -0.6636  0.9994  0.6761
   99SAPS   O22 9899   6.798   6.782   6.500 -0.0078  0.1332 -0.0437
   99SAPS   C22 9900   6.937   6.618   6.383 -0.2547  0.6118 -0.3305
   99SAPS   H2R 9901   6.920   6.524   6.325  0.3038 -0.3598  1.0232
   99SAPS   H2S 9902   6.972   6.684   6.302  0.6853 -1.2066 -1.4658
   99SAPS    C3 9903   6.570   6.634   6.613  0.2183 -0.7213  0.3108
   99SAPS    HX 9904   6.623   6.728   6.639 -2.5866  0.8859  0.5617
   99SAPS    HY 9905   6.632   6.557   6.664  0.8131  0.5302  1.5455
   99SAPS   O31 9906   6.429   6.645   6.659 -0.1482 -0.0069  0.8401
   99SAPS   C31 9907   6.365   6.756   6.627 -0.2750  0.2778  0.7983
   99SAPS   O32 9908   6.413   6.858   6.576 -0.3517 -0.4860 -0.1192
   99SAPS   C32 9909   6.218   6.744   6.664 -0.3936 -0.8148 -0.5265
   99SAPS   H2X 9910   6.201   6.681   6.753 -1.5612  0.4982  0.2263
   99SAPS   H2Y 9911   6.171   6.699   6.574 -0.8114 -1.7097  0.1301
   99SAPS   C23 9912   7.043   6.607   6.491  0.8182  1.0498 -0.8042
   99SAPS   H3R 9913   7.059   6.699   6.550  2.4761 -0.3285  1.0425
   99SAPS   H3S 9914   7.130   6.581   6.427 -0.0523 -3.0578 -0.6019
   99SAPS   C24 9915   7.014   6.493   6.588 -0.0943  0.5353 -0.5402
   99SAPS   H4R 9916   6.986   6.408   6.522  0.9220 -0.1992 -0.0548
   99SAPS   H4S 9917   6.926   6.527   6.647  0.5535 -3.1298  2.9997
   99SAPS   C25 9918   7.143   6.479   6.658  0.4401 -0.2537  0.6967
   99SAPS   H5R 9919   7.233   6.455   6.601  0.2301  0.1370  0.1915
   99SAPS   C26 9920   7.153   6.525   6.790 -0.1118  0.4227 -0.1886
   99SAPS   H6R 9921   7.251   6.536   6.840  0.9976  6.7540 -2.7947
   99SAPS   C27 9922   7.048   6.560   6.893  0.2175  0.1647 -0.2145
   99SAPS   H7R 9923   6.964   6.613   6.843  0.3215  0.0141 -0.5466
   99SAPS   H7S 9924   7.083   6.619   6.981  1.9014 -2.5829  1.0947
   99SAPS   C28 9925   6.995   6.433   6.953  0.0495 -0.4832  0.1337
   99SAPS   H8R 9926   7.070   6.353   6.962  0.5034 -0.4252 -2.3696
   99SAPS   C29 9927   6.861   6.406   6.975 -0.6432 -0.1103 -0.3410
   99SAPS   H9R 9928   6.831   6.303   6.997 -0.7859  0.0235  0.1135
   99SAPS  C210 9929   6.744   6.506   6.961 -0.1765 -1.0030 -0.0721
   99SAPS  H10R 9930   6.753   6.558   6.864  0.2029 -0.4859  0.2359
   99SAPS  H10S 9931   6.760   6.567   7.053 -0.2201 -2.0848  0.6800
   99SAPS  C211 9932   6.599   6.460   6.955 -0.2638 -0.0237  0.2698
   99SAPS  H11R 9933   6.581   6.373   6.891  0.8822 -0.0130 -0.0838
   99SAPS  C212 9934   6.496   6.512   7.026  0.2998  0.4012 -0.0925
   99SAPS  H12R 9935   6.395   6.482   6.994 -0.9297  2.1077  1.8866
   99SAPS  C213 9936   6.507   6.625   7.120  0.1597 -0.3887 -0.1633
   99SAPS  H13R 9937   6.558   6.706   7.064  0.5047  1.8186  3.0642
   99SAPS  H13S 9938   6.589   6.604   7.192  1.7225 -0.0858 -1.7841
   99SAPS  C214 9939   6.374   6.672   7.183  0.1154 -0.6083 -0.0677
   99SAPS  H14R 9940   6.317   6.749   7.130 -1.1661 -0.5114  1.3686
   99SAPS  C215 9941   6.317   6.643   7.299 -0.7953  0.6334 -0.2303
   99SAPS  H15R 9942   6.223   6.694   7.327 -0.5490  1.7203 -1.3113
   99SAPS  C216 9943   6.371   6.540   7.400  0.5625  0.6156 -0.3378
   99SAPS  H16R 9944   6.463   6.486   7.369  1.2508  1.5838 -0.0151
   99SAPS  H16S 9945   6.292   6.463   7.414 -0.8268  2.1758  0.8507
   99SAPS  C217 9946   6.367   6.610   7.542 -0.6946 -0.1011 -0.2369
   99SAPS  H17R 9947   6.264   6.645   7.567 -0.2005 -0.3424  2.4856
   99SAPS  H17S 9948   6.435   6.697   7.539 -2.2337  1.1488 -0.5269
   99SAPS  C218 9949   6.415   6.518   7.660 -0.0013  0.1328  0.0514
   99SAPS  H18R 9950   6.499   6.459   7.616  0.4184  0.9777 -0.3045
   99SAPS  H18S 9951   6.342   6.438   7.683  1.5641 -1.0145  1.2456
   99SAPS  C219 9952   6.436   6.586   7.797  0.3690  0.8516  0.0259
   99SAPS  H19R 9953   6.487   6.507   7.855 -0.0766  0.8134  0.3694
   99SAPS  H19S 9954   6.329   6.592   7.829  0.7895 -0.5204  1.8510
   99SAPS  C220 9955   6.503   6.726   7.798 -0.9129 -0.4952 -0.3175
   99SAPS  H20R 9956   6.431   6.795   7.749  0.4347  0.0840 -1.5321
   99SAPS  H20S 9957   6.594   6.740   7.736  0.1954 -1.0420  1.1201
   99SAPS  H20T 9958   6.527   6.771   7.897 -1.6487  0.4278 -0.5416
   99SAPS   C33 9959   6.161   6.894   6.679 -0.2352 -0.2017 -0.4884
   99SAPS   H3X 9960   6.173   6.925   6.573  0.4973 -2.6322 -1.1960
   99SAPS   H3Y 9961   6.235   6.941   6.747  1.6850  1.1274 -3.3363
   99SAPS   C34 9962   6.015   6.908   6.711  0.3725 -0.3713  0.0898
   99SAPS   H4X 9963   5.950   6.834   6.660 -2.7601  1.5573  0.9648
   99SAPS   H4Y 9964   5.976   7.006   6.674  0.6078 -0.9091 -1.6751
   99SAPS   C35 9965   5.995   6.899   6.866 -0.0583 -0.5821  1.5300
   99SAPS   H5X 9966   6.063   6.982   6.894 -0.6488  1.2457 -1.8828
   99SAPS   H5Y 9967   6.041   6.805   6.904  3.2821 -0.0077 -0.6484
   99SAPS   C36 9968   5.859   6.947   6.922  0.1528 -0.1740  0.3279
   99SAPS   H6X 9969   5.771   6.918   6.862 -0.5796 -0.1060  1.3554
   99SAPS   H6Y 9970   5.865   7.058   6.925 -0.1529 -0.1752  2.1890
   99SAPS   C37 9971   5.835   6.888   7.067  0.6589  0.0467  0.3455
   99SAPS   H7X 9972   5.919   6.920   7.133 -1.6704  4.9013  1.4205
   99SAPS   H7Y 9973   5.829   6.777   7.056  0.6336  0.1808 -1.1163
   99SAPS   C38 9974   5.709   6.945   7.128  0.3192 -0.0686 -0.7499
   99SAPS   H8X 9975   5.626   6.907   7.065 -0.5718 -1.9720  1.4304
   99SAPS   H8Y 9976   5.716   7.056   7.127  0.1342 -0.0056  1.3645
   99SAPS   C39 9977   5.687   6.903   7.272 -0.4093 -0.6005 -0.1960
   99SAPS   H9X 9978   5.771   6.942   7.335 -0.8464 -1.5178  0.9835
   99SAPS   H9Y 9979   5.686   6.793   7.284 -0.9429 -0.6945 -1.0941
   99SAPS  C310 9980   5.554   6.955   7.336  0.2029  0.1783 -0.1951
   99SAPS  H10X 9981   5.469   6.895   7.298  0.6868  0.4274 -1.7418
   99SAPS  H10Y 9982   5.543   7.060   7.301 -1.0880  0.5549  1.2477
   99SAPS  C311 9983   5.564   6.954   7.489 -0.3596  1.0204  0.0154
   99SAPS  H11X 9984   5.652   7.018   7.514  1.0750  0.1469 -2.4316
   99SAPS  H11Y 9985   5.595   6.851   7.518 -0.9718  0.5495 -0.9501
   99SAPS  C312 9986   5.430   6.990   7.562 -1.6652  0.5198  0.8653
   99SAPS  H12X 9987   5.355   6.909   7.547  0.9265 -1.7008 -0.9730
   99SAPS  H12Y 9988   5.400   7.081   7.506 -2.9460  0.1382  0.8952
   99SAPS  C313 9989   5.434   7.024   7.717 -0.3271  0.1223 -0.4936
   99SAPS  H13X 9990   5.528   7.083   7.721  0.3587 -0.9303 -0.6960
   99SAPS  H13Y 9991   5.452   6.928   7.772  2.4195  0.5930 -0.4330
   99SAPS  C314 9992   5.315   7.108   7.773 -0.1067  0.1664  0.2529
   99SAPS  H14X 9993   5.300   7.192   7.702 -2.5515  1.2836  1.9662
   99SAPS  H14Y 9994   5.345   7.159   7.867  1.3782  0.8326 -0.5314
   99SAPS  C315 9995   5.190   7.025   7.811 -0.2865 -0.2535 -0.1349
   99SAPS  H15X 9996   5.230   6.923   7.830  2.7139  0.4937 -1.7955
   99SAPS  H15Y 9997   5.142   7.019   7.712  1.8279  0.9042 -1.3090
   99SAPS  C316 9998   5.089   7.077   7.916  0.7780  0.6772 -0.0323
   99SAPS  H16X 9999   5.047   7.172   7.876 -1.2394  0.0785  0.5887
   99SAPS  H16Y10000   5.144   7.107   8.009 -0.4798  1.1382  0.5789
   99SAPS  C31710001   4.980   6.973   7.940 -0.6517  0.1770 -0.0799
   99SAPS  H17X10002   5.037   6.881   7.966 -1.6668  0.5711  4.4387
   99SAPS  H17Y10003   4.927   6.965   7.844  2.8890  0.0267 -2.2139
   99SAPS  C31810004   4.883   7.009   8.049 -0.3221 -0.3171 -0.1432
   99SAPS  H18X10005   4.924   6.990   8.150 -1.8509  2.4546  1.1230
   99SAPS  H18Y10006   4.791   6.954   8.020 -0.4924 -0.1982  0.1685
   99SAPS  H18Z10007   4.867   7.119   8.047  1.2874 -0.0456  0.7660
  100SAPS     N10008   4.438   2.034   6.280 -0.6223 -0.5750  0.4671
  100SAPS   HN110009   4.362   1.968   6.303  0.2827 -1.1984  1.8105
  100SAPS   HN210010   4.523   2.008   6.335 -1.0272 -0.3953  1.1898
  100SAPS   HN310011   4.429   2.132   6.314 -1.1750  0.4650 -2.3755
  100SAPS   C1210012   4.480   2.042   6.136 -0.0289  0.3935  0.2585
  100SAPS  H12A10013   4.392   2.031   6.074 -1.0162 -1.2467  1.8258
  100SAPS   C1310014   4.543   2.176   6.111 -0.2348  0.5054  0.4559
  100SAPS  O13A10015   4.589   2.242   6.209 -0.0955 -0.1158 -0.0002
  100SAPS  O13B10016   4.533   2.222   5.992  0.1358 -0.4474  0.0507
  100SAPS   C1110017   4.586   1.932   6.096  0.4551 -0.5173  0.6046
  100SAPS  H11A10018   4.676   1.972   6.149  0.8013  1.2928 -1.2396
  100SAPS  H11B10019   4.599   1.923   5.986  0.8528 -3.3572  0.7905
  100SAPS     P10020   4.622   1.675   6.101  0.3274 -0.3610 -0.1796
  100SAPS   O1310021   4.582   1.636   5.966 -0.3401 -0.0610 -0.2337
  100SAPS   O1410022   4.768   1.689   6.129 -0.2529 -0.5084 -0.2646
  100SAPS   O1210023   4.552   1.806   6.147  0.1911 -0.2405  0.2445
  100SAPS   O1110024   4.562   1.567   6.193  0.0069 -0.0981 -0.7881
  100SAPS    C110025   4.506   1.590   6.322  0.7152 -0.2984  0.1069
  100SAPS    HA10026   4.422   1.661   6.305  0.2234 -1.0370 -0.6224
  100SAPS    HB10027   4.473   1.489   6.352  0.6265 -0.3982 -0.3210
  100SAPS    C210028   4.602   1.642   6.432  0.0553 -0.4126 -0.4493
  100SAPS    HS10029   4.620   1.745   6.394  0.5414 -0.7525 -1.1524
  100SAPS   O2110030   4.725   1.561   6.450 -0.3030 -0.1389  0.6068
  100SAPS   C2110031   4.809   1.615   6.528  0.3538  0.4382 -0.3661
  100SAPS   O2210032   4.800   1.731   6.577  0.2365  0.5615  0.0090
  100SAPS   C2210033   4.920   1.526   6.562  0.0188 -0.4963 -0.3908
  100SAPS   H2R10034   4.893   1.463   6.649  0.4932  0.5525  0.5556
  100SAPS   H2S10035   4.941   1.467   6.470  0.0555  2.8590 -2.7451
  100SAPS    C310036   4.516   1.647   6.555 -0.3605  0.0599 -0.0048
  100SAPS    HX10037   4.431   1.716   6.537  0.6496  1.4201  0.2304
  100SAPS    HY10038   4.577   1.676   6.644  0.8981 -0.9846 -0.4913
  100SAPS   O3110039   4.456   1.515   6.582 -0.0280 -0.4390 -0.1928
  100SAPS   C3110040   4.531   1.429   6.658  0.3627  0.2283  0.6272
  100SAPS   O3210041   4.639   1.450   6.700 -0.4286  0.3081 -0.4850
  100SAPS   C3210042   4.458   1.292   6.666 -0.1400  0.5419  0.1342
  100SAPS   H2X10043   4.459   1.256   6.561 -0.9506  0.1591  0.2543
  100SAPS   H2Y10044   4.350   1.304   6.688 -0.6704 -0.4882 -1.7586
  100SAPS   C2310045   5.054   1.603   6.599  0.6285 -0.1437  0.2755
  100SAPS   H3R10046   5.039   1.679   6.679  0.8392  2.2768 -1.8573
  100SAPS   H3S10047   5.081   1.660   6.508 -2.1751  0.8691 -0.0117
  100SAPS   C2410048   5.165   1.511   6.649 -0.4961  0.1857 -0.0986
  100SAPS   H4R10049   5.181   1.431   6.574 -1.1725 -1.0847  1.0611
  100SAPS   H4S10050   5.130   1.471   6.747 -2.0936  0.9080 -0.3326
  100SAPS   C2510051   5.304   1.578   6.665  0.3223 -0.4326 -0.3485
  100SAPS   H5R10052   5.371   1.582   6.578  1.0117  1.0150  0.2087
  100SAPS   C2610053   5.362   1.604   6.785 -0.3632  0.3184  0.2481
  100SAPS   H6R10054   5.462   1.650   6.783  0.0027 -0.4156 -2.0670
  100SAPS   C2710055   5.302   1.581   6.919  0.9832 -0.0164  0.5239
  100SAPS   H7R10056   5.308   1.472   6.939 -0.4397  0.0404  1.4015
  100SAPS   H7S10057   5.195   1.608   6.905  0.5632  1.0349  4.4908
  100SAPS   C2810058   5.358   1.657   7.030  0.3155 -0.1296 -0.5568
  100SAPS   H8R10059   5.412   1.746   6.995 -2.8550  1.3736 -2.0699
  100SAPS   C2910060   5.336   1.646   7.163  0.2563 -0.5568  0.6400
  100SAPS   H9R10061   5.383   1.707   7.242  0.9174  2.9997 -2.2520
  100SAPS  C21010062   5.244   1.539   7.217 -0.4094  0.5429 -0.2200
  100SAPS  H10R10063   5.292   1.507   7.312 -0.1551  4.0206  0.9718
  100SAPS  H10S10064   5.227   1.445   7.160  0.8586  0.3372 -0.2934
  100SAPS  C21110065   5.119   1.597   7.256  1.2126  0.2068 -0.5972
  100SAPS  H11R10066   5.031   1.586   7.191  0.9175 -0.1647 -0.1422
  100SAPS  C21210067   5.088   1.647   7.382 -0.2738  0.6526 -0.6603
  100SAPS  H12R10068   4.997   1.708   7.396  0.0510  0.8170  0.9029
  100SAPS  C21310069   5.175   1.648   7.501 -0.4181  0.2087  0.2266
  100SAPS  H13R10070   5.229   1.745   7.505  1.1963 -0.6391 -0.1927
  100SAPS  H13S10071   5.257   1.577   7.479 -0.1604  1.1323 -2.1284
  100SAPS  C21410072   5.107   1.612   7.635 -0.3846 -0.1008 -0.5521
  100SAPS  H14R10073   5.009   1.561   7.629 -1.1855  1.2344  0.4331
  100SAPS  C21510074   5.166   1.628   7.755 -0.5255 -0.4438  0.4397
  100SAPS  H15R10075   5.121   1.599   7.851 -0.9587 -1.2239  0.0138
  100SAPS  C21610076   5.305   1.684   7.780 -0.2655  0.4293  0.1570
  100SAPS  H16R10077   5.345   1.714   7.681  0.5401 -1.0362  0.0156
  100SAPS  H16S10078   5.373   1.604   7.817 -0.0226  0.1374 -0.8972
  100SAPS  C21710079   5.329   1.797   7.883 -0.0200  0.4180  0.2458
  100SAPS  H17R10080   5.435   1.798   7.916 -0.0143 -1.1946  0.3657
  100SAPS  H17S10081   5.250   1.792   7.960  0.2189 -0.6155  0.4392
  100SAPS  C21810082   5.314   1.932   7.813  0.1032 -0.9427  0.2134
  100SAPS  H18R10083   5.275   2.015   7.876  1.0135  1.4940 -2.2274
  100SAPS  H18S10084   5.234   1.925   7.736  0.0664  0.1177  0.1408
  100SAPS  C21910085   5.448   1.986   7.751 -0.1698 -0.2017 -0.9621
  100SAPS  H19R10086   5.476   1.916   7.670  1.0899  0.1680 -0.8594
  100SAPS  H19S10087   5.521   1.982   7.834 -1.4137 -1.1102  0.1369
  100SAPS  C22010088   5.440   2.132   7.703  0.1725 -0.3950  0.6918
  100SAPS  H20R10089   5.342   2.147   7.652 -0.3084  0.9735  1.9264
  100SAPS  H20S10090   5.521   2.163   7.635  1.5013  1.8535  3.1094
  100SAPS  H20T10091   5.448   2.203   7.788  2.3586  0.6088 -0.2815
  100SAPS   C3310092   4.515   1.196   6.766  0.7920  0.4724 -0.1529
  100SAPS   H3X10093   4.623   1.172   6.778  0.5218 -1.7815 -1.5055
  100SAPS   H3Y10094   4.471   1.097   6.741  1.0477 -0.4995  2.7857
  100SAPS   C3410095   4.457   1.228   6.902  0.3045  0.1101 -0.2897
  100SAPS   H4X10096   4.346   1.232   6.907  0.0962 -3.3902  1.6286
  100SAPS   H4Y10097   4.493   1.329   6.932  1.7971 -0.1853 -1.0340
  100SAPS   C3510098   4.483   1.110   7.002 -0.4668 -0.4734 -0.0986
  100SAPS   H5X10099   4.590   1.093   7.027 -0.8818 -1.6511  0.9530
  100SAPS   H5Y10100   4.445   1.015   6.959  0.8600 -0.5553 -1.1811
  100SAPS   C3610101   4.400   1.124   7.132 -0.3226 -0.2907  0.0708
  100SAPS   H6X10102   4.292   1.116   7.106  0.3142 -1.4367 -2.5556
  100SAPS   H6Y10103   4.416   1.215   7.193 -0.8066 -1.3214  1.7945
  100SAPS   C3710104   4.434   1.010   7.230  0.0786  0.7027  1.4503
  100SAPS   H7X10105   4.523   1.037   7.290  1.0892 -1.8082  1.2062
  100SAPS   H7Y10106   4.468   0.915   7.183 -0.7301  1.3888 -0.6335
  100SAPS   C3810107   4.319   0.984   7.332 -0.3191 -0.7006 -0.3240
  100SAPS   H8X10108   4.224   0.951   7.284 -1.6367 -2.0945  2.9407
  100SAPS   H8Y10109   4.289   1.084   7.369  1.2996 -0.6151  0.8302
  100SAPS   C3910110   4.334   0.898   7.457  0.6210  0.0847 -0.1284
  100SAPS   H9X10111   4.357   0.798   7.412  0.2222  0.1686 -0.5268
  100SAPS   H9Y10112   4.235   0.893   7.506 -0.2892  4.3620 -1.1066
  100SAPS  C31010113   4.437   0.953   7.546 -0.0165 -0.0888  0.7753
  100SAPS  H10X10114   4.401   1.052   7.581 -2.6202 -1.0905  1.1666
  100SAPS  H10Y10115   4.534   0.963   7.493 -0.0095 -0.8843  0.6157
  100SAPS  C31110116   4.460   0.866   7.668 -0.8686  0.2136 -0.0445
  100SAPS  H11X10117   4.498   0.769   7.629 -0.9910  0.7505 -1.5455
  100SAPS  H11Y10118   4.359   0.849   7.709 -1.3061 -1.4902 -1.6691
  100SAPS  C31210119   4.554   0.928   7.770 -0.3107  0.2117  0.3942
  100SAPS  H12X10120   4.521   1.026   7.811  0.2067  0.5749 -0.0473
  100SAPS  H12Y10121   4.651   0.950   7.719  0.7145 -0.1800  2.1009
  100SAPS  C31310122   4.569   0.853   7.901 -0.1236 -0.7189  0.6164
  100SAPS  H13X10123   4.481   0.791   7.925 -0.2524  0.3094  3.1237
  100SAPS  H13Y10124   4.574   0.927   7.984 -2.3396  1.4402 -1.0280
  100SAPS  C31410125   4.704   0.780   7.907 -0.3773  0.1244  0.0617
  100SAPS  H14X10126   4.791   0.848   7.909 -1.0557  1.1489 -2.0893
  100SAPS  H14Y10127   4.715   0.713   7.819 -1.7142 -2.1839  1.5352
  100SAPS  C31510128   4.720   0.700   8.032 -0.0487  0.6151 -0.9446
  100SAPS  H15X10129   4.658   0.610   8.012 -0.3712  0.8926 -1.2090
  100SAPS  H15Y10130   4.676   0.765   8.111 -0.2859  0.6406 -1.0976
  100SAPS  C31610131   4.862   0.668   8.060 -0.2254 -0.4676 -0.4176
  100SAPS  H16X10132   4.916   0.764   8.050  1.0056 -1.2187 -1.2943
  100SAPS  H16Y10133   4.903   0.597   7.984 -0.1638 -1.0735  0.1706
  100SAPS  C31710134   4.890   0.603   8.189 -0.4441 -0.1046  0.1656
  100SAPS  H17X10135   4.838   0.505   8.190  0.3826 -0.5887 -1.2656
  100SAPS  H17Y10136   4.841   0.664   8.268  1.0620 -0.8632  1.7776
  100SAPS  C31810137   5.034   0.579   8.224 -0.2441 -0.6199 -0.0695
  100SAPS  H18X10138   5.086   0.523   8.144  1.5669 -0.5124  0.9876
  100SAPS  H18Y10139   5.044   0.509   8.310 -0.8518 -0.3719  0.2117
  100SAPS  H18Z10140   5.092   0.663   8.267  0.8858 -2.0369  1.3087
  101OSM      N10141   2.196   0.222  10.799 -0.2499  0.2512  0.9591
  101OSM    C1510142   2.169   0.081  10.756 -0.2071 -0.8338 -0.2897
  101OSM   H15A10143   2.243   0.008  10.787  0.4102 -0.0611  0.0759
  101OSM   H15B10144   2.155   0.073  10.649  0.4578  0.0552 -0.4517
  101OSM   H15C10145   2.082   0.044  10.809 -0.8343  3.6993  2.3128
  101OSM    C1410146   2.069   0.301  10.807  0.4904 -0.8008  0.5856
  101OSM   H14A10147   2.024   0.306  10.709  3.1625  3.0533 -0.7172
  101OSM   H14B10148   2.091   0.406  10.823  4.4674 -1.1009 -1.4303
  101OSM   H14C10149   1.995   0.271  10.878 -1.5907  0.0280 -1.1240
  101OSM    C1310150   2.253   0.201  10.935  0.0887 -0.3468  1.0412
  101OSM   H13A10151   2.341   0.139  10.936  0.8327  0.6779  0.5459
  101OSM   H13B10152   2.173   0.146  10.984  1.3548 -1.6613  1.7198
  101OSM   H13C10153   2.274   0.289  10.994  0.2146 -0.0373  0.5338
  101OSM    C1210154   2.299   0.278  10.695  1.1261 -0.5052 -0.0088
  101OSM   H12A10155   2.393   0.225  10.701  2.2414  1.0243 -2.4972
  101OSM   H12B10156   2.327   0.379  10.721 -0.5961 -0.2333  0.9769
  101OSM    C1110157   2.257   0.278  10.540 -0.2312  0.0472  0.6511
  101OSM   H11A10158   2.261   0.175  10.499 -4.3679 -0.0602  0.0743
  101OSM   H11B10159   2.337   0.341  10.496 -0.7427  0.9864  1.0486
  101OSM      P10160   2.102   0.476  10.511 -0.2301 -0.3587  0.2622
  101OSM    O1310161   1.962   0.498  10.473  0.6999  0.3359 -0.1906
  101OSM    O1410162   2.139   0.544  10.637 -0.3040 -0.2854  0.4124
  101OSM    O1110163   2.199   0.525  10.396  0.1182 -0.6766 -0.2282
  101OSM    O1210164   2.125   0.322  10.519  0.3675  0.1357  0.1058
  101OSM    C1S10165   2.256   0.664  10.408 -0.1028  0.7181 -0.6236
  101OSM    H1S10166   2.346   0.642  10.470 -2.1317 -0.9498  1.9349
  101OSM    H1T10167   2.182   0.737  10.445  0.8603  1.9963 -1.1447
  101OSM     NF10168   2.353   0.852  10.281 -0.6893  0.1409 -0.5246
  101OSM    HNF10169   2.294   0.930  10.259 -0.0570  1.3818  1.8307
  101OSM    C2S10170   2.297   0.716  10.263  0.8546 -0.6506 -0.6215
  101OSM    H2S10171   2.379   0.654  10.222  1.3346  0.7451 -1.8364
  101OSM    C3S10172   2.174   0.714  10.164 -0.1400 -0.3394 -0.7850
  101OSM    H3S10173   2.108   0.803  10.177  2.1085  1.1618  1.2589
  101OSM     O310174   2.082   0.610  10.177  0.0390  0.2544 -0.6627
  101OSM    HO310175   2.104   0.572  10.262  1.4229 -0.9652 -1.5079
  101OSM    C4S10176   2.225   0.714  10.027  0.5173  0.3829 -0.5476
  101OSM    H4S10177   2.277   0.623   9.994 -2.1260 -1.4354  0.0288
  101OSM    C5S10178   2.211   0.823   9.937 -0.0525  0.5576  0.2268
  101OSM    H5S10179   2.158   0.915   9.965  2.4398  2.2246 -0.1872
  101OSM    C6S10180   2.247   0.826   9.788 -0.2472 -0.6523 -0.1003
  101OSM    H6S10181   2.305   0.734   9.764  2.0398  0.4120  1.0668
  101OSM    H6T10182   2.309   0.916   9.771 -1.3791  0.4621  1.4799
  101OSM    C7S10183   2.124   0.833   9.703  0.2122 -0.6041  0.8664
  101OSM    H7S10184   2.073   0.929   9.722  1.8616  0.0063  2.6088
  101OSM    H7T10185   2.058   0.746   9.725  0.7681 -1.4787 -0.7274
  101OSM    C8S10186   2.161   0.826   9.549 -0.2267  0.3803 -0.5844
  101OSM    H8S10187   2.204   0.727   9.521 -0.3347  0.7980 -2.3394
  101OSM    H8T10188   2.236   0.908   9.544  0.4167 -0.1272  0.4987
  101OSM    C9S10189   2.053   0.884   9.459 -0.4844  0.0540  0.4404
  101OSM    H9S10190   2.008   0.971   9.511 -1.0683 -0.8632  1.5055
  101OSM    H9T10191   1.970   0.812   9.443  1.8168 -2.5745 -0.5116
  101OSM   C10S10192   2.112   0.934   9.327 -0.0052 -0.7703 -0.7005
  101OSM   H10S10193   2.179   0.849   9.302  3.2889  0.0598  4.0637
  101OSM   H10T10194   2.188   1.010   9.355  0.1735 -1.8588  2.0109
  101OSM   C11S10195   2.019   0.995   9.219 -0.0495 -1.0262 -0.2743
  101OSM   H11S10196   2.004   1.101   9.249 -0.1292 -1.3929  1.0847
  101OSM   H11T10197   1.920   0.945   9.233 -0.5329  0.3168  1.5436
  101OSM   C12S10198   2.081   0.979   9.083 -0.1152 -0.0982 -0.3100
  101OSM   H12S10199   2.081   0.878   9.039  2.0473  0.2244 -1.2050
  101OSM   H12T10200   2.191   0.994   9.083  0.0107  0.3651  4.4403
  101OSM   C13S10201   2.017   1.071   8.975  0.0962  0.4594 -0.3123
  101OSM   H13S10202   2.070   1.039   8.883  0.8780  0.4439  0.1382
  101OSM   H13T10203   2.041   1.176   8.999  0.7697  0.0417  0.9712
  101OSM   C14S10204   1.863   1.046   8.967 -0.4263 -0.2286 -0.4919
  101OSM   H14S10205   1.820   1.073   9.066  1.8675  1.2733  0.1930
  101OSM   H14T10206   1.846   0.942   8.931  0.6647  0.0479 -1.9087
  101OSM   C15S10207   1.797   1.140   8.869  0.0320 -0.1715  0.0318
  101OSM   H15S10208   1.844   1.122   8.770 -1.8749  0.2309 -0.9978
  101OSM   H15T10209   1.827   1.245   8.890  0.4520 -0.4308  0.7955
  101OSM   C16S10210   1.646   1.133   8.863  0.8920 -0.2642  0.2090
  101OSM   H16S10211   1.613   1.156   8.966 -0.1842 -0.0555 -0.1622
  101OSM   H16T10212   1.622   1.029   8.833 -0.9760  0.1506  0.1306
  101OSM   C17S10213   1.585   1.231   8.761  0.8280  0.5317 -0.2730
  101OSM   H17S10214   1.615   1.189   8.663 -1.8877 -1.0645 -0.5295
  101OSM   H17T10215   1.636   1.326   8.787 -0.8115  1.2332  0.5603
  101OSM   C18S10216   1.431   1.240   8.782 -0.5151 -0.7056  0.5012
  101OSM   H18S10217   1.379   1.309   8.713  2.3529  1.4897  0.3580
  101OSM   H18T10218   1.411   1.278   8.884  1.8871  1.9729  0.0813
  101OSM   H18U10219   1.398   1.140   8.747  1.6346 -1.1017 -0.6145
  101OSM    C1F10220   2.475   0.870  10.337 -0.6835  0.2631 -0.5208
  101OSM     OF10221   2.545   0.772  10.367  0.2911 -0.1516  0.4028
  101OSM    C2F10222   2.514   1.011  10.368 -0.8474  0.6547 -0.2648
  101OSM    H2F10223   2.596   0.992  10.441  2.2136  0.1348 -3.5165
  101OSM    H2G10224   2.431   1.058  10.425 -0.6743 -1.4261  1.8478
  101OSM    C3F10225   2.574   1.096  10.252  0.0897  0.7823 -0.4765
  101OSM    H3F10226   2.670   1.045  10.225  0.2934 -0.9137  2.9022
  101OSM    H3G10227   2.599   1.189  10.307 -2.8366  1.2258  0.2237
  101OSM    C4F10228   2.479   1.124  10.133 -0.0322  0.5691  0.3826
  101OSM    H4F10229   2.464   1.031  10.073 -3.4844  1.2033  0.0550
  101OSM    H4G10230   2.529   1.192  10.060 -0.5875 -0.6205 -1.1832
  101OSM    C5F10231   2.347   1.192  10.159 -0.7636 -0.3560 -0.1393
  101OSM    H5F10232   2.300   1.142  10.247  1.2218 -1.6331  0.2619
  101OSM    H5G10233   2.279   1.182  10.072  0.1503  1.8605 -1.1746
  101OSM    C6F10234   2.368   1.340  10.186 -0.5243 -0.0847 -0.2924
  101OSM    H6F10235   2.448   1.374  10.117 -0.6683  0.2411 -0.3054
  101OSM    H6G10236   2.415   1.353  10.286 -0.2961 -1.0338 -0.2737
  101OSM    C7F10237   2.243   1.430  10.191  0.4612  0.3252  0.5773
  101OSM    H7F10238   2.183   1.402  10.280  0.2701  0.3380  0.4535
  101OSM    H7G10239   2.181   1.408  10.101  0.8886  2.5419 -0.3167
  101OSM    C8F10240   2.280   1.575  10.178  0.8143 -0.5410 -0.4295
  101OSM    H8F10241   2.365   1.599  10.245 -0.6134 -0.3882  1.3989
  101OSM    H8G10242   2.199   1.638  10.221  0.3628 -1.4090  0.0086
  101OSM    C9F10243   2.302   1.626  10.040  0.1406  0.7410  0.7769
  101OSM    H9F10244   2.400   1.616   9.993  0.8500  1.6005  2.0152
  101OSM   C10F10245   2.207   1.686   9.962  0.8812  0.7659  0.4276
  101OSM   H10F10246   2.226   1.715   9.858  0.6058  2.9508  0.9353
  101OSM   C11F10247   2.056   1.718   9.999 -0.6963  0.2855  0.4414
  101OSM   H11F10248   2.041   1.828   9.993 -0.3274  0.2588 -2.0868
  101OSM   H11G10249   2.037   1.687  10.104 -2.0069  1.1967  0.4999
  101OSM   C12F10250   1.958   1.650   9.898 -0.4527 -0.2604 -0.8482
  101OSM   H12F10251   1.859   1.664   9.947  0.5804 -0.0626  1.3102
  101OSM   H12G10252   1.979   1.542   9.887 -3.0512 -1.1876  1.7947
  101OSM   C13F10253   1.961   1.713   9.752 -0.1901 -0.5454  0.4578
  101OSM   H13F10254   2.065   1.705   9.713 -0.4094 -3.6453  0.2876
  101OSM   H13G10255   1.934   1.821   9.756 -0.0942 -0.1967 -3.7759
  101OSM   C14F10256   1.868   1.639   9.651 -0.1483  0.1879  0.5175
  101OSM   H14F10257   1.898   1.533   9.649 -1.5844 -0.3197 -3.4141
  101OSM   H14G10258   1.875   1.684   9.550 -2.2372  1.5122  0.8953
  101OSM   C15F10259   1.722   1.654   9.683  0.2678 -0.4257 -0.1191
  101OSM   H15F10260   1.693   1.737   9.615  0.2253  0.0297  0.4468
  101OSM   H15G10261   1.705   1.691   9.786 -0.4033 -0.7758 -0.0989
  101OSM   C16F10262   1.648   1.525   9.642 -0.1508  0.1914  0.0934
  101OSM   H16F10263   1.671   1.443   9.714  0.2698 -0.9661 -1.3037
  101OSM   H16G10264   1.683   1.489   9.543  0.1688  0.4605  0.1083
  101OSM   C17F10265   1.497   1.550   9.646  0.8634 -0.1361  0.9468
  101OSM   H17F10266   1.467   1.589   9.745 -0.0704  2.9465 -0.4365
  101OSM   H17G10267   1.453   1.449   9.627  1.6346 -0.3914  0.4469
  101OSM   C18F10268   1.452   1.653   9.544 -0.0684 -0.1952  0.1562
  101OSM   H18F10269   1.347   1.628   9.517  0.2621 -0.8078 -0.6320
  101OSM   H18G10270   1.517   1.649   9.454 -0.2706 -0.9030  0.0311
  101OSM   H18H10271   1.452   1.757   9.581 -2.6947  0.5442 -1.6256
  102OSM      N10272   3.156   6.474  10.778  0.0433 -0.6429 -0.0261
  102OSM    C1510273   3.149   6.622  10.737  0.3819 -0.0480  0.0984
  102OSM   H15A10274   3.180   6.678  10.825 -1.5410  0.3467  0.5660
  102OSM   H15B10275   3.048   6.646  10.710  0.3562 -0.6185 -0.3289
  102OSM   H15C10276   3.211   6.657  10.655  0.5469  1.3732  0.7865
  102OSM    C1410277   3.295   6.443  10.814 -0.4632 -0.4584 -0.0648
  102OSM   H14A10278   3.363   6.438  10.730  0.3292  1.9675  0.3439
  102OSM   H14B10279   3.295   6.339  10.842  0.9282 -0.6698 -0.7758
  102OSM   H14C10280   3.334   6.494  10.901  0.3524 -1.3214  0.0996
  102OSM    C1310281   3.059   6.455  10.887 -0.8456  0.5603 -0.2846
  102OSM   H13A10282   3.059   6.353  10.922  0.6303 -0.4006 -2.8672
  102OSM   H13B10283   2.957   6.486  10.869 -1.1981 -0.9199 -0.9636
  102OSM   H13C10284   3.089   6.519  10.969  0.8456 -1.7961  1.0618
  102OSM    C1210285   3.108   6.392  10.657 -0.1796  0.0634  0.2606
  102OSM   H12A10286   3.168   6.419  10.572  1.2647 -0.9565  0.9217
  102OSM   H12B10287   3.006   6.414  10.627  0.1037  2.5527  0.9337
  102OSM    C1110288   3.107   6.234  10.679  0.4233  0.2835 -0.0111
  102OSM   H11A10289   3.203   6.218  10.732  0.2618 -0.3161  0.1071
  102OSM   H11B10290   3.116   6.182  10.581 -0.6230  0.3727 -0.1652
  102OSM      P10291   2.854   6.204  10.707  0.5195 -0.3520 -0.3491
  102OSM    O1310292   2.767   6.117  10.788  0.3071  0.4890  0.2838
  102OSM    O1410293   2.805   6.345  10.695 -0.1724 -0.0796  0.4938
  102OSM    O1110294   2.858   6.138  10.564  0.3819  0.1045 -0.4527
  102OSM    O1210295   2.999   6.189  10.762  0.0747 -0.1674  0.0640
  102OSM    C1S10296   2.869   6.220  10.445 -0.7361 -0.3847 -0.2164
  102OSM    H1S10297   2.972   6.238  10.407  0.1391  1.6320  2.8120
  102OSM    H1T10298   2.833   6.325  10.454 -0.8544 -0.4656  0.2492
  102OSM     NF10299   2.799   6.249  10.212 -0.2497 -0.3305 -0.2912
  102OSM    HNF10300   2.754   6.337  10.197  0.1776 -0.2140 -0.9117
  102OSM    C2S10301   2.766   6.178  10.341 -0.9111  0.0325 -0.0115
  102OSM    H2S10302   2.793   6.072  10.321  1.2108  0.6557 -0.6148
  102OSM    C3S10303   2.615   6.197  10.384  0.0303  0.3317  0.5865
  102OSM    H3S10304   2.590   6.306  10.382 -0.4253  0.2238 -0.8159
  102OSM     O310305   2.574   6.148  10.504 -0.1362  0.0566 -0.0723
  102OSM    HO310306   2.653   6.141  10.558  1.5872 -1.1683 -2.5332
  102OSM    C4S10307   2.525   6.133  10.274  0.8633  0.2967 -0.4606
  102OSM    H4S10308   2.555   6.031  10.246  0.3136  0.7354 -2.8915
  102OSM    C5S10309   2.426   6.194  10.207 -0.8342 -0.1115 -0.4799
  102OSM    H5S10310   2.415   6.302  10.229 -0.7380 -0.0304 -0.8314
  102OSM    C6S10311   2.337   6.137  10.098  0.5032  0.5366 -0.5531
  102OSM    H6S10312   2.265   6.217  10.071  1.7125  2.3337  1.1817
  102OSM    H6T10313   2.282   6.052  10.144  0.6697  1.6261  1.8595
  102OSM    C7S10314   2.415   6.099   9.972 -0.0875  0.3228  0.1943
  102OSM    H7S10315   2.355   6.031   9.909 -0.5178  0.5957  0.2990
  102OSM    H7T10316   2.505   6.041   9.999 -1.0556  0.0299  3.1711
  102OSM    C8S10317   2.464   6.228   9.896  0.1021 -0.5950 -0.2501
  102OSM    H8S10318   2.522   6.287   9.970  3.1910 -2.2279 -1.1938
  102OSM    H8T10319   2.365   6.272   9.870  0.2514  0.3539  0.6833
  102OSM    C9S10320   2.544   6.208   9.770 -0.4989  0.9170  0.3431
  102OSM    H9S10321   2.585   6.106   9.785 -2.2754 -0.2126 -1.9757
  102OSM    H9T10322   2.634   6.271   9.750  0.7726 -0.1650  2.2875
  102OSM   C10S10323   2.466   6.198   9.646  0.4287  0.3868 -0.0027
  102OSM   H10S10324   2.409   6.293   9.652  2.6034  1.7615 -0.0626
  102OSM   H10T10325   2.398   6.110   9.644  0.5899  0.2666 -0.1609
  102OSM   C11S10326   2.541   6.192   9.509 -0.1674  0.4409  0.5270
  102OSM   H11S10327   2.476   6.169   9.422  1.0609  0.4153 -0.4095
  102OSM   H11T10328   2.611   6.108   9.528  0.5481  1.0178  0.4756
  102OSM   C12S10329   2.620   6.314   9.466  0.4725  0.6880 -0.1310
  102OSM   H12S10330   2.697   6.348   9.539 -0.6469 -1.2433  2.0674
  102OSM   H12T10331   2.558   6.404   9.448  0.5565  0.7130 -0.3016
  102OSM   C13S10332   2.686   6.280   9.328 -0.2548  0.2798  0.6142
  102OSM   H13S10333   2.734   6.372   9.287  1.7314 -1.0896 -0.2989
  102OSM   H13T10334   2.622   6.247   9.243  0.6196  1.3779 -0.5094
  102OSM   C14S10335   2.806   6.183   9.345  0.1850 -0.4154 -0.3122
  102OSM   H14S10336   2.746   6.089   9.352 -2.1700  0.9895 -0.4178
  102OSM   H14T10337   2.842   6.211   9.446  0.1726 -0.6727 -0.2366
  102OSM   C15S10338   2.907   6.187   9.236  0.4650  0.0341 -0.0083
  102OSM   H15S10339   2.974   6.104   9.267  0.3591 -0.2443 -0.5107
  102OSM   H15T10340   2.973   6.276   9.238  1.4321 -0.5233 -2.7931
  102OSM   C16S10341   2.851   6.181   9.094  0.4158  0.0861  0.9335
  102OSM   H16S10342   2.770   6.255   9.074 -0.8455 -1.2139  1.1436
  102OSM   H16T10343   2.814   6.078   9.077  1.3989 -0.1052 -0.1631
  102OSM   C17S10344   2.974   6.197   9.001  0.2138  0.4768  0.0584
  102OSM   H17S10345   3.037   6.106   9.011 -0.3363 -0.0169 -0.7942
  102OSM   H17T10346   3.032   6.280   9.046 -0.9249  1.1388  0.3505
  102OSM   C18S10347   2.950   6.238   8.852  0.4929  0.4292  0.5200
  102OSM   H18S10348   2.894   6.333   8.839 -1.9335 -1.0671 -0.8345
  102OSM   H18T10349   2.885   6.161   8.805 -1.0395  1.8288  0.2818
  102OSM   H18U10350   3.049   6.244   8.802  1.2404 -1.2353  1.6830
  102OSM    C1F10351   2.888   6.206  10.127 -0.0460 -0.2452 -0.1960
  102OSM     OF10352   2.955   6.107  10.150 -0.7269  0.0546  0.0435
  102OSM    C2F10353   2.905   6.283   9.999  0.2539  0.5296 -0.4387
  102OSM    H2F10354   2.846   6.376  10.013  0.3704  1.1411 -3.4052
  102OSM    H2G10355   2.851   6.221   9.924  1.4508  0.0710 -0.9536
  102OSM    C3F10356   3.052   6.292   9.948 -0.9547 -0.0155 -0.6253
  102OSM    H3F10357   3.077   6.188   9.917  0.7199  0.7710 -2.0640
  102OSM    H3G10358   3.128   6.320  10.023 -0.3883 -0.8946 -0.8631
  102OSM    C4F10359   3.080   6.385   9.821  0.6403  0.1617 -0.3156
  102OSM    H4F10360   3.190   6.389   9.807  0.5528  2.4897 -0.7423
  102OSM    H4G10361   3.043   6.488   9.843 -0.6047 -0.7131  2.1098
  102OSM    C5F10362   3.017   6.331   9.692  0.2714 -0.8244 -0.4996
  102OSM    H5F10363   2.907   6.324   9.706  0.2125 -1.7125 -1.3073
  102OSM    H5G10364   3.056   6.228   9.679  1.1202 -0.2603 -2.9746
  102OSM    C6F10365   3.059   6.410   9.569 -0.2814  0.4278 -0.3969
  102OSM    H6F10366   3.084   6.338   9.488 -2.1382 -0.2149 -0.4617
  102OSM    H6G10367   3.145   6.477   9.586  0.0979  0.1570 -1.1685
  102OSM    C7F10368   2.947   6.500   9.523 -0.0075 -0.2232  0.6986
  102OSM    H7F10369   2.915   6.551   9.616 -1.1805  1.6112 -0.6436
  102OSM    H7G10370   2.861   6.446   9.479 -0.1310  1.8186 -1.8295
  102OSM    C8F10371   2.993   6.600   9.409  0.1086 -0.2626 -0.8928
  102OSM    H8F10372   3.083   6.656   9.442  2.4828 -3.9305 -0.5893
  102OSM    H8G10373   2.910   6.673   9.399  2.5858  3.3459  2.3215
  102OSM    C9F10374   3.037   6.541   9.282 -0.7401 -0.3434  0.2811
  102OSM    H9F10375   3.141   6.503   9.278 -0.0498  1.5226 -0.8073
  102OSM   C10F10376   2.975   6.545   9.161  0.5250 -0.1281 -0.0024
  102OSM   H10F10377   3.031   6.517   9.070  0.5921 -0.5580  0.1722
  102OSM   C11F10378   2.844   6.614   9.130 -0.2109  0.2086  0.1932
  102OSM   H11F10379   2.798   6.661   9.220 -1.6974  0.6774 -0.7691
  102OSM   H11G10380   2.777   6.528   9.111  1.1100 -0.9388  0.5715
  102OSM   C12F10381   2.841   6.716   9.018 -0.6081 -0.5191  0.5126
  102OSM   H12F10382   2.905   6.801   9.052 -0.4646 -1.0728  1.6533
  102OSM   H12G10383   2.735   6.745   9.005 -0.4971 -0.4819 -0.4002
  102OSM   C13F10384   2.879   6.673   8.879 -0.0920  0.1650 -0.0824
  102OSM   H13F10385   2.808   6.596   8.841  2.0191 -1.1457 -1.6287
  102OSM   H13G10386   2.983   6.632   8.877 -0.0207  0.3151  0.4017
  102OSM   C14F10387   2.877   6.787   8.781  0.7401 -0.0239  0.2081
  102OSM   H14F10388   2.957   6.856   8.816  1.3729 -0.8776  0.4732
  102OSM   H14G10389   2.778   6.836   8.793 -0.2007 -1.4705 -1.2818
  102OSM   C15F10390   2.914   6.755   8.640  0.6847  0.8037  0.2354
  102OSM   H15F10391   2.864   6.660   8.610  1.3692 -0.2962  2.3676
  102OSM   H15G10392   3.023   6.739   8.622  0.8878  0.8592  1.3347
  102OSM   C16F10393   2.852   6.860   8.545 -0.6367 -0.5783 -0.1334
  102OSM   H16F10394   2.887   6.961   8.575 -1.8821  0.2677 -1.3716
  102OSM   H16G10395   2.742   6.850   8.555 -0.6399 -1.6062 -1.0296
  102OSM   C17F10396   2.902   6.852   8.396 -0.2891 -0.5167  0.3937
  102OSM   H17F10397   2.845   6.923   8.333  0.9305 -1.1050 -1.4377
  102OSM   H17G10398   2.897   6.744   8.374  1.9812 -0.5645 -0.0972
  102OSM   C18F10399   3.052   6.901   8.393 -0.1613  0.2244 -0.1957
  102OSM   H18F10400   3.118   6.832   8.451 -1.7975  0.5897  2.2782
  102OSM   H18G10401   3.053   6.997   8.448 -0.7727 -0.0468  0.3187
  102OSM   H18H10402   3.083   6.896   8.287 -0.1358  0.1009 -0.1823
  103OSM      N10403   4.713   2.834  10.849 -0.7612  0.5556  0.1358
  103OSM    C1510404   4.688   2.732  10.951 -0.4574  0.3924  0.6994
  103OSM   H15A10405   4.606   2.768  11.012 -1.6213  0.0984 -0.6363
  103OSM   H15B10406   4.764   2.710  11.024 -1.0365 -1.1060  0.8944
  103OSM   H15C10407   4.667   2.637  10.903  2.6989  0.8435 -1.8753
  103OSM    C1410408   4.763   2.950  10.931  0.4685 -0.8284 -0.7979
  103OSM   H14A10409   4.694   2.985  11.008 -0.4110 -2.9672 -0.5566
  103OSM   H14B10410   4.767   3.043  10.875  0.2582 -0.8639 -0.8730
  103OSM   H14C10411   4.855   2.914  10.973  0.3784 -0.3046 -0.1217
  103OSM    C1310412   4.834   2.784  10.776 -0.5222 -0.1560  0.8189
  103OSM   H13A10413   4.899   2.730  10.843  0.8795  0.6847  0.1994
  103OSM   H13B10414   4.891   2.864  10.731  0.6988 -1.0898  0.6537
  103OSM   H13C10415   4.815   2.708  10.702  2.7023 -0.7240  0.4096
  103OSM    C1210416   4.601   2.872  10.762 -0.1769 -0.8895 -0.5258
  103OSM   H12A10417   4.527   2.906  10.833  1.3407  2.0455 -0.1545
  103OSM   H12B10418   4.560   2.783  10.717 -1.1187 -0.7433  0.0166
  103OSM    C1110419   4.631   2.983  10.656  0.0351  0.4302 -0.0412
  103OSM   H11A10420   4.531   3.000  10.610 -1.1046 -1.7871  1.4447
  103OSM   H11B10421   4.696   2.944  10.574  0.4764 -0.1374  0.5725
  103OSM      P10422   4.588   3.228  10.747 -0.1642 -0.2063 -0.2604
  103OSM    O1310423   4.463   3.185  10.816  0.2083 -0.2694 -0.0687
  103OSM    O1410424   4.668   3.340  10.815 -0.1904  0.4105  0.4830
  103OSM    O1110425   4.537   3.281  10.609 -0.1188  0.3898  0.5358
  103OSM    O1210426   4.679   3.108  10.705 -0.4355  0.4283  0.5213
  103OSM    C1S10427   4.613   3.261  10.494 -0.0371  0.5921 -0.4919
  103OSM    H1S10428   4.608   3.157  10.458  2.2404 -0.1491  1.1015
  103OSM    H1T10429   4.720   3.287  10.508  0.0857  0.6801 -1.5777
  103OSM     NF10430   4.620   3.313  10.244  0.3184  0.3482 -0.4078
  103OSM    HNF10431   4.689   3.365  10.195 -0.1105 -1.7289 -3.5506
  103OSM    C2S10432   4.561   3.351  10.376 -0.1024 -0.2910 -0.5167
  103OSM    H2S10433   4.450   3.344  10.366  0.0412 -0.1617 -3.1355
  103OSM    C3S10434   4.584   3.503  10.414 -0.1674  0.1449  0.3766
  103OSM    H3S10435   4.694   3.517  10.407 -0.3063  0.9075 -0.6619
  103OSM     O310436   4.546   3.548  10.545 -0.6261 -0.2356 -0.4486
  103OSM    HO310437   4.526   3.470  10.598  2.3234  0.0328  1.3166
  103OSM    C4S10438   4.530   3.585  10.298 -0.2219 -0.6912 -0.5489
  103OSM    H4S10439   4.605   3.614  10.223  0.1103  0.8779  0.3452
  103OSM    C5S10440   4.398   3.618  10.285  0.3107 -0.0865  0.2449
  103OSM    H5S10441   4.334   3.570  10.360  0.7913 -0.1592  0.6138
  103OSM    C6S10442   4.331   3.683  10.167  0.6569  0.0512  0.9144
  103OSM    H6S10443   4.296   3.786  10.186  1.8852  0.6847 -0.0978
  103OSM    H6T10444   4.231   3.635  10.154 -0.9031  3.2694  0.0596
  103OSM    C7S10445   4.410   3.678  10.037  0.8719 -0.1653  0.4168
  103OSM    H7S10446   4.463   3.581  10.029 -0.6662 -1.3640  3.2878
  103OSM    H7T10447   4.487   3.759  10.037 -0.7179  1.4186  0.1403
  103OSM    C8S10448   4.322   3.706   9.914  0.0561  0.0275 -0.1263
  103OSM    H8S10449   4.289   3.812   9.925 -1.9336 -0.5221 -0.4410
  103OSM    H8T10450   4.229   3.647   9.899  0.7313 -1.1519  0.2246
  103OSM    C9S10451   4.394   3.704   9.776  0.0504 -0.4840  0.5542
  103OSM    H9S10452   4.470   3.623   9.761  2.2705  1.6754 -0.5203
  103OSM    H9T10453   4.460   3.793   9.780 -0.1871 -0.2699 -0.2904
  103OSM   C10S10454   4.301   3.711   9.665  0.6120  0.1181  0.3976
  103OSM   H10S10455   4.242   3.804   9.679  1.1938  0.9900 -2.3009
  103OSM   H10T10456   4.226   3.630   9.657 -0.0556  0.8402 -1.1200
  103OSM   C11S10457   4.362   3.739   9.524 -0.3320  0.8932 -0.3148
  103OSM   H11S10458   4.434   3.654   9.523  0.5810  1.5606  2.1257
  103OSM   H11T10459   4.420   3.833   9.535  1.7287 -0.5030  1.7519
  103OSM   C12S10460   4.275   3.754   9.405 -0.0886 -0.3436 -0.1590
  103OSM   H12S10461   4.226   3.854   9.414  0.8659  0.4209 -2.6689
  103OSM   H12T10462   4.197   3.675   9.397 -3.3864  2.8071 -2.6882
  103OSM   C13S10463   4.345   3.764   9.273  0.0792  0.6583  0.0644
  103OSM   H13S10464   4.403   3.673   9.249 -0.0576  1.2900 -2.9928
  103OSM   H13T10465   4.422   3.844   9.275  1.3040 -0.4888 -0.1553
  103OSM   C14S10466   4.250   3.773   9.158  0.1643 -0.8705  0.3615
  103OSM   H14S10467   4.196   3.870   9.157 -0.9273 -1.4671 -0.3107
  103OSM   H14T10468   4.176   3.691   9.160  0.3135 -1.0717 -1.0019
  103OSM   C15S10469   4.324   3.769   9.021  0.0938 -1.2216 -0.3959
  103OSM   H15S10470   4.407   3.695   9.028 -0.6787 -1.9504  1.6021
  103OSM   H15T10471   4.378   3.864   9.002 -1.2691 -0.4668 -0.5985
  103OSM   C16S10472   4.239   3.747   8.897  0.0564  0.0447 -0.0834
  103OSM   H16S10473   4.164   3.829   8.895 -0.8537 -0.7216  1.1014
  103OSM   H16T10474   4.175   3.658   8.912  0.3343 -0.2054 -0.3617
  103OSM   C17S10475   4.309   3.743   8.765  0.5461  0.0741 -0.0429
  103OSM   H17S10476   4.228   3.738   8.689  0.2530 -0.0182  0.2772
  103OSM   H17T10477   4.382   3.659   8.759  0.7166  0.1916  0.3496
  103OSM   C18S10478   4.391   3.868   8.729 -0.3285  0.6230 -0.8604
  103OSM   H18S10479   4.491   3.855   8.775 -2.0945 -2.4142  2.6493
  103OSM   H18T10480   4.341   3.963   8.756 -1.5142 -0.4507  0.9897
  103OSM   H18U10481   4.403   3.872   8.619  1.7364  0.6460 -0.6690
  103OSM    C1F10482   4.578   3.191  10.184 -0.0204 -0.5781  0.6611
  103OSM     OF10483   4.514   3.105  10.240  0.4889  0.0127 -0.4049
  103OSM    C2F10484   4.625   3.173  10.044  0.3280  0.4737  0.1594
  103OSM    H2F10485   4.735   3.184  10.040  0.2932  0.3206 -1.8020
  103OSM    H2G10486   4.595   3.266   9.992  1.2957  1.2726  0.9955
  103OSM    C3F10487   4.583   3.040   9.970 -0.0151 -0.3293  0.0761
  103OSM    H3F10488   4.473   3.027   9.974 -0.5441  3.3190  0.4899
  103OSM    H3G10489   4.626   2.953  10.025  2.6299  0.5031 -0.5647
  103OSM    C4F10490   4.648   3.035   9.831  0.8196  0.0897 -0.4032
  103OSM    H4F10491   4.759   3.025   9.839  0.9833 -1.1594 -3.1572
  103OSM    H4G10492   4.647   3.126   9.769  0.6359 -0.9015 -1.9045
  103OSM    C5F10493   4.595   2.922   9.742  0.2949  0.3179 -0.1219
  103OSM    H5F10494   4.484   2.909   9.743  0.2883  0.3232 -0.6130
  103OSM    H5G10495   4.645   2.827   9.769 -2.2962 -0.9995  0.3552
  103OSM    C6F10496   4.624   2.959   9.593  0.3211 -0.3269 -0.0182
  103OSM    H6F10497   4.577   3.055   9.566  1.5080  0.1525 -0.4296
  103OSM    H6G10498   4.559   2.893   9.532 -0.2870  0.3919 -0.1621
  103OSM    C7F10499   4.768   2.966   9.539 -0.3671 -0.6204  0.6078
  103OSM    H7F10500   4.816   2.871   9.572  0.1138  0.2360  2.4480
  103OSM    H7G10501   4.824   3.049   9.585 -0.4689 -1.1679  1.7416
  103OSM    C8F10502   4.767   2.962   9.376 -0.2899  0.1168 -1.3496
  103OSM    H8F10503   4.713   2.870   9.345  3.0145 -2.2027 -0.7745
  103OSM    H8G10504   4.870   2.931   9.349 -0.5707 -2.3282  0.0411
  103OSM    C9F10505   4.712   3.095   9.329  0.1598 -1.1499  0.5879
  103OSM    H9F10506   4.684   3.166   9.408 -1.9879 -0.5770 -0.6203
  103OSM   C10F10507   4.703   3.138   9.205  0.1761  0.8041  0.1058
  103OSM   H10F10508   4.651   3.235   9.201  1.3147  1.3821 -1.6215
  103OSM   C11F10509   4.747   3.069   9.082  0.3743  0.6286 -0.2405
  103OSM   H11F10510   4.678   3.084   8.996 -0.4392  3.3378  0.7891
  103OSM   H11G10511   4.732   2.960   9.099 -1.2000  0.8213 -0.2575
  103OSM   C12F10512   4.891   3.098   9.044 -0.0812  1.2131  0.5386
  103OSM   H12F10513   4.930   3.044   8.955 -1.7253  1.4168 -0.3448
  103OSM   H12G10514   4.962   3.067   9.124  0.3744  2.1307  0.4960
  103OSM   C13F10515   4.923   3.243   9.013  0.6025 -0.7434  0.5669
  103OSM   H13F10516   4.916   3.314   9.098 -0.2855 -1.3655  1.0255
  103OSM   H13G10517   5.021   3.254   8.962  0.4136 -0.1378  0.3215
  103OSM   C14F10518   4.825   3.304   8.905 -0.0397 -0.2236  0.2133
  103OSM   H14F10519   4.727   3.321   8.955 -0.1510 -0.7178  0.1664
  103OSM   H14G10520   4.812   3.231   8.822 -0.0334  0.4988 -0.4303
  103OSM   C15F10521   4.876   3.443   8.845  0.8999  0.3962  0.2549
  103OSM   H15F10522   4.972   3.429   8.791  1.5821  2.3473  0.8665
  103OSM   H15G10523   4.894   3.522   8.921  0.3534  1.1738 -0.4090
  103OSM   C16F10524   4.771   3.514   8.760 -0.3889 -0.9500  0.4760
  103OSM   H16F10525   4.693   3.564   8.821  0.7865  0.7040  0.6895
  103OSM   H16G10526   4.720   3.442   8.693 -1.3754 -1.4363  1.6975
  103OSM   C17F10527   4.827   3.636   8.677 -0.0419 -0.2231  0.1736
  103OSM   H17F10528   4.923   3.599   8.635  0.3072 -0.6660  1.3186
  103OSM   H17G10529   4.845   3.722   8.745 -0.2854 -0.6781  0.8203
  103OSM   C18F10530   4.729   3.669   8.564  0.5130  0.2074  0.6072
  103OSM   H18F10531   4.717   3.581   8.497  2.2734  1.6186 -1.7315
  103OSM   H18G10532   4.756   3.760   8.505  1.2739  0.7965  1.8245
  103OSM   H18H10533   4.627   3.689   8.603 -0.2571 -0.1895 -1.0882
  104OSM      N10534   0.518   4.305  10.700  0.1300  0.1228  0.1605
  104OSM    C1510535   0.454   4.355  10.572  0.1391  0.5072 -0.2269
  104OSM   H15A10536   0.472   4.278  10.499  0.6584 -0.4507  0.8815
  104OSM   H15B10537   0.493   4.454  10.550 -1.5916  1.6731  1.5844
  104OSM   H15C10538   0.348   4.369  10.580 -0.1153 -0.6579 -1.2742
  104OSM    C1410539   0.457   4.180  10.752  0.6454  0.5642 -0.2636
  104OSM   H14A10540   0.499   4.149  10.847  2.2267  0.3228 -1.0011
  104OSM   H14B10541   0.479   4.102  10.681  1.2497  0.0462  0.4741
  104OSM   H14C10542   0.350   4.185  10.762  0.6157  2.3790 -1.0715
  104OSM    C1310543   0.658   4.259  10.662 -0.2344 -0.2100 -0.1134
  104OSM   H13A10544   0.706   4.333  10.600  1.8374  0.0845  1.7488
  104OSM   H13B10545   0.653   4.166  10.606 -0.5819  0.0128 -0.4590
  104OSM   H13C10546   0.716   4.248  10.752 -0.7992 -0.7263  0.2018
  104OSM    C1210547   0.529   4.408  10.807 -0.0901  0.1673 -0.2169
  104OSM   H12A10548   0.588   4.353  10.879 -0.6635 -0.8495 -0.5039
  104OSM   H12B10549   0.430   4.409  10.850 -0.1322  1.2847 -0.3127
  104OSM    C1110550   0.574   4.561  10.778  0.0784  0.5554  0.3506
  104OSM   H11A10551   0.545   4.614  10.872  0.1912 -0.7137  1.1301
  104OSM   H11B10552   0.513   4.597  10.693  0.9027  0.4077 -0.3064
  104OSM      P10553   0.795   4.705  10.720  0.0004  0.0400 -0.2405
  104OSM    O1310554   0.705   4.806  10.665  0.1082  0.2291  0.3752
  104OSM    O1410555   0.869   4.737  10.848  0.0046 -0.1443  0.1885
  104OSM    O1110556   0.893   4.658  10.610  0.2820  0.2586 -0.1669
  104OSM    O1210557   0.712   4.569  10.753  0.0826 -0.7108 -0.1652
  104OSM    C1S10558   0.855   4.563  10.505 -0.0115  0.7915  0.1700
  104OSM    H1S10559   0.748   4.536  10.516  0.0684  1.2903  2.9454
  104OSM    H1T10560   0.905   4.468  10.532 -1.8765  0.3978  2.5814
  104OSM     NF10561   0.819   4.540  10.262 -0.4350  0.4993 -0.3528
  104OSM    HNF10562   0.881   4.488  10.204 -1.7689 -1.4229 -0.1717
  104OSM    C2S10563   0.877   4.621  10.363  0.4888 -0.4736  0.5964
  104OSM    H2S10564   0.832   4.723  10.362  3.2222  0.8274  0.8336
  104OSM    C3S10565   1.023   4.645  10.338 -0.1944  0.3756  0.2020
  104OSM    H3S10566   1.075   4.547  10.347 -0.6516 -0.2762 -3.0081
  104OSM     O310567   1.081   4.728  10.444  0.0465  0.1148 -0.4019
  104OSM    HO310568   1.006   4.718  10.503 -1.0164  0.4488 -1.6460
  104OSM    C4S10569   1.036   4.711  10.204  0.2916  0.1945 -0.5345
  104OSM    H4S10570   0.970   4.795  10.177 -2.2538 -1.2878  0.6853
  104OSM    C5S10571   1.118   4.659  10.118 -0.4641  0.1749  0.0306
  104OSM    H5S10572   1.169   4.565  10.142 -0.9922  0.5615  3.0026
  104OSM    C6S10573   1.137   4.723   9.983  0.2999 -0.7680 -0.0662
  104OSM    H6S10574   1.245   4.749   9.980  0.5438 -1.5257  1.3141
  104OSM    H6T10575   1.078   4.817   9.975 -0.5098 -1.4112 -2.6739
  104OSM    C7S10576   1.091   4.616   9.880  0.1408  0.2505  0.0854
  104OSM    H7S10577   0.984   4.589   9.893 -0.1135 -0.6945 -3.1172
  104OSM    H7T10578   1.135   4.516   9.901 -1.9063 -0.9595 -1.0836
  104OSM    C8S10579   1.119   4.668   9.735  0.0698  0.4558  0.5884
  104OSM    H8S10580   1.092   4.583   9.670 -2.0310 -1.3062  3.4982
  104OSM    H8T10581   1.228   4.689   9.743  0.4322 -1.0437 -0.1659
  104OSM    C9S10582   1.055   4.798   9.693 -0.7373  0.0887  0.2247
  104OSM    H9S10583   1.064   4.874   9.774  1.2906  0.1852 -0.0251
  104OSM    H9T10584   0.947   4.774   9.682 -0.5726 -1.7724  2.0057
  104OSM   C10S10585   1.118   4.847   9.569  0.1847 -0.4322  0.6205
  104OSM   H10S10586   1.126   4.760   9.499 -0.3292 -1.0640  1.3399
  104OSM   H10T10587   1.224   4.877   9.582 -0.4259  0.9731  2.9367
  104OSM   C11S10588   1.040   4.964   9.501 -0.4241  0.3730 -0.1955
  104OSM   H11S10589   0.929   4.966   9.505 -0.4129  1.3825  0.0002
  104OSM   H11T10590   1.063   4.966   9.393  0.4646 -1.6510 -0.0779
  104OSM   C12S10591   1.098   5.106   9.547  0.1620  0.1385 -0.2151
  104OSM   H12S10592   1.172   5.124   9.467  1.4526  0.3919  1.0099
  104OSM   H12T10593   1.147   5.095   9.646 -1.0598 -0.1527  0.3777
  104OSM   C13S10594   1.000   5.224   9.541  0.5973 -1.2668 -0.3377
  104OSM   H13S10595   0.968   5.242   9.436 -0.3109  0.7591  0.2368
  104OSM   H13T10596   1.031   5.320   9.586 -1.2118 -0.5541 -0.5295
  104OSM   C14S10597   0.866   5.187   9.614 -0.3743 -0.1473 -0.0254
  104OSM   H14S10598   0.894   5.138   9.710 -0.4877 -2.3186 -1.0597
  104OSM   H14T10599   0.815   5.111   9.552 -1.2577  1.7095 -1.7089
  104OSM   C15S10600   0.775   5.308   9.646  0.4214 -0.0252 -0.3671
  104OSM   H15S10601   0.822   5.362   9.731  0.3009  0.3925 -0.5667
  104OSM   H15T10602   0.685   5.258   9.687  1.2830 -0.9371  0.4851
  104OSM   C16S10603   0.733   5.395   9.529 -0.5380 -0.0182 -0.1069
  104OSM   H16S10604   0.661   5.337   9.469 -0.3454  0.7400 -1.0939
  104OSM   H16T10605   0.825   5.412   9.469 -0.2979  1.8804  0.7219
  104OSM   C17S10606   0.657   5.525   9.564 -0.0891 -0.1860 -0.4484
  104OSM   H17S10607   0.726   5.580   9.631  0.1995 -2.7702  1.5028
  104OSM   H17T10608   0.560   5.511   9.616 -0.9992 -1.0826 -2.2952
  104OSM   C18S10609   0.628   5.593   9.428  0.1979 -0.1128  0.1478
  104OSM   H18S10610   0.688   5.685   9.412  0.3838 -0.2531  0.0330
  104OSM   H18T10611   0.520   5.611   9.406  0.2123 -0.1879  0.0115
  104OSM   H18U10612   0.662   5.527   9.346 -0.4992 -1.3499  0.8287
  104OSM    C1F10613   0.688   4.515  10.253 -0.1243 -0.1766 -0.1237
  104OSM     OF10614   0.600   4.579  10.313 -0.9863 -0.0142 -0.2444
  104OSM    C2F10615   0.648   4.391  10.181  0.1457 -0.0356  0.1208
  104OSM    H2F10616   0.587   4.325  10.246 -1.0539 -0.8005 -1.7058
  104OSM    H2G10617   0.737   4.331  10.154  0.9527  0.8617  0.6789
  104OSM    C3F10618   0.595   4.418  10.040  0.5605 -0.0205 -0.5336
  104OSM    H3F10619   0.499   4.471  10.055  1.6287  1.8360  0.1619
  104OSM    H3G10620   0.565   4.319   9.999 -0.2636 -0.0897  0.2224
  104OSM    C4F10621   0.689   4.489   9.939  0.4840 -0.9449 -0.2194
  104OSM    H4F10622   0.791   4.443   9.943  0.4377 -1.0369 -0.0889
  104OSM    H4G10623   0.705   4.595   9.969  0.3450 -0.9565 -0.1058
  104OSM    C5F10624   0.632   4.486   9.797 -0.2606 -1.1853  0.5318
  104OSM    H5F10625   0.529   4.529   9.793 -0.4858 -1.8105 -0.6072
  104OSM    H5G10626   0.610   4.385   9.757 -0.6319 -1.6392  1.8075
  104OSM    C6F10627   0.725   4.561   9.694  0.7282  0.3047  0.2768
  104OSM    H6F10628   0.825   4.513   9.699 -0.1285 -1.4382  1.7624
  104OSM    H6G10629   0.745   4.665   9.726  0.1208  0.5705 -0.1767
  104OSM    C7F10630   0.673   4.548   9.549  0.3440 -0.7986  0.3271
  104OSM    H7F10631   0.572   4.596   9.542  0.6777  0.7619  3.7836
  104OSM    H7G10632   0.662   4.440   9.526  0.2413 -0.9831  1.2169
  104OSM    C8F10633   0.757   4.623   9.446 -0.7207  0.0058 -0.0463
  104OSM    H8F10634   0.777   4.727   9.481  1.6758 -0.5479  0.4525
  104OSM    H8G10635   0.690   4.632   9.358 -0.3532 -0.0201 -0.3319
  104OSM    C9F10636   0.893   4.555   9.425  0.1626  0.2548  0.0255
  104OSM    H9F10637   0.915   4.487   9.508 -1.6270  0.7477  0.9564
  104OSM   C10F10638   0.960   4.544   9.310  0.5533  0.9221 -0.2430
  104OSM   H10F10639   1.055   4.489   9.313 -0.7009 -1.3384  0.1234
  104OSM   C11F10640   0.929   4.599   9.174 -0.2534 -0.3897  0.0001
  104OSM   H11F10641   0.829   4.646   9.168  0.7917  1.7131 -3.4570
  104OSM   H11G10642   0.915   4.520   9.098 -2.6877  0.6593 -0.7251
  104OSM   C12F10643   1.041   4.705   9.132 -0.2074  0.6767  0.1610
  104OSM   H12F10644   1.137   4.649   9.145 -0.0679  0.8996  0.0852
  104OSM   H12G10645   1.038   4.786   9.207  2.1670  2.0462 -1.1319
  104OSM   C13F10646   1.016   4.747   8.985 -0.2526  0.1263  0.6089
  104OSM   H13F10647   0.970   4.667   8.924  2.1873 -1.7150  1.0314
  104OSM   H13G10648   1.116   4.764   8.939 -0.2486 -0.6239  0.3305
  104OSM   C14F10649   0.932   4.874   8.974  1.0045 -0.3358  0.3707
  104OSM   H14F10650   0.975   4.953   9.041  0.0318 -0.0429  0.6591
  104OSM   H14G10651   0.827   4.862   9.007  1.0793  1.6480  1.5019
  104OSM   C15F10652   0.937   4.921   8.830  0.2990  0.4866  0.8258
  104OSM   H15F10653   0.876   4.850   8.771 -0.3449  2.0330 -0.4461
  104OSM   H15G10654   1.042   4.932   8.796 -0.6755  1.0475 -2.3345
  104OSM   C16F10655   0.859   5.051   8.800 -0.3132 -0.3708  0.4045
  104OSM   H16F10656   0.911   5.131   8.857  3.8353 -0.0199 -3.3566
  104OSM   H16G10657   0.761   5.032   8.849 -0.4312 -0.2780  0.2039
  104OSM   C17F10658   0.849   5.084   8.654  0.3146  0.1880  0.2643
  104OSM   H17F10659   0.939   5.039   8.607 -0.9498 -0.2775 -1.8760
  104OSM   H17G10660   0.868   5.192   8.634 -0.1486  0.4337  1.1009
  104OSM   C18F10661   0.716   5.043   8.587  0.3014 -0.2553 -0.2169
  104OSM   H18F10662   0.621   5.089   8.622  1.0121  1.1816 -0.1346
  104OSM   H18G10663   0.712   4.935   8.615  2.7567  0.0466  1.5796
  104OSM   H18H10664   0.722   5.061   8.477  2.0593  0.2826 -0.0593
  105OSM      N10665   6.699   4.861  10.884  0.6815  0.6925 -0.4178
  105OSM    C1510666   6.778   4.926  10.780 -0.2909 -0.5923 -0.0575
  105OSM   H15A10667   6.858   4.981  10.827 -1.7996  1.2444  0.5030
  105OSM   H15B10668   6.728   5.009  10.733  1.0170  0.2518 -0.0278
  105OSM   H15C10669   6.823   4.863  10.705 -0.9395 -3.2902  1.6537
  105OSM    C1410670   6.781   4.763  10.961 -0.6791 -0.0623  0.0347
  105OSM   H14A10671   6.881   4.799  10.981  0.5859 -2.3741 -1.7132
  105OSM   H14B10672   6.801   4.671  10.908  1.9552  0.0907  0.6043
  105OSM   H14C10673   6.731   4.745  11.055  1.4245  1.7910  1.6389
  105OSM    C1310674   6.633   4.966  10.963  0.7560  0.0747 -0.0741
  105OSM   H13A10675   6.706   5.023  11.018  2.1108 -1.6827  0.0449
  105OSM   H13B10676   6.556   4.926  11.028  0.5201  0.5277 -0.0725
  105OSM   H13C10677   6.582   5.037  10.900 -0.1530 -0.4610  0.0467
  105OSM    C1210678   6.585   4.783  10.819 -0.5867 -0.4212  0.1963
  105OSM   H12A10679   6.627   4.741  10.729  2.0644  0.3976  0.9813
  105OSM   H12B10680   6.520   4.862  10.784  0.0867  0.7551  1.5171
  105OSM    C1110681   6.491   4.684  10.888  0.0165  0.6379  0.2054
  105OSM   H11A10682   6.407   4.657  10.821  1.8271 -2.7109 -0.9105
  105OSM   H11B10683   6.456   4.731  10.983 -0.1707 -0.0164  0.4599
  105OSM      P10684   6.575   4.435  10.854 -0.2822  0.1607  0.6334
  105OSM    O1310685   6.670   4.334  10.909 -0.2413  0.1048 -0.1967
  105OSM    O1410686   6.434   4.394  10.826 -0.2552 -0.4804 -0.3466
  105OSM    O1110687   6.633   4.474  10.715  0.0579 -0.0323 -0.1892
  105OSM    O1210688   6.564   4.567  10.938 -0.6309 -0.0664 -0.1309
  105OSM    C1S10689   6.559   4.451  10.596 -0.0088 -0.1426  0.0643
  105OSM    H1S10690   6.483   4.532  10.599  1.7693  1.7949 -2.5751
  105OSM    H1T10691   6.508   4.353  10.605 -0.4210  0.2509  3.3682
  105OSM     NF10692   6.550   4.444  10.357  0.1224 -0.5834 -0.0927
  105OSM    HNF10693   6.540   4.350  10.325  2.3971 -0.8146 -0.2959
  105OSM    C2S10694   6.641   4.461  10.466 -0.7445  0.0544  0.4803
  105OSM    H2S10695   6.679   4.566  10.468 -1.1916  0.2303 -0.0699
  105OSM    C3S10696   6.767   4.367  10.468 -0.1533 -0.4669 -0.6059
  105OSM    H3S10697   6.741   4.259  10.463  0.1815 -0.4903 -3.4488
  105OSM     O310698   6.840   4.382  10.592 -0.0300  0.0421  0.8658
  105OSM    HO310699   6.788   4.449  10.638  0.2634  1.3066 -0.5966
  105OSM    C4S10700   6.853   4.396  10.351  0.4136 -1.2931  0.3722
  105OSM    H4S10701   6.876   4.503  10.350 -2.7372 -0.5191 -1.3206
  105OSM    C5S10702   6.909   4.318  10.257  0.2380 -0.0388  0.2805
  105OSM    H5S10703   6.898   4.208  10.258  1.5130 -0.1921 -0.3116
  105OSM    C6S10704   6.989   4.378  10.144  0.0370 -0.2178 -0.3044
  105OSM    H6S10705   7.096   4.348  10.134  0.7712  1.2874  2.0099
  105OSM    H6T10706   6.989   4.488  10.160  0.0577 -0.1870 -0.5185
  105OSM    C7S10707   6.939   4.324  10.007  0.4369  0.6016 -0.9659
  105OSM    H7S10708   6.835   4.360   9.987 -1.4124 -2.0961  2.6540
  105OSM    H7T10709   6.932   4.215   9.990 -0.6548  0.8475 -2.3180
  105OSM    C8S10710   7.041   4.373   9.899 -0.2217 -0.0100  0.1644
  105OSM    H8S10711   7.132   4.313   9.918  1.7655  2.9811  0.8288
  105OSM    H8T10712   7.071   4.479   9.912  0.7286 -0.4011  1.4320
  105OSM    C9S10713   6.986   4.351   9.758  0.3216  0.1830  0.2216
  105OSM    H9S10714   6.901   4.419   9.738  0.2311 -0.0589 -0.2261
  105OSM    H9T10715   6.949   4.247   9.745  2.1816 -0.8285  2.2877
  105OSM   C10S10716   7.086   4.377   9.656 -0.0484  0.5259 -0.4110
  105OSM   H10S10717   7.173   4.310   9.672  0.7939  1.9324  1.2234
  105OSM   H10T10718   7.132   4.478   9.645  2.1917 -0.0941  2.1514
  105OSM   C11S10719   7.023   4.338   9.516 -0.7103  0.1527 -0.0940
  105OSM   H11S10720   6.929   4.389   9.488  0.2899  1.9618 -0.3040
  105OSM   H11T10721   7.004   4.228   9.518 -0.4749  0.1151  0.4518
  105OSM   C12S10722   7.118   4.389   9.401  0.2717 -0.4790 -0.8452
  105OSM   H12S10723   7.215   4.345   9.434  0.4482 -0.2686 -1.0774
  105OSM   H12T10724   7.127   4.500   9.410 -0.3312 -0.5278  0.6641
  105OSM   C13S10725   7.084   4.325   9.264 -0.5889 -0.1977 -0.0432
  105OSM   H13S10726   6.977   4.328   9.233 -0.7740  0.4870  0.6273
  105OSM   H13T10727   7.109   4.219   9.286  0.5802 -0.0777 -0.7193
  105OSM   C14S10728   7.164   4.382   9.146 -0.5183 -0.0016  0.2875
  105OSM   H14S10729   7.270   4.365   9.171 -0.4785  0.7225  0.6589
  105OSM   H14T10730   7.135   4.490   9.144 -2.1774 -0.4036  1.0186
  105OSM   C15S10731   7.143   4.325   9.000 -0.1244 -0.7325  0.5684
  105OSM   H15S10732   7.202   4.396   8.937 -0.4232 -0.2573  0.8228
  105OSM   H15T10733   7.035   4.331   8.974 -0.2372 -1.1586  0.9282
  105OSM   C16S10734   7.193   4.177   8.991 -0.4703  0.5977 -0.5389
  105OSM   H16S10735   7.154   4.116   9.075  1.1246  0.7713  0.3666
  105OSM   H16T10736   7.301   4.183   9.017 -0.7538 -0.2511  0.9781
  105OSM   C17S10737   7.182   4.096   8.863 -0.2674 -0.6391  0.0392
  105OSM   H17S10738   7.077   4.080   8.833 -0.2788 -0.0441 -0.2646
  105OSM   H17T10739   7.231   3.997   8.875 -0.0206 -0.4463  0.6901
  105OSM   C18S10740   7.255   4.161   8.741 -0.4403 -0.0367 -0.3166
  105OSM   H18S10741   7.221   4.264   8.718  1.3083  0.4943 -0.6307
  105OSM   H18T10742   7.240   4.096   8.652  1.8103 -0.4552 -0.4542
  105OSM   H18U10743   7.363   4.158   8.767  0.1065 -0.5884 -2.4707
  105OSM    C1F10744   6.457   4.535  10.318 -0.4159  0.0049 -0.3233
  105OSM     OF10745   6.440   4.641  10.382 -0.2121  0.2715  0.2256
  105OSM    C2F10746   6.389   4.506  10.187 -0.2702 -0.5664  0.0901
  105OSM    H2F10747   6.382   4.397  10.166  0.3869 -0.6951  0.5388
  105OSM    H2G10748   6.453   4.552  10.108 -0.5216  0.0047  0.2127
  105OSM    C3F10749   6.250   4.581  10.173  0.2545  0.7895 -0.9445
  105OSM    H3F10750   6.263   4.692  10.179 -0.7045  0.8788 -0.1223
  105OSM    H3G10751   6.191   4.538  10.258  1.3375 -0.2044 -0.6813
  105OSM    C4F10752   6.180   4.546  10.046 -0.3294  0.1685 -0.1875
  105OSM    H4F10753   6.077   4.586  10.059 -0.6574 -0.4284 -0.8280
  105OSM    H4G10754   6.165   4.436  10.044 -0.7139  0.1847  0.8577
  105OSM    C5F10755   6.260   4.598   9.922  0.5232  0.1077  0.0081
  105OSM    H5F10756   6.355   4.540   9.922  1.1726  0.9353  3.8750
  105OSM    H5G10757   6.292   4.703   9.936 -0.7636  0.6028 -0.6220
  105OSM    C6F10758   6.177   4.583   9.789  0.3167 -0.4773  0.4160
  105OSM    H6F10759   6.069   4.609   9.783  0.5669  0.8436  1.1936
  105OSM    H6G10760   6.164   4.475   9.768 -1.2440  0.1334 -2.0538
  105OSM    C7F10761   6.265   4.624   9.663  0.1447  0.0456 -0.6019
  105OSM    H7F10762   6.373   4.620   9.687  0.2143 -1.2424 -1.0658
  105OSM    H7G10763   6.230   4.729   9.647 -1.9421 -0.4658  0.3500
  105OSM    C8F10764   6.246   4.536   9.541  0.2438  0.2322 -0.0251
  105OSM    H8F10765   6.138   4.521   9.518  0.5275  0.5661 -1.6885
  105OSM    H8G10766   6.280   4.432   9.559 -0.8593 -0.3886 -1.3493
  105OSM    C9F10767   6.291   4.595   9.412 -0.0105  0.0500  0.0103
  105OSM    H9F10768   6.249   4.696   9.398 -1.2554 -0.3788  0.5130
  105OSM   C10F10769   6.381   4.532   9.329 -0.9521 -0.1549  0.4692
  105OSM   H10F10770   6.419   4.596   9.248  0.1651 -1.1085  0.2161
  105OSM   C11F10771   6.457   4.396   9.338  0.2227  0.4192  0.0979
  105OSM   H11F10772   6.396   4.316   9.385  0.2116  1.3897  1.8185
  105OSM   H11G10773   6.552   4.407   9.396  1.6620 -0.0246 -2.0436
  105OSM   C12F10774   6.492   4.361   9.197  0.3529  0.2277 -0.0384
  105OSM   H12F10775   6.551   4.267   9.202  2.8906  1.7799  0.7982
  105OSM   H12G10776   6.564   4.434   9.154 -0.0729 -0.0582 -1.2836
  105OSM   C13F10777   6.373   4.355   9.101 -0.4659 -0.0879  0.0648
  105OSM   H13F10778   6.332   4.458   9.086 -1.4635 -0.4224  0.4024
  105OSM   H13G10779   6.289   4.299   9.147 -0.9298  0.0112 -0.6395
  105OSM   C14F10780   6.396   4.285   8.964 -0.1290 -0.5566  0.2879
  105OSM   H14F10781   6.303   4.250   8.914 -1.7935  1.1204  2.0761
  105OSM   H14G10782   6.468   4.203   8.982  0.8810 -0.6083 -3.1294
  105OSM   C15F10783   6.462   4.378   8.861  0.5247  0.2673  0.1802
  105OSM   H15F10784   6.557   4.411   8.908  0.6373 -0.9088  0.8127
  105OSM   H15G10785   6.417   4.477   8.836  5.8029  3.1710  0.6791
  105OSM   C16F10786   6.488   4.308   8.725  0.2658 -0.2273 -0.6778
  105OSM   H16F10787   6.532   4.206   8.733  0.7456 -0.1697 -2.2581
  105OSM   H16G10788   6.567   4.377   8.689 -0.1250  0.8183  0.4226
  105OSM   C17F10789   6.367   4.308   8.625 -0.8146  0.1401 -0.7404
  105OSM   H17F10790   6.280   4.261   8.675 -1.1396  1.5878  0.1298
  105OSM   H17G10791   6.390   4.249   8.534 -2.5321  0.3935 -1.3740
  105OSM   C18F10792   6.322   4.454   8.586 -0.4059 -0.2990  0.0139
  105OSM   H18F10793   6.280   4.498   8.679  2.5009 -2.5740  2.6529
  105OSM   H18G10794   6.234   4.460   8.519  0.1862  2.4422 -0.6331
  105OSM   H18H10795   6.416   4.507   8.558 -0.2178  0.6823  2.2539
  106OSM      N10796   3.041   0.309  10.500 -0.1068  0.0672  0.3623
  106OSM    C1510797   3.069   0.452  10.513  0.4178 -0.0370  0.1970
  106OSM   H15A10798   2.993   0.490  10.579 -1.1392 -1.4175 -0.7212
  106OSM   H15B10799   3.070   0.507  10.420  3.5443  0.6473  0.4970
  106OSM   H15C10800   3.162   0.485  10.557  1.0407  2.2965 -2.5350
  106OSM    C1410801   3.163   0.245  10.437  0.1695 -0.5151 -0.2615
  106OSM   H14A10802   3.186   0.295  10.344  1.7606  0.9716  0.8735
  106OSM   H14B10803   3.149   0.139  10.422 -1.0498 -0.4607  0.3872
  106OSM   H14C10804   3.246   0.272  10.500 -0.9891  0.6872  0.8168
  106OSM    C1310805   3.026   0.261  10.637  0.1671  0.0514 -1.0878
  106OSM   H13A10806   2.945   0.305  10.694  2.3140 -0.0954  2.4107
  106OSM   H13B10807   3.118   0.268  10.694  0.3571 -0.5775 -1.3169
  106OSM   H13C10808   3.003   0.156  10.636  1.0607 -0.1563 -2.1863
  106OSM    C1210809   2.915   0.283  10.418 -0.4162  0.2152  0.2995
  106OSM   H12A10810   2.932   0.313  10.315  1.8040 -1.1244  0.2014
  106OSM   H12B10811   2.836   0.346  10.455  0.8328  1.8901  0.1916
  106OSM    C1110812   2.868   0.137  10.396  0.6784 -0.0581 -0.0242
  106OSM   H11A10813   2.939   0.065  10.349 -0.1190 -1.1859  0.4426
  106OSM   H11B10814   2.783   0.139  10.326 -0.2845 -1.4796  1.0318
  106OSM      P10815   2.783  -0.059  10.540  0.2434 -0.0657  0.0908
  106OSM    O1310816   2.917  -0.129  10.549  0.5341  0.1305 -0.3439
  106OSM    O1410817   2.686  -0.070  10.650  0.1443  0.2224 -0.2221
  106OSM    O1110818   2.714  -0.096  10.402 -0.8142  0.6549  0.2716
  106OSM    O1210819   2.812   0.092  10.519 -0.4154 -0.2932  0.4960
  106OSM    C1S10820   2.574  -0.058  10.367  0.0355 -0.7434 -0.3842
  106OSM    H1S10821   2.557   0.051  10.381  0.5619 -0.5418 -1.2654
  106OSM    H1T10822   2.504  -0.110  10.436  0.7525  0.1377  1.0584
  106OSM     NF10823   2.411  -0.009  10.181 -0.1132  0.3623  0.1110
  106OSM    HNF10824   2.332  -0.070  10.188 -0.2026  0.5507  0.8943
  106OSM    C2S10825   2.533  -0.085  10.219 -0.3735 -0.5764  0.2808
  106OSM    H2S10826   2.606  -0.049  10.144 -2.2441 -1.3175 -1.9926
  106OSM    C3S10827   2.527  -0.228  10.181  0.8565  0.4326 -0.0612
  106OSM    H3S10828   2.442  -0.279  10.231  0.1334  1.4074 -0.2743
  106OSM     O310829   2.651  -0.288  10.216  0.2703 -0.4728  0.4409
  106OSM    HO310830   2.685  -0.235  10.288  1.0710 -0.8175  0.3271
  106OSM    C4S10831   2.508  -0.232  10.032  0.2119 -0.3059 -0.4488
  106OSM    H4S10832   2.602  -0.213   9.978  1.4181 -3.9172  0.1345
  106OSM    C5S10833   2.392  -0.263   9.968 -0.0285 -0.2772 -0.3040
  106OSM    H5S10834   2.305  -0.286  10.031  0.6052  0.4955  0.8850
  106OSM    C6S10835   2.357  -0.264   9.823  0.0143  0.1843 -0.0723
  106OSM    H6S10836   2.259  -0.316   9.814  0.1087 -0.7146  2.9358
  106OSM    H6T10837   2.432  -0.329   9.773  0.1918 -0.1201  0.5775
  106OSM    C7S10838   2.340  -0.129   9.761 -0.4289 -0.2182 -0.0927
  106OSM    H7S10839   2.433  -0.070   9.777 -0.3785 -0.3506  0.0960
  106OSM    H7T10840   2.260  -0.082   9.822  0.5968  0.0841  1.0500
  106OSM    C8S10841   2.296  -0.130   9.608  0.1074 -0.4801 -0.4369
  106OSM    H8S10842   2.205  -0.193   9.599 -1.4528  1.6616 -0.5705
  106OSM    H8T10843   2.374  -0.167   9.539  0.4377  1.2950 -1.0638
  106OSM    C9S10844   2.264   0.011   9.565  1.1726  0.1692  0.3391
  106OSM    H9S10845   2.358   0.068   9.582 -0.2471  1.9556  2.8606
  106OSM    H9T10846   2.181   0.039   9.632 -1.1250  0.3421 -2.3898
  106OSM   C10S10847   2.212   0.053   9.425 -0.5514 -0.4901  0.2040
  106OSM   H10S10848   2.305   0.047   9.365 -0.6062 -1.6331  0.2221
  106OSM   H10T10849   2.189   0.162   9.436  0.1129 -0.5305  2.8144
  106OSM   C11S10850   2.096  -0.028   9.373 -0.6709 -0.1435  0.2880
  106OSM   H11S10851   2.024  -0.048   9.455  1.4838  0.9424  2.5733
  106OSM   H11T10852   2.139  -0.127   9.345 -0.6913 -1.0591  3.1258
  106OSM   C12S10853   2.020   0.036   9.260 -0.0966 -0.1618  0.6358
  106OSM   H12S10854   2.084   0.046   9.170  0.2362 -0.1966  0.8662
  106OSM   H12T10855   1.992   0.141   9.283  2.0034  0.8428 -1.0594
  106OSM   C13S10856   1.895  -0.049   9.224 -0.5110 -0.1404 -0.3589
  106OSM   H13S10857   1.823  -0.057   9.308  0.4354 -0.7069  0.4220
  106OSM   H13T10858   1.931  -0.154   9.213  0.7379  0.0957  1.0717
  106OSM   C14S10859   1.824  -0.001   9.098  0.0544  0.0852  1.1455
  106OSM   H14S10860   1.773   0.095   9.124 -0.6417 -0.2452  1.0386
  106OSM   H14T10861   1.733  -0.059   9.072 -0.6221  1.7060 -0.3687
  106OSM   C15S10862   1.915   0.004   8.972 -0.3103 -0.9215 -0.2354
  106OSM   H15S10863   2.024  -0.003   8.993 -0.1867  0.4347 -0.3255
  106OSM   H15T10864   1.898   0.104   8.926  1.2078 -0.0075  1.0862
  106OSM   C16S10865   1.882  -0.107   8.869 -0.0218  0.4750  0.8484
  106OSM   H16S10866   1.771  -0.122   8.867  0.2563 -2.1300 -1.2064
  106OSM   H16T10867   1.924  -0.208   8.891  0.0099  0.1961 -0.4064
  106OSM   C17S10868   1.937  -0.069   8.729  0.4014  0.4152 -0.0374
  106OSM   H17S10869   2.046  -0.092   8.726  0.3168  0.1029 -1.1809
  106OSM   H17T10870   1.927   0.041   8.718  3.2387  0.6937 -0.4950
  106OSM   C18S10871   1.869  -0.150   8.618 -0.1615  0.1996 -0.0195
  106OSM   H18S10872   1.879  -0.091   8.524  0.0129  0.3888  0.1161
  106OSM   H18T10873   1.761  -0.171   8.632 -0.2881  1.5707  1.2700
  106OSM   H18U10874   1.918  -0.248   8.602 -0.9424  0.1473 -2.5362
  106OSM    C1F10875   2.403   0.120  10.172  0.0550 -0.0211  0.0173
  106OSM     OF10876   2.505   0.192  10.182 -0.4360 -0.7733 -0.5355
  106OSM    C2F10877   2.266   0.182  10.148  0.3811  0.4134 -0.2520
  106OSM    H2F10878   2.221   0.175  10.250 -0.2577  0.3824 -0.5305
  106OSM    H2G10879   2.211   0.109  10.084 -0.0878  0.1867  0.3940
  106OSM    C3F10880   2.262   0.324  10.109 -0.0179 -0.4437 -0.4906
  106OSM    H3F10881   2.325   0.378  10.183  2.5926  0.7069 -3.2858
  106OSM    H3G10882   2.156   0.355  10.112 -0.1032 -0.8381  1.1305
  106OSM    C4F10883   2.323   0.359   9.968 -0.0942 -0.5974 -0.3432
  106OSM    H4F10884   2.427   0.324   9.955  0.5009  1.0260 -0.1468
  106OSM    H4G10885   2.324   0.464   9.933 -1.0627 -0.2720  0.5367
  106OSM    C5F10886   2.252   0.274   9.858 -0.1729  0.7651  0.1700
  106OSM    H5F10887   2.269   0.165   9.874 -0.0549  0.5074 -1.5402
  106OSM    H5G10888   2.316   0.287   9.768  0.9927  1.1802  1.0417
  106OSM    C6F10889   2.111   0.315   9.831  0.1372 -0.5607  0.1749
  106OSM    H6F10890   2.105   0.426   9.831 -1.4971 -0.6193 -0.3413
  106OSM    H6G10891   2.044   0.285   9.914 -0.9220 -1.2300 -0.8881
  106OSM    C7F10892   2.047   0.262   9.701 -1.1230  0.5471  0.2450
  106OSM    H7F10893   2.025   0.154   9.714  0.6081  0.2200  0.6663
  106OSM    H7G10894   2.118   0.276   9.617 -1.4329 -1.9534 -0.5191
  106OSM    C8F10895   1.916   0.323   9.666  0.1056  0.1030  0.5750
  106OSM    H8F10896   1.930   0.433   9.673 -1.4575  0.5393 -1.8204
  106OSM    H8G10897   1.823   0.297   9.722 -1.0147  0.5876 -0.9817
  106OSM    C9F10898   1.882   0.295   9.517 -0.0423 -0.1860 -1.2064
  106OSM    H9F10899   1.823   0.205   9.495 -0.3966 -0.2918  0.1155
  106OSM   C10F10900   1.905   0.375   9.415  0.1118  1.2251  0.3720
  106OSM   H10F10901   1.888   0.338   9.313  0.7530  0.1963  0.6197
  106OSM   C11F10902   1.973   0.518   9.420  0.1450  0.1823 -0.1274
  106OSM   H11F10903   2.020   0.550   9.516  3.3001  0.7574 -1.7371
  106OSM   H11G10904   1.898   0.598   9.403  1.5497  1.5096 -0.2689
  106OSM   C12F10905   2.088   0.523   9.312  0.6227 -0.8127  0.5558
  106OSM   H12F10906   2.170   0.453   9.336  1.8207  0.2237 -0.3512
  106OSM   H12G10907   2.136   0.624   9.316  0.0583 -0.5524  4.7546
  106OSM   C13F10908   2.028   0.502   9.168 -0.5769  0.4768 -0.2932
  106OSM   H13F10909   1.927   0.549   9.164 -2.0258 -2.4396 -1.0453
  106OSM   H13G10910   1.995   0.396   9.161  0.3095  0.2414 -0.9639
  106OSM   C14F10911   2.126   0.541   9.061 -0.9305  0.0786  0.6093
  106OSM   H14F10912   2.213   0.473   9.067 -1.1601 -0.1487  1.4300
  106OSM   H14G10913   2.171   0.641   9.078 -1.5862  0.6208 -0.7051
  106OSM   C15F10914   2.051   0.537   8.926 -0.0532  0.2293 -0.1822
  106OSM   H15F10915   1.964   0.606   8.929  0.0836  0.3826  1.6584
  106OSM   H15G10916   2.010   0.435   8.913  0.5054 -0.3787  2.2567
  106OSM   C16F10917   2.128   0.567   8.799  0.8139 -0.8421 -0.4254
  106OSM   H16F10918   2.062   0.537   8.714  0.8501 -1.1040 -0.3630
  106OSM   H16G10919   2.220   0.505   8.789  1.6549  0.3485 -0.2912
  106OSM   C17F10920   2.170   0.703   8.786 -0.5690  0.1193 -0.4519
  106OSM   H17F10921   2.250   0.699   8.710 -0.8104  0.8415 -0.7593
  106OSM   H17G10922   2.213   0.747   8.879 -0.8747  0.4951 -0.4871
  106OSM   C18F10923   2.059   0.798   8.728  0.4109  0.2096  0.2789
  106OSM   H18F10924   2.101   0.898   8.704 -1.5689  0.9558 -0.2635
  106OSM   H18G10925   1.984   0.826   8.805  0.9926 -1.9735  1.7069
  106OSM   H18H10926   2.001   0.753   8.645  0.0302 -1.5641  1.4579
  107OSM      N10927   4.745   5.634  10.948  0.5416  0.1294  0.4493
  107OSM    C1510928   4.858   5.702  10.878 -0.3393 -0.0911  0.3712
  107OSM   H15A10929   4.891   5.788  10.933  0.7250 -0.9996  1.1841
  107OSM   H15B10930   4.822   5.732  10.780 -0.3429 -3.4990 -0.8061
  107OSM   H15C10931   4.944   5.639  10.861 -0.5784  0.2390 -2.7309
  107OSM    C1410932   4.800   5.593  11.078 -0.6921  0.2074  0.8000
  107OSM   H14A10933   4.831   5.683  11.129 -0.9497 -0.0292  1.3830
  107OSM   H14B10934   4.888   5.532  11.064 -0.4572  0.9018 -1.0201
  107OSM   H14C10935   4.721   5.545  11.132  0.2786 -0.8691  1.3121
  107OSM    C1310936   4.641   5.740  10.971 -0.2767 -0.1686  0.6331
  107OSM   H13A10937   4.572   5.708  11.048 -0.5759  1.3131  1.0109
  107OSM   H13B10938   4.591   5.754  10.877  2.3152  2.0615 -0.5601
  107OSM   H13C10939   4.676   5.839  10.997 -0.7515 -0.0147  0.6864
  107OSM    C1210940   4.685   5.516  10.870  0.6272  0.0482 -0.2187
  107OSM   H12A10941   4.610   5.469  10.931 -0.0392 -1.8345 -2.3389
  107OSM   H12B10942   4.766   5.446  10.855  1.6203  0.8482  1.2336
  107OSM    C1110943   4.630   5.546  10.726 -0.0945  0.1542 -0.6537
  107OSM   H11A10944   4.612   5.444  10.685  0.5780 -1.2003  2.2131
  107OSM   H11B10945   4.706   5.605  10.669 -0.5830 -0.0636 -1.5593
  107OSM      P10946   4.373   5.585  10.771 -0.1805  0.0406  0.2159
  107OSM    O1310947   4.392   5.460  10.843 -0.2445 -0.6481  0.3407
  107OSM    O1410948   4.301   5.689  10.843  0.7211  0.1035  0.4291
  107OSM    O1110949   4.296   5.555  10.629 -0.7361 -0.2062 -0.2154
  107OSM    O1210950   4.516   5.638  10.729 -0.0061 -0.0676 -0.3708
  107OSM    C1S10951   4.328   5.462  10.530  0.1880 -0.1242  0.6369
  107OSM    H1S10952   4.256   5.377  10.532  2.2707 -2.0547 -0.3522
  107OSM    H1T10953   4.429   5.416  10.532  0.2966 -0.0081 -0.7141
  107OSM     NF10954   4.342   5.412  10.294  0.6011 -0.0604  0.2348
  107OSM    HNF10955   4.437   5.387  10.274  0.6607 -0.0934  0.5543
  107OSM    C2S10956   4.325   5.519  10.379 -1.1801 -0.3584 -0.4757
  107OSM    H2S10957   4.228   5.565  10.350 -1.4321 -1.1502 -0.9328
  107OSM    C3S10958   4.440   5.627  10.370 -0.3214 -0.6700  0.0826
  107OSM    H3S10959   4.534   5.587  10.414  1.5708  2.2082 -1.0853
  107OSM     O310960   4.424   5.743  10.444 -0.0517  0.0347  0.2402
  107OSM    HO310961   4.357   5.715  10.507 -2.3019  1.4690 -1.3483
  107OSM    C4S10962   4.454   5.663  10.224 -0.5853  0.7013  0.2529
  107OSM    H4S10963   4.540   5.619  10.172 -0.8039  0.9351 -0.3164
  107OSM    C5S10964   4.367   5.738  10.151  0.4823  0.4859 -0.4841
  107OSM    H5S10965   4.279   5.781  10.200  1.5044  0.7717  1.1667
  107OSM    C6S10966   4.405   5.773  10.009  0.7659 -0.1963 -0.2923
  107OSM    H6S10967   4.441   5.878  10.014 -1.1537  0.5331 -0.6278
  107OSM    H6T10968   4.310   5.772   9.951  0.3037 -1.1932  0.4567
  107OSM    C7S10969   4.519   5.699   9.922  0.2812  0.1970  0.3037
  107OSM    H7S10970   4.476   5.597   9.908 -0.5112  0.7020 -1.1647
  107OSM    H7T10971   4.607   5.701   9.990  0.7300  0.4167 -0.2762
  107OSM    C8S10972   4.549   5.766   9.782  0.4830  0.0677 -0.5536
  107OSM    H8S10973   4.630   5.711   9.730  0.6760 -1.1510  0.9865
  107OSM    H8T10974   4.575   5.874   9.788  1.9516 -0.3356  0.9862
  107OSM    C9S10975   4.428   5.759   9.686  0.1027 -0.2345 -0.2706
  107OSM    H9S10976   4.337   5.802   9.733  0.3154  2.7052 -2.2867
  107OSM    H9T10977   4.417   5.649   9.674  0.3870 -0.1972 -0.9343
  107OSM   C10S10978   4.463   5.827   9.546 -0.1744 -0.1707  0.0000
  107OSM   H10S10979   4.572   5.820   9.528 -0.0991  0.7130  0.0770
  107OSM   H10T10980   4.466   5.936   9.565  1.6983 -0.0812 -0.5761
  107OSM   C11S10981   4.365   5.791   9.430 -0.1509  0.2657 -0.1019
  107OSM   H11S10982   4.259   5.801   9.461 -0.5331 -3.0262 -0.0096
  107OSM   H11T10983   4.383   5.684   9.405 -1.2088  0.2792 -1.0051
  107OSM   C12S10984   4.387   5.866   9.301 -0.2504 -0.5996  0.3627
  107OSM   H12S10985   4.390   5.976   9.317  0.8804 -0.7891  1.5799
  107OSM   H12T10986   4.296   5.858   9.237  0.0077  0.3204 -0.1348
  107OSM   C13S10987   4.521   5.838   9.237  0.3625  0.0125 -0.0342
  107OSM   H13S10988   4.506   5.732   9.209  2.9195 -0.6852  0.9453
  107OSM   H13T10989   4.606   5.838   9.309  0.3036 -2.0545  0.0883
  107OSM   C14S10990   4.558   5.912   9.109 -0.1262  0.1977 -0.5747
  107OSM   H14S10991   4.619   5.845   9.044 -0.6410 -0.1105 -0.7461
  107OSM   H14T10992   4.622   6.002   9.119  0.5903 -0.4108  0.7324
  107OSM   C15S10993   4.427   5.937   9.036  0.1899 -0.1114 -0.2988
  107OSM   H15S10994   4.383   6.022   9.091 -0.8015 -0.5214 -0.4405
  107OSM   H15T10995   4.368   5.843   9.030 -0.3322  0.1847  0.1526
  107OSM   C16S10996   4.443   5.996   8.892 -0.1393  0.7137  0.1666
  107OSM   H16S10997   4.522   6.073   8.881 -1.6482  2.1641 -0.8865
  107OSM   H16T10998   4.345   6.045   8.875 -0.3445  0.0169 -0.7269
  107OSM   C17S10999   4.465   5.886   8.784  0.9947 -0.2506 -0.3561
  107OSM   H17S11000   4.390   5.805   8.796 -0.3648  1.1720  1.0034
  107OSM   H17T11001   4.566   5.839   8.796  1.8326  1.8216  1.3978
  107OSM   C18S11002   4.468   5.945   8.643  0.6604  0.1019  0.2108
  107OSM   H18S11003   4.384   6.015   8.623 -0.4976 -1.4460 -0.5379
  107OSM   H18T11004   4.463   5.868   8.563 -0.1811 -1.9801  2.1514
  107OSM   H18U11005   4.561   6.002   8.627  0.5038 -0.3865 -2.8958
  107OSM    C1F11006   4.250   5.314  10.284  0.2665  0.5945  0.5375
  107OSM     OF11007   4.134   5.325  10.320  0.1151  0.4932  0.3530
  107OSM    C2F11008   4.304   5.181  10.229  0.2480 -0.3223  0.7246
  107OSM    H2F11009   4.297   5.103  10.308 -1.2436 -1.2374 -0.2739
  107OSM    H2G11010   4.405   5.194  10.184 -0.6665  1.2034 -1.0177
  107OSM    C3F11011   4.231   5.142  10.090  0.0572  0.0858 -0.2737
  107OSM    H3F11012   4.120   5.144  10.086 -0.1058 -2.3480  1.2360
  107OSM    H3G11013   4.267   5.044  10.053 -3.4727 -1.1714 -0.7459
  107OSM    C4F11014   4.265   5.247   9.980  0.0009  0.3413 -0.6233
  107OSM    H4F11015   4.375   5.262   9.984  0.1149 -0.2263 -1.2620
  107OSM    H4G11016   4.213   5.341  10.005 -1.4350 -0.0565 -1.9008
  107OSM    C5F11017   4.213   5.225   9.840 -0.0091 -0.0450 -0.1309
  107OSM    H5F11018   4.105   5.251   9.850  0.0428  1.0218 -2.0000
  107OSM    H5G11019   4.227   5.123   9.797 -0.8203  0.5201 -1.7982
  107OSM    C6F11020   4.271   5.329   9.748  0.0637  0.0773 -0.7781
  107OSM    H6F11021   4.382   5.327   9.749  0.0685 -0.2188 -1.3521
  107OSM    H6G11022   4.254   5.430   9.790 -2.7856 -0.1485 -1.1818
  107OSM    C7F11023   4.213   5.316   9.608 -0.6170  0.3317  0.1306
  107OSM    H7F11024   4.219   5.417   9.561  1.9618  0.0578 -0.2550
  107OSM    H7G11025   4.103   5.297   9.610 -0.8252  1.4551 -0.0424
  107OSM    C8F11026   4.293   5.223   9.523  0.3213  0.0858 -1.1176
  107OSM    H8F11027   4.228   5.191   9.438  0.9009  0.0249 -1.5394
  107OSM    H8G11028   4.308   5.129   9.580  0.0698  1.5292  1.4683
  107OSM    C9F11029   4.424   5.282   9.467  0.1474  0.2645 -0.6259
  107OSM    H9F11030   4.515   5.263   9.526 -1.7636 -3.2040  1.5565
  107OSM   C10F11031   4.436   5.368   9.360  0.1125  0.7703 -0.3329
  107OSM   H10F11032   4.536   5.409   9.339  0.7832 -1.1747 -1.1662
  107OSM   C11F11033   4.326   5.422   9.283 -0.1776 -0.4257 -0.2250
  107OSM   H11F11034   4.331   5.533   9.273 -0.1201 -0.6029 -2.6599
  107OSM   H11G11035   4.234   5.411   9.344 -0.0055  0.9964  0.3554
  107OSM   C12F11036   4.292   5.374   9.142 -0.2091  0.2041 -0.3354
  107OSM   H12F11037   4.202   5.428   9.104 -0.4345  0.0435 -0.0377
  107OSM   H12G11038   4.271   5.265   9.144  1.8910 -0.2278  0.4764
  107OSM   C13F11039   4.404   5.403   9.045  0.8332 -0.0442 -0.3670
  107OSM   H13F11040   4.498   5.357   9.083 -0.9192 -1.7493  2.2334
  107OSM   H13G11041   4.410   5.514   9.042  0.8754 -0.0348 -0.0004
  107OSM   C14F11042   4.380   5.354   8.903  0.1740 -0.6499  0.8170
  107OSM   H14F11043   4.357   5.245   8.899 -0.0137 -0.5956 -3.1802
  107OSM   H14G11044   4.474   5.363   8.844 -0.3398 -0.2758  0.0402
  107OSM   C15F11045   4.260   5.427   8.832  0.4053  0.6133 -0.4385
  107OSM   H15F11046   4.270   5.535   8.856  3.3058  0.2146  0.6524
  107OSM   H15G11047   4.161   5.399   8.874 -0.0507 -0.4166 -2.1263
  107OSM   C16F11048   4.267   5.398   8.681 -0.0663 -0.2945  0.1191
  107OSM   H16F11049   4.276   5.290   8.659 -0.7795 -0.3176 -0.0746
  107OSM   H16G11050   4.358   5.449   8.643 -0.5757  1.6420  1.3665
  107OSM   C17F11051   4.142   5.441   8.610 -1.2358  0.0733 -0.1806
  107OSM   H17F11052   4.117   5.547   8.635  1.9940  1.1745 -1.1835
  107OSM   H17G11053   4.057   5.378   8.644 -2.0450  1.8791  1.3371
  107OSM   C18F11054   4.170   5.434   8.460 -0.5923 -0.4937  0.2931
  107OSM   H18F11055   4.070   5.448   8.412 -0.0550  2.0429 -0.2101
  107OSM   H18G11056   4.224   5.343   8.427  3.0188  1.6265 -0.1736
  107OSM   H18H11057   4.230   5.518   8.420 -0.0437  0.2339  2.5280
  108OSM      N11058   6.614   3.760  10.688  0.9419  0.4277  0.0526
  108OSM    C1511059   6.512   3.748  10.577 -0.3991 -0.1764 -0.0758
  108OSM   H15A11060   6.462   3.844  10.577  1.1741  0.6949 -1.3244
  108OSM   H15B11061   6.440   3.668  10.587 -0.6409 -0.0532 -0.7819
  108OSM   H15C11062   6.562   3.728  10.484  2.4578 -1.7000  1.6426
  108OSM    C1411063   6.710   3.862  10.660  0.1555 -0.0422 -0.1351
  108OSM   H14A11064   6.773   3.887  10.744 -0.8129  2.3866 -0.0441
  108OSM   H14B11065   6.651   3.951  10.645  0.0500  0.1872  1.5224
  108OSM   H14C11066   6.760   3.853  10.565  0.0350  0.3054 -0.2307
  108OSM    C1311067   6.525   3.782  10.813 -0.0026  0.1960  0.5236
  108OSM   H13A11068   6.466   3.693  10.829  0.0364  0.1674  0.5112
  108OSM   H13B11069   6.457   3.866  10.810  0.3879  0.5086  0.1780
  108OSM   H13C11070   6.582   3.793  10.904  0.4464 -0.7829  0.3788
  108OSM    C1211071   6.684   3.621  10.705 -0.2443  0.1324  0.5877
  108OSM   H12A11072   6.738   3.602  10.613  0.4199  0.8289  0.8177
  108OSM   H12B11073   6.610   3.542  10.708 -0.7693  0.5662 -0.5888
  108OSM    C1111074   6.789   3.613  10.823  0.3826  0.1854 -0.2185
  108OSM   H11A11075   6.838   3.515  10.840 -1.4404 -0.5362  1.2706
  108OSM   H11B11076   6.744   3.634  10.923  0.6414 -0.4383  0.0328
  108OSM      P11077   7.022   3.679  10.718 -0.3880  0.2975  0.2641
  108OSM    O1311078   7.091   3.809  10.689 -0.1386 -0.4048  0.2653
  108OSM    O1411079   7.098   3.576  10.789 -0.2572  0.3523  0.2151
  108OSM    O1111080   6.972   3.621  10.579 -0.2769 -0.4687 -0.4630
  108OSM    O1211081   6.890   3.710  10.802  0.4389 -0.6362 -0.0628
  108OSM    C1S11082   7.063   3.542  10.493 -0.3852  0.1495  0.1265
  108OSM    H1S11083   7.094   3.453  10.552 -0.5614 -0.0300 -0.0544
  108OSM    H1T11084   7.152   3.602  10.465 -0.6291  0.2299 -0.4769
  108OSM     NF11085   7.091   3.413  10.288 -0.3574 -0.1472 -0.0887
  108OSM    HNF11086   7.133   3.474  10.221  2.5461 -1.9247 -0.0584
  108OSM    C2S11087   6.990   3.480  10.369 -0.0550 -0.7523 -0.1076
  108OSM    H2S11088   6.909   3.409  10.397 -1.6330  0.0713 -2.3084
  108OSM    C3S11089   6.913   3.594  10.291  0.7307 -0.2024 -0.0714
  108OSM    H3S11090   6.982   3.673  10.253  0.2422  0.4044  0.2765
  108OSM     O311091   6.816   3.671  10.370 -0.6943  0.5401  0.3527
  108OSM    HO311092   6.835   3.635  10.457 -0.4833 -1.3262 -0.4297
  108OSM    C4S11093   6.835   3.536  10.174 -0.6729 -0.5143 -0.7609
  108OSM    H4S11094   6.750   3.469  10.193  0.0031 -0.3928  3.9553
  108OSM    C5S11095   6.852   3.579  10.048 -0.4345  0.6751 -0.2385
  108OSM    H5S11096   6.926   3.656  10.024 -0.4683  0.5450 -0.7773
  108OSM    C6S11097   6.771   3.525   9.935 -0.0494 -0.2665 -0.7757
  108OSM    H6S11098   6.704   3.600   9.889 -0.3036 -1.6298 -2.7483
  108OSM    H6T11099   6.718   3.433   9.968 -0.4973  0.1575 -0.2951
  108OSM    C7S11100   6.861   3.477   9.820  0.3841 -0.1259 -0.2432
  108OSM    H7S11101   6.942   3.414   9.862  1.1327  0.8874 -0.1327
  108OSM    H7T11102   6.911   3.568   9.783 -0.7834  0.6639  0.0704
  108OSM    C8S11103   6.793   3.409   9.703  0.5260  0.6358 -0.4073
  108OSM    H8S11104   6.709   3.474   9.671 -0.5834 -0.5338  0.0749
  108OSM    H8T11105   6.736   3.322   9.741 -1.4425  2.1167  0.2084
  108OSM    C9S11106   6.884   3.376   9.585  0.2808 -0.5040 -0.0410
  108OSM    H9S11107   6.958   3.302   9.621  1.1456  1.0806  1.5783
  108OSM    H9T11108   6.933   3.471   9.553 -2.6283  1.8816  1.9757
  108OSM   C10S11109   6.800   3.325   9.470  0.0796 -0.1124  0.4732
  108OSM   H10S11110   6.714   3.393   9.449  0.3516 -0.0612 -0.5031
  108OSM   H10T11111   6.767   3.225   9.505 -0.1394  0.0458  0.7290
  108OSM   C11S11112   6.865   3.311   9.333  0.1202 -0.0727 -0.3637
  108OSM   H11S11113   6.956   3.249   9.347  0.4155  0.7594  1.9070
  108OSM   H11T11114   6.895   3.411   9.297 -2.7338  0.8771 -0.3418
  108OSM   C12S11115   6.763   3.258   9.228  0.7571 -0.8343  0.6626
  108OSM   H12S11116   6.685   3.337   9.229  2.0466  0.5086 -0.8289
  108OSM   H12T11117   6.708   3.161   9.233 -1.6892  0.2926 -1.8309
  108OSM   C13S11118   6.833   3.258   9.095 -0.2485  0.4570 -0.1256
  108OSM   H13S11119   6.916   3.185   9.101 -1.7186 -1.3632 -0.9454
  108OSM   H13T11120   6.889   3.352   9.076 -0.5530  0.6294 -0.1763
  108OSM   C14S11121   6.747   3.233   8.975  0.2917 -0.6589 -0.4868
  108OSM   H14S11122   6.689   3.325   8.951  0.8818 -0.5373 -1.5157
  108OSM   H14T11123   6.667   3.162   9.007 -0.0789  0.2489  0.6502
  108OSM   C15S11124   6.821   3.191   8.850  0.3512  0.3619  0.4321
  108OSM   H15S11125   6.854   3.088   8.875 -2.0614 -0.3019  1.0723
  108OSM   H15T11126   6.909   3.259   8.839 -0.5468  1.5463  0.4195
  108OSM   C16S11127   6.739   3.179   8.722  0.4920 -0.7787  0.2797
  108OSM   H16S11128   6.679   3.267   8.692 -0.0498 -1.7477 -1.5907
  108OSM   H16T11129   6.662   3.099   8.731 -1.0319  0.4655 -1.1118
  108OSM   C17S11130   6.827   3.152   8.599  0.3958  0.6055 -0.0011
  108OSM   H17S11131   6.869   3.057   8.638 -2.0519 -1.6055 -2.3747
  108OSM   H17T11132   6.905   3.231   8.589 -1.0323  2.1579  0.5367
  108OSM   C18S11133   6.761   3.138   8.464 -0.1224  0.5207  0.1147
  108OSM   H18S11134   6.670   3.075   8.469  0.9909 -1.2970 -1.3333
  108OSM   H18T11135   6.834   3.092   8.394  0.8108  0.4101  1.1397
  108OSM   H18U11136   6.744   3.242   8.428 -0.5727  0.3159 -0.2807
  108OSM    C1F11137   7.150   3.298  10.316 -0.5294  0.5745 -0.1314
  108OSM     OF11138   7.109   3.229  10.414 -0.1352 -0.1974  0.8420
  108OSM    C2F11139   7.273   3.254  10.233 -0.1352  0.9226 -0.2573
  108OSM    H2F11140   7.339   3.205  10.308 -0.2581  0.1773 -0.6301
  108OSM    H2G11141   7.326   3.347  10.205  0.5201  1.2285  1.8187
  108OSM    C3F11142   7.237   3.164  10.114 -0.6175 -0.3651 -0.1579
  108OSM    H3F11143   7.170   3.083  10.150  1.0713 -1.6821  0.1984
  108OSM    H3G11144   7.331   3.130  10.066  0.4553  1.0724  0.8338
  108OSM    C4F11145   7.163   3.243  10.006  0.1997  0.1282  0.4923
  108OSM    H4F11146   7.225   3.331   9.981  0.0684  0.4514  1.2616
  108OSM    H4G11147   7.066   3.289  10.034 -0.7447 -0.9498 -0.8845
  108OSM    C5F11148   7.144   3.151   9.875 -0.0719 -0.2942 -0.6522
  108OSM    H5F11149   7.070   3.203   9.810 -0.0066  0.2554 -0.2972
  108OSM    H5G11150   7.093   3.058   9.907 -0.6120  0.2335  0.0546
  108OSM    C6F11151   7.269   3.116   9.798 -0.4896  0.7223 -0.0885
  108OSM    H6F11152   7.325   3.036   9.851 -1.6278  0.4092  0.6866
  108OSM    H6G11153   7.339   3.197   9.770  0.1152  1.5206  3.3184
  108OSM    C7F11154   7.240   3.046   9.669 -0.1751 -0.6554  0.3788
  108OSM    H7F11155   7.187   3.110   9.596 -0.3109  0.0745  1.1109
  108OSM    H7G11156   7.175   2.958   9.688 -0.4616 -0.3474  0.8399
  108OSM    C8F11157   7.372   3.017   9.598 -0.8311 -0.3339 -0.0009
  108OSM    H8F11158   7.432   2.959   9.671  0.1331  0.4367 -0.1746
  108OSM    H8G11159   7.408   3.119   9.575 -0.7282 -0.3394  0.1332
  108OSM    C9F11160   7.345   2.931   9.480  0.3783 -0.7142  0.4944
  108OSM    H9F11161   7.352   2.824   9.502 -1.1271 -0.6747  1.2958
  108OSM   C10F11162   7.326   2.972   9.347 -0.4180  0.1991 -0.0966
  108OSM   H10F11163   7.303   2.893   9.274 -4.2676  0.7045  0.4047
  108OSM   C11F11164   7.331   3.111   9.291  0.1633  0.0418 -0.4074
  108OSM   H11F11165   7.421   3.133   9.229  1.3142 -1.7861  0.5169
  108OSM   H11G11166   7.322   3.195   9.364  0.5710  1.3489 -1.7963
  108OSM   C12F11167   7.211   3.116   9.191 -0.1887  0.5995 -0.5279
  108OSM   H12F11168   7.207   3.219   9.149 -2.3060 -0.0021 -1.9713
  108OSM   H12G11169   7.113   3.095   9.237 -0.7844  2.2789 -0.9613
  108OSM   C13F11170   7.251   3.029   9.066  0.0499 -0.5779 -0.1458
  108OSM   H13F11171   7.209   2.927   9.078 -0.1829 -0.5567 -0.7510
  108OSM   H13G11172   7.362   3.027   9.062  0.0997  1.7213 -3.1168
  108OSM   C14F11173   7.191   3.090   8.935  0.3468  1.0174  0.0446
  108OSM   H14F11174   7.222   3.196   8.922 -0.7826  1.1331 -2.1633
  108OSM   H14G11175   7.080   3.087   8.943 -0.2338  2.4867 -4.3786
  108OSM   C15F11176   7.224   3.007   8.811  0.2377  0.6194 -0.2759
  108OSM   H15F11177   7.168   2.912   8.821  0.3528  0.5418 -0.3760
  108OSM   H15G11178   7.332   2.981   8.811 -0.3290 -1.9682 -0.0746
  108OSM   C16F11179   7.208   3.085   8.679 -0.1637  0.4004 -0.8316
  108OSM   H16F11180   7.270   3.176   8.686 -0.3755  0.4499  0.9671
  108OSM   H16G11181   7.108   3.130   8.664  0.4092  2.0704  0.1324
  108OSM   C17F11182   7.250   3.010   8.554  0.3125 -0.3404 -0.1676
  108OSM   H17F11183   7.347   2.960   8.575 -1.0590 -2.3248  1.8767
  108OSM   H17G11184   7.271   3.091   8.480  1.7345 -1.6402 -1.2545
  108OSM   C18F11185   7.152   2.910   8.486  0.4458  0.4571  0.6959
  108OSM   H18F11186   7.056   2.966   8.493  1.0880  2.2189 -2.7832
  108OSM   H18G11187   7.150   2.826   8.560 -0.3950  0.2438  0.4456
  108OSM   H18H11188   7.194   2.895   8.385 -0.2348 -0.3189  0.5159
  109OSM      N11189   2.272   3.855  10.822  0.0627  0.2675 -0.9506
  109OSM    C1511190   2.336   3.990  10.805  0.6385 -0.5870  1.1636
  109OSM   H15A11191   2.315   4.058  10.886  1.9277  0.8770  0.3104
  109OSM   H15B11192   2.310   4.028  10.708  0.0387 -1.9229  0.7692
  109OSM   H15C11193   2.442   3.970  10.801  0.9627  1.2509 -0.5200
  109OSM    C1411194   2.347   3.785  10.936  0.4006  0.3363 -0.4038
  109OSM   H14A11195   2.288   3.699  10.963  0.8179  0.2563  0.2628
  109OSM   H14B11196   2.365   3.852  11.019 -3.9710  1.4968 -0.1510
  109OSM   H14C11197   2.443   3.747  10.905  1.1154  1.0930  0.7973
  109OSM    C1311198   2.127   3.872  10.866  0.4476 -0.0234 -0.3374
  109OSM   H13A11199   2.078   3.776  10.876  1.7700 -1.2811 -4.1631
  109OSM   H13B11200   2.073   3.933  10.795 -0.5564  0.3110  0.6662
  109OSM   H13C11201   2.112   3.923  10.960  1.3933 -0.2239 -0.0781
  109OSM    C1211202   2.289   3.770  10.697  0.0252  0.4486  0.1115
  109OSM   H12A11203   2.253   3.671  10.720  1.7777 -1.0168 -2.8893
  109OSM   H12B11204   2.395   3.757  10.688 -0.0595 -0.2450  0.0416
  109OSM    C1111205   2.225   3.817  10.570 -0.1759 -0.3565  0.6246
  109OSM   H11A11206   2.255   3.745  10.491 -2.3079  0.8878 -1.4152
  109OSM   H11B11207   2.268   3.915  10.542 -2.4491  0.6513  0.5005
  109OSM      P11208   1.986   3.922  10.525  0.2251 -0.1669  0.1552
  109OSM    O1311209   1.884   3.858  10.438  0.2786 -0.1806  0.0881
  109OSM    O1411210   1.934   3.994  10.644 -0.6203  0.5357  0.5496
  109OSM    O1111211   2.067   4.020  10.433 -0.1082 -0.5866 -0.1583
  109OSM    O1211212   2.091   3.803  10.563 -0.6579  0.3387 -0.3118
  109OSM    C1S11213   2.119   3.985  10.305 -0.5515 -1.1757 -0.1803
  109OSM    H1S11214   2.149   3.879  10.307  0.0911 -1.0727 -2.4479
  109OSM    H1T11215   2.212   4.043  10.290 -2.1594  1.0155 -2.6772
  109OSM     NF11216   2.103   3.975  10.064  0.0672 -0.4984 -0.2813
  109OSM    HNF11217   2.163   4.039  10.017 -0.7766 -0.9076 -1.9752
  109OSM    C2S11218   2.027   4.015  10.188 -1.0132  0.1529  0.6784
  109OSM    H2S11219   1.952   3.934  10.205 -0.8570 -0.1849 -0.1941
  109OSM    C3S11220   1.973   4.157  10.188  0.8549 -0.3675 -0.1406
  109OSM    H3S11221   2.057   4.225  10.215  0.5719 -0.4830  1.0658
  109OSM     O311222   1.867   4.179  10.285  0.6292 -0.1740 -0.1662
  109OSM    HO311223   1.864   4.094  10.329  3.0396  0.0831  0.6460
  109OSM    C4S11224   1.912   4.205  10.060 -0.1400 -0.5202 -0.2091
  109OSM    H4S11225   1.960   4.296  10.021  0.4236 -0.1510  1.3010
  109OSM    C5S11226   1.821   4.139   9.993  0.3513  0.3443 -0.0362
  109OSM    H5S11227   1.780   4.043  10.029  2.2820 -0.3783  0.3566
  109OSM    C6S11228   1.767   4.195   9.864  0.1672 -0.1700  0.4228
  109OSM    H6S11229   1.820   4.284   9.824 -0.7248  0.5577  0.8059
  109OSM    H6T11230   1.669   4.240   9.893  1.1067  2.3508 -0.0634
  109OSM    C7S11231   1.755   4.091   9.749  0.8924 -0.1136 -1.0425
  109OSM    H7S11232   1.682   4.014   9.778 -1.0982  1.8883 -0.4736
  109OSM    H7T11233   1.855   4.052   9.719  1.0415 -0.0930 -0.5839
  109OSM    C8S11234   1.704   4.147   9.613  0.3547 -0.0965  0.5903
  109OSM    H8S11235   1.786   4.215   9.584  0.7352  0.7730  3.4031
  109OSM    H8T11236   1.605   4.196   9.621 -0.4123 -0.7157 -3.0860
  109OSM    C9S11237   1.678   4.045   9.493 -0.0793  0.7945  0.0472
  109OSM    H9S11238   1.599   3.977   9.532 -1.0257  2.1456  0.5383
  109OSM    H9T11239   1.765   3.977   9.475  0.3599  0.2257  3.5256
  109OSM   C10S11240   1.630   4.112   9.366 -0.1479 -0.0645  0.4503
  109OSM   H10S11241   1.722   4.140   9.311  0.3911  0.0888  1.4214
  109OSM   H10T11242   1.568   4.200   9.392 -1.0526 -0.2919 -0.8209
  109OSM   C11S11243   1.544   4.020   9.274 -0.6871 -0.4837 -0.3532
  109OSM   H11S11244   1.519   4.086   9.188  2.3435  1.3236  0.0123
  109OSM   H11T11245   1.456   3.983   9.331 -1.6071 -0.4169 -1.6669
  109OSM   C12S11246   1.623   3.902   9.214  0.2879 -0.0815  0.4648
  109OSM   H12S11247   1.555   3.819   9.184 -0.9337  1.1412 -0.2537
  109OSM   H12T11248   1.681   3.858   9.299  1.8582  1.7683  0.4169
  109OSM   C13S11249   1.729   3.940   9.116  0.4176  0.1092 -0.3075
  109OSM   H13S11250   1.797   4.013   9.165  2.6569 -0.6357 -2.1320
  109OSM   H13T11251   1.672   3.999   9.042  0.4297  1.8397  0.9928
  109OSM   C14S11252   1.806   3.821   9.061  0.3655 -0.0700 -0.6160
  109OSM   H14S11253   1.731   3.741   9.040  0.9934 -1.0655  0.7539
  109OSM   H14T11254   1.881   3.787   9.136  1.6245 -1.4567 -2.4305
  109OSM   C15S11255   1.882   3.867   8.934  0.4166 -0.0533 -0.0165
  109OSM   H15S11256   1.951   3.950   8.959  0.1134  0.6921 -1.5498
  109OSM   H15T11257   1.806   3.907   8.864  0.6122  1.1492  0.4416
  109OSM   C16S11258   1.963   3.754   8.873 -0.0004 -0.0771 -0.4370
  109OSM   H16S11259   1.902   3.661   8.880 -1.6856  1.0101 -0.2162
  109OSM   H16T11260   2.062   3.743   8.923  0.1652 -1.1386 -0.9577
  109OSM   C17S11261   1.996   3.780   8.723  0.2876 -0.3065  0.6717
  109OSM   H17S11262   2.059   3.871   8.725  0.0282 -0.1255  0.5049
  109OSM   H17T11263   1.907   3.802   8.661  0.6392  0.1931  0.3395
  109OSM   C18S11264   2.090   3.670   8.658 -0.6577 -0.4540 -0.1065
  109OSM   H18S11265   2.107   3.685   8.549  2.3031 -1.5110  0.1205
  109OSM   H18T11266   2.032   3.575   8.654  1.0035 -1.4823 -0.9043
  109OSM   H18U11267   2.189   3.661   8.709 -0.6071  0.1850 -0.0914
  109OSM    C1F11268   2.134   3.850  10.039 -0.2461  0.3787  0.0730
  109OSM     OF11269   2.085   3.752  10.095 -0.0945 -0.2483  0.7414
  109OSM    C2F11270   2.234   3.828   9.931 -0.3999  0.4453  0.3570
  109OSM    H2F11271   2.306   3.754   9.972  1.5416 -0.8638 -4.6327
  109OSM    H2G11272   2.284   3.923   9.901  0.0889 -0.1517 -0.7665
  109OSM    C3F11273   2.164   3.770   9.803 -0.2399  0.6029  0.3532
  109OSM    H3F11274   2.102   3.681   9.828  1.6647 -0.9708 -0.3042
  109OSM    H3G11275   2.243   3.736   9.734  1.4954 -2.3376  3.4535
  109OSM    C4F11276   2.070   3.870   9.738 -0.2350  0.2995 -0.6116
  109OSM    H4F11277   2.127   3.964   9.721  2.0175 -0.7439  0.7336
  109OSM    H4G11278   1.987   3.904   9.803 -0.8102 -2.6969  0.3850
  109OSM    C5F11279   2.021   3.825   9.599  0.1118 -0.8800  0.0786
  109OSM    H5F11280   1.926   3.873   9.566  0.9412  0.3806 -0.5603
  109OSM    H5G11281   2.004   3.715   9.595 -0.9761 -0.7056 -0.5956
  109OSM    C6F11282   2.120   3.842   9.481 -0.4549 -0.2719 -0.8863
  109OSM    H6F11283   2.210   3.782   9.504 -0.5997 -0.7843 -1.6151
  109OSM    H6G11284   2.160   3.946   9.478 -1.3411  0.1592  0.9605
  109OSM    C7F11285   2.056   3.818   9.350 -0.4004 -0.4221  0.1454
  109OSM    H7F11286   1.956   3.866   9.347  0.1138  0.7063  0.7424
  109OSM    H7G11287   2.038   3.709   9.337  1.8446 -0.7140 -1.0709
  109OSM    C8F11288   2.151   3.864   9.239 -0.4727 -0.3590 -0.8946
  109OSM    H8F11289   2.119   3.825   9.140  1.1197 -3.1851 -0.4089
  109OSM    H8G11290   2.255   3.838   9.268 -0.5626  1.4228  1.2774
  109OSM    C9F11291   2.149   4.013   9.228  0.0942 -0.6803 -0.7640
  109OSM    H9F11292   2.088   4.053   9.310  0.2583 -1.6319 -0.1611
  109OSM   C10F11293   2.205   4.103   9.146  0.2272  0.0850 -0.1071
  109OSM   H10F11294   2.188   4.208   9.173  1.9281  0.6494 -1.0962
  109OSM   C11F11295   2.295   4.077   9.020  0.2601  0.1832  0.5497
  109OSM   H11F11296   2.390   4.129   9.044  0.6461 -0.6787  0.9132
  109OSM   H11G11297   2.250   4.127   8.931  1.9340  2.7623  1.0550
  109OSM   C12F11298   2.317   3.923   8.977  0.1444  0.2092  0.1736
  109OSM   H12F11299   2.221   3.870   8.963 -0.4606  1.4528 -0.6769
  109OSM   H12G11300   2.381   3.878   9.055  0.0799  2.1990  1.4552
  109OSM   C13F11301   2.395   3.916   8.845 -0.7278 -0.0017 -0.4822
  109OSM   H13F11302   2.355   3.996   8.778 -3.8502 -1.4417 -0.5295
  109OSM   H13G11303   2.384   3.822   8.786  3.4621 -0.7494 -0.3510
  109OSM   C14F11304   2.552   3.940   8.868  1.1410  0.2479  0.4346
  109OSM   H14F11305   2.572   3.915   8.975  0.6277 -3.7605 -0.2515
  109OSM   H14G11306   2.585   4.042   8.838 -0.7901 -0.2065 -4.0409
  109OSM   C15F11307   2.640   3.842   8.784  0.0319 -0.7662 -0.3790
  109OSM   H15F11308   2.676   3.876   8.684  2.3334 -0.5955  0.4474
  109OSM   H15G11309   2.576   3.754   8.763 -2.8243  0.9128  0.6895
  109OSM   C16F11310   2.770   3.813   8.857  0.1460 -0.2332 -0.4285
  109OSM   H16F11311   2.830   3.732   8.810  2.4768 -0.0387  1.9386
  109OSM   H16G11312   2.754   3.775   8.960 -0.9174  1.0903 -0.0707
  109OSM   C17F11313   2.861   3.942   8.862  0.4665 -0.0214 -0.1832
  109OSM   H17F11314   2.809   4.031   8.904  1.2973  0.7200 -0.6846
  109OSM   H17G11315   2.881   3.978   8.758  0.7363 -1.5946 -0.7022
  109OSM   C18F11316   2.992   3.924   8.935  0.8547 -0.3388 -0.2017
  109OSM   H18F11317   3.058   4.007   8.904  1.7014 -0.7317  0.4933
  109OSM   H18G11318   3.033   3.824   8.910  0.8519 -0.0869 -1.2689
  109OSM   H18H11319   2.975   3.933   9.044 -0.7136 -1.2748 -0.3407
  110OSM      N11320   2.006   3.034  10.847  0.0058 -0.3310  0.6872
  110OSM    C1511321   2.076   2.906  10.896  0.7979  0.1473  0.6468
  110OSM   H15A11322   2.180   2.898  10.869  0.5984  0.4240 -0.2341
  110OSM   H15B11323   2.032   2.822  10.845  0.2529  1.4945 -1.2248
  110OSM   H15C11324   2.067   2.899  11.004 -2.7609 -1.2442  0.3998
  110OSM    C1411325   1.872   3.009  10.877 -0.3171  0.4489 -0.0266
  110OSM   H14A11326   1.852   3.009  10.983 -1.3439 -2.3317 -0.1376
  110OSM   H14B11327   1.838   2.912  10.843 -1.3263  0.9163 -0.3789
  110OSM   H14C11328   1.815   3.081  10.820 -1.6660 -0.5179  0.0622
  110OSM    C1311329   2.072   3.155  10.920 -0.0569 -0.1113  0.4870
  110OSM   H13A11330   2.083   3.127  11.024 -0.2720  1.3822  0.9281
  110OSM   H13B11331   2.009   3.241  10.903  1.8266  1.2904  0.1780
  110OSM   H13C11332   2.168   3.159  10.869  0.0139 -0.5257  0.5839
  110OSM    C1211333   2.014   3.049  10.695 -0.3226  0.6056  0.1979
  110OSM   H12A11334   1.963   3.139  10.663  0.2304  1.1535  0.8196
  110OSM   H12B11335   1.967   2.963  10.651  3.1457 -0.7981 -1.1355
  110OSM    C1111336   2.158   3.050  10.637  0.0398 -0.9374 -0.2254
  110OSM   H11A11337   2.214   3.131  10.689  0.9288 -0.2716 -2.1190
  110OSM   H11B11338   2.154   3.077  10.529  2.2255 -2.6363 -0.8122
  110OSM      P11339   2.193   2.805  10.568  0.2579 -0.0123  0.2534
  110OSM    O1311340   2.277   2.690  10.608  0.2296 -0.1737  0.1303
  110OSM    O1411341   2.049   2.783  10.575 -0.1018 -0.4863  0.4152
  110OSM    O1111342   2.246   2.857  10.423  0.2999  0.1752 -0.4043
  110OSM    O1211343   2.227   2.929  10.662  0.2133 -0.8072 -0.1522
  110OSM    C1S11344   2.374   2.897  10.402 -0.0844  0.1923 -0.0593
  110OSM    H1S11345   2.437   2.820  10.452  0.6115  0.9340  0.2287
  110OSM    H1T11346   2.397   2.993  10.452  1.6484 -0.2111 -0.0064
  110OSM     NF11347   2.547   2.880  10.217  0.4409  0.1407 -0.0241
  110OSM    HNF11348   2.582   2.972  10.202 -1.7570  0.8084 -1.6474
  110OSM    C2S11349   2.399   2.874  10.251 -0.6698  0.6052 -0.3162
  110OSM    H2S11350   2.360   2.775  10.221  0.4334 -0.4391  1.5597
  110OSM    C3S11351   2.312   2.968  10.171 -0.5865 -0.5323  0.0304
  110OSM    H3S11352   2.349   3.073  10.175 -2.8963  0.5766 -3.0740
  110OSM     O311353   2.179   2.973  10.211  0.3558  0.0159  0.1940
  110OSM    HO311354   2.183   2.923  10.293  2.1698  4.2903  3.0751
  110OSM    C4S11355   2.313   2.937  10.020 -0.2896  0.2641 -0.1657
  110OSM    H4S11356   2.245   2.855   9.993  0.5571 -1.3982  2.3404
  110OSM    C5S11357   2.380   3.012   9.924  0.5821 -0.8587 -0.7468
  110OSM    H5S11358   2.430   3.102   9.963  1.1142 -1.8837  1.1023
  110OSM    C6S11359   2.382   2.976   9.781  0.1064 -0.4859  0.3936
  110OSM    H6S11360   2.484   2.936   9.761  0.8528  1.1194  0.8486
  110OSM    H6T11361   2.362   3.066   9.718 -1.9446 -0.4544  1.0171
  110OSM    C7S11362   2.266   2.881   9.733 -0.0235 -0.2738 -0.5596
  110OSM    H7S11363   2.171   2.938   9.747  0.1046 -0.1076 -0.3530
  110OSM    H7T11364   2.255   2.788   9.792 -1.0645  1.7135  2.5933
  110OSM    C8S11365   2.263   2.857   9.578 -0.5046 -0.4927  0.2663
  110OSM    H8S11366   2.288   2.946   9.516  0.3338 -2.1204 -1.8495
  110OSM    H8T11367   2.156   2.833   9.558 -1.3255  2.5608  0.5301
  110OSM    C9S11368   2.359   2.745   9.533  0.3095 -0.1030 -0.1479
  110OSM    H9S11369   2.376   2.677   9.619 -1.1943  1.2591  1.2918
  110OSM    H9T11370   2.456   2.790   9.502  0.5964 -0.5504  0.0813
  110OSM   C10S11371   2.311   2.660   9.420 -0.2135  0.0562 -0.3074
  110OSM   H10S11372   2.312   2.722   9.328 -1.7400 -1.1808 -1.2086
  110OSM   H10T11373   2.206   2.627   9.434  0.9818 -3.8390  0.7710
  110OSM   C11S11374   2.393   2.536   9.383 -0.1560 -0.4933  0.1430
  110OSM   H11S11375   2.396   2.459   9.463  2.8636 -3.2173 -2.3179
  110OSM   H11T11376   2.493   2.568   9.347  0.2915 -3.0620 -1.1376
  110OSM   C12S11377   2.328   2.468   9.262  0.0503 -0.3099 -0.4003
  110OSM   H12S11378   2.384   2.389   9.208  0.0805 -0.5566 -0.0035
  110OSM   H12T11379   2.314   2.548   9.186  1.8647  0.4846  0.0319
  110OSM   C13S11380   2.193   2.400   9.291 -0.1107 -0.3777  0.3708
  110OSM   H13S11381   2.119   2.457   9.351  0.0424 -1.0279  1.1941
  110OSM   H13T11382   2.224   2.319   9.360  1.6536  0.8410  1.0519
  110OSM   C14S11383   2.127   2.336   9.180  0.3350  0.3775 -0.5925
  110OSM   H14S11384   2.046   2.268   9.214  0.9947 -0.7421 -1.2144
  110OSM   H14T11385   2.183   2.264   9.117  1.4026  0.2069  0.5225
  110OSM   C15S11386   2.080   2.431   9.073  0.7386  0.0961 -0.2906
  110OSM   H15S11387   2.152   2.514   9.052  0.5129  0.1394 -0.9202
  110OSM   H15T11388   1.998   2.488   9.119 -1.6518 -2.2436 -1.3913
  110OSM   C16S11389   2.020   2.358   8.953 -0.3997 -0.5458  0.7165
  110OSM   H16S11390   1.951   2.441   8.926 -0.3598 -0.2180  1.6059
  110OSM   H16T11391   1.958   2.268   8.973 -1.7380  0.2862  0.4421
  110OSM   C17S11392   2.133   2.330   8.842  0.6712  0.4295  0.2312
  110OSM   H17S11393   2.102   2.251   8.770 -2.2581  0.9835  0.7450
  110OSM   H17T11394   2.214   2.276   8.895  0.5419 -1.0408 -0.9913
  110OSM   C18S11395   2.196   2.456   8.789 -0.4346 -0.2531  0.4274
  110OSM   H18S11396   2.236   2.525   8.867  0.6992 -0.6162  0.1917
  110OSM   H18T11397   2.119   2.521   8.742 -1.4368 -0.4076  1.7808
  110OSM   H18U11398   2.281   2.431   8.722 -0.8002  0.2466 -0.2342
  110OSM    C1F11399   2.632   2.791  10.262 -0.6415  0.1039  1.0741
  110OSM     OF11400   2.591   2.690  10.319 -0.2995 -0.1888 -0.1754
  110OSM    C2F11401   2.767   2.819  10.232 -0.3246  0.1512 -0.0228
  110OSM    H2F11402   2.832   2.801  10.320 -1.4373  0.1141  0.8201
  110OSM    H2G11403   2.770   2.930  10.221  1.4432  0.2425  1.0171
  110OSM    C3F11404   2.801   2.760  10.093 -0.7237  1.5643 -0.6154
  110OSM    H3F11405   2.745   2.813  10.013 -2.9711 -0.0801 -0.2338
  110OSM    H3G11406   2.765   2.655  10.094  0.8883  0.8119 -4.4769
  110OSM    C4F11407   2.948   2.762  10.066 -0.7292 -0.9120 -0.4920
  110OSM    H4F11408   2.975   2.693   9.984  1.1022 -0.2638 -0.4923
  110OSM    H4G11409   2.997   2.717  10.155 -0.4598  2.3809  1.1855
  110OSM    C5F11410   3.017   2.900  10.030 -0.3339 -0.1544  0.0185
  110OSM    H5F11411   3.009   2.974  10.113  0.6837 -0.3173  0.2719
  110OSM    H5G11412   2.967   2.939   9.938  0.9828 -1.3866 -1.2548
  110OSM    C6F11413   3.161   2.892   9.993  0.2735  0.1212  0.0426
  110OSM    H6F11414   3.220   2.854  10.079  0.0190  0.8670  0.5510
  110OSM    H6G11415   3.201   2.995   9.993  1.4988 -0.3106 -1.8923
  110OSM    C7F11416   3.205   2.811   9.868 -0.2457 -0.8330 -0.1365
  110OSM    H7F11417   3.137   2.843   9.786 -0.8692 -3.1281 -0.5737
  110OSM    H7G11418   3.177   2.709   9.900 -3.6375  0.2504  0.7824
  110OSM    C8F11419   3.346   2.821   9.818 -0.2157  0.4433 -0.1207
  110OSM    H8F11420   3.357   2.765   9.722 -0.6426  0.2808 -0.0732
  110OSM    H8G11421   3.420   2.781   9.890  0.3050  1.4046 -0.1037
  110OSM    C9F11422   3.387   2.961   9.786 -1.1023 -0.4815 -0.0953
  110OSM    H9F11423   3.420   3.030   9.866 -1.1843 -1.0038  0.3971
  110OSM   C10F11424   3.369   3.019   9.673  0.7417 -0.2538  1.1559
  110OSM   H10F11425   3.400   3.124   9.662 -1.8237  0.3690 -1.5437
  110OSM   C11F11426   3.303   2.957   9.551 -1.4207 -0.3293  0.1650
  110OSM   H11F11427   3.229   3.027   9.506  1.7090  2.3122 -1.2921
  110OSM   H11G11428   3.235   2.876   9.587 -1.1074 -1.2520 -1.2696
  110OSM   C12F11429   3.407   2.901   9.451 -0.5658 -0.3351 -0.6669
  110OSM   H12F11430   3.365   2.840   9.368 -0.9480  2.4232 -2.6088
  110OSM   H12G11431   3.457   2.827   9.517  2.0137 -1.2500 -3.4005
  110OSM   C13F11432   3.499   3.020   9.406  0.1643  0.2326 -0.6128
  110OSM   H13F11433   3.603   2.999   9.441  0.0471  0.3943 -0.1642
  110OSM   H13G11434   3.469   3.121   9.441  1.5967  0.4177  0.1624
  110OSM   C14F11435   3.495   3.019   9.256  0.6109 -0.0408 -0.3989
  110OSM   H14F11436   3.541   2.925   9.220  1.0940 -0.0679  0.2878
  110OSM   H14G11437   3.570   3.096   9.227  0.0584 -0.1310 -2.1779
  110OSM   C15F11438   3.349   3.044   9.211 -0.1055  0.5393  0.2806
  110OSM   H15F11439   3.298   3.130   9.259 -0.5032  1.0767 -1.0461
  110OSM   H15G11440   3.282   2.959   9.238  2.0157 -0.9027  1.2859
  110OSM   C16F11441   3.342   3.076   9.062  0.3640 -1.2818 -0.1416
  110OSM   H16F11442   3.393   2.986   9.019  1.4990 -0.3294 -0.8604
  110OSM   H16G11443   3.416   3.158   9.049 -1.2815  0.2879  0.1102
  110OSM   C17F11444   3.201   3.109   9.018 -0.3895  0.0730  0.7674
  110OSM   H17F11445   3.146   3.182   9.082 -3.1965  0.5079 -1.9273
  110OSM   H17G11446   3.146   3.013   9.025  0.7370 -0.5824  0.8842
  110OSM   C18F11447   3.189   3.162   8.869  0.9846  0.4103  0.0025
  110OSM   H18F11448   3.229   3.085   8.800  2.0530  0.2070  0.8374
  110OSM   H18G11449   3.238   3.260   8.849  0.9145 -0.1157 -3.2397
  110OSM   H18H11450   3.079   3.177   8.861  0.5304 -2.7867 -1.2178
  111OSM      N11451   4.239   6.774  10.569  0.0051 -0.2070  0.9543
  111OSM    C1511452   4.319   6.881  10.631  0.1935 -0.7148  0.2461
  111OSM   H15A11453   4.288   6.893  10.734  1.2229 -0.3397  0.5290
  111OSM   H15B11454   4.307   6.975  10.579 -0.2979 -0.9609 -0.0888
  111OSM   H15C11455   4.424   6.857  10.644  0.3224 -0.9791 -1.1580
  111OSM    C1411456   4.285   6.769  10.429  0.1090  0.0693  1.1768
  111OSM   H14A11457   4.377   6.712  10.428  1.0576  1.5218  1.4400
  111OSM   H14B11458   4.283   6.871  10.393  0.2330  0.2291  1.6176
  111OSM   H14C11459   4.224   6.708  10.364 -1.3180  1.7774  0.8464
  111OSM    C1311460   4.275   6.645  10.636  0.0783  0.1122  0.2709
  111OSM   H13A11461   4.222   6.630  10.729 -1.9211  1.6733 -0.5401
  111OSM   H13B11462   4.382   6.637  10.650 -0.1288 -1.5438  1.0997
  111OSM   H13C11463   4.257   6.555  10.579  1.4826 -0.0373  0.0202
  111OSM    C1211464   4.089   6.802  10.583  0.7699 -0.1581 -0.3030
  111OSM   H12A11465   4.019   6.732  10.541 -1.3693  1.5128  0.3272
  111OSM   H12B11466   4.073   6.897  10.536 -1.7860 -1.3708 -2.0772
  111OSM    C1111467   4.023   6.812  10.727 -0.1423  0.4571 -0.1363
  111OSM   H11A11468   3.925   6.859  10.703 -0.6428 -1.4131 -2.0283
  111OSM   H11B11469   4.089   6.871  10.795  3.4129 -0.8869 -2.1735
  111OSM      P11470   3.887   6.589  10.760 -0.2604 -0.6741  0.2842
  111OSM    O1311471   3.920   6.459  10.833  0.0674  0.0264 -0.5489
  111OSM    O1411472   3.762   6.663  10.806 -0.5151 -0.0763 -0.2094
  111OSM    O1111473   3.893   6.572  10.598 -0.5247 -0.2626  0.0837
  111OSM    O1211474   4.007   6.681  10.782  0.3185  0.0482  0.8758
  111OSM    C1S11475   3.767   6.594  10.534  0.5408  0.4419 -0.0050
  111OSM    H1S11476   3.736   6.700  10.547 -1.2122 -0.1551  1.0288
  111OSM    H1T11477   3.678   6.535  10.567  0.0397  1.2990  0.1997
  111OSM     NF11478   3.658   6.620  10.318 -0.3285  0.4902  0.0191
  111OSM    HNF11479   3.590   6.553  10.291 -1.5550  1.1729  1.3189
  111OSM    C2S11480   3.777   6.571  10.379  0.0599 -0.1822 -0.0126
  111OSM    H2S11481   3.860   6.637  10.347  0.3534 -1.2780 -1.6407
  111OSM    C3S11482   3.814   6.424  10.353  0.1388  0.7263  0.5537
  111OSM    H3S11483   3.736   6.357  10.394 -1.7038  0.4818 -2.9533
  111OSM     O311484   3.949   6.383  10.387  0.0155  0.4781 -0.1933
  111OSM    HO311485   3.972   6.439  10.462  0.4796 -0.8293  0.6782
  111OSM    C4S11486   3.794   6.405  10.199  0.4857  0.2051 -0.3717
  111OSM    H4S11487   3.692   6.379  10.168  0.0572  2.3713 -0.9865
  111OSM    C5S11488   3.891   6.413  10.108  0.1437 -0.5093  0.5705
  111OSM    H5S11489   3.993   6.435  10.142  0.7185 -1.7192 -0.2897
  111OSM    C6S11490   3.873   6.401   9.961 -0.3568 -0.6991  0.2617
  111OSM    H6S11491   3.950   6.331   9.923  1.7108  1.3237  0.5124
  111OSM    H6T11492   3.876   6.504   9.918 -0.2695  0.1425  2.1861
  111OSM    C7S11493   3.734   6.352   9.922  0.2922  0.4907  0.3426
  111OSM    H7S11494   3.664   6.438   9.933 -1.0996 -0.7128  1.2222
  111OSM    H7T11495   3.701   6.275   9.995  1.6970 -1.1166 -0.6426
  111OSM    C8S11496   3.726   6.285   9.780 -0.0011  0.3533  0.3255
  111OSM    H8S11497   3.618   6.286   9.755 -0.4617 -0.9486  2.0602
  111OSM    H8T11498   3.761   6.179   9.783 -2.8603 -0.7959 -1.8676
  111OSM    C9S11499   3.797   6.375   9.669 -0.3427 -0.3071 -0.6417
  111OSM    H9S11500   3.900   6.394   9.707 -1.7238  1.1364  2.8287
  111OSM    H9T11501   3.745   6.473   9.670  0.3396  0.0741  0.3309
  111OSM   C10S11502   3.791   6.316   9.528 -0.0649  0.0937 -0.0951
  111OSM   H10S11503   3.686   6.285   9.507  0.0027  0.5429 -1.1565
  111OSM   H10T11504   3.845   6.220   9.516  0.2787  0.5148 -2.2555
  111OSM   C11S11505   3.822   6.420   9.420  0.3248 -0.1217 -0.6427
  111OSM   H11S11506   3.923   6.463   9.437  0.3038  0.2004 -1.3045
  111OSM   H11T11507   3.750   6.505   9.427  0.0678 -0.4822  2.4231
  111OSM   C12S11508   3.821   6.359   9.281 -1.3370 -0.5061 -0.2981
  111OSM   H12S11509   3.729   6.306   9.247 -0.9577  0.2465 -2.6856
  111OSM   H12T11510   3.911   6.294   9.282  0.0093  1.2060  2.3067
  111OSM   C13S11511   3.829   6.474   9.172  0.3255  0.2093 -0.6022
  111OSM   H13S11512   3.936   6.506   9.176  1.0683 -2.1401 -0.3707
  111OSM   H13T11513   3.766   6.565   9.181 -1.2724 -0.8599 -0.7101
  111OSM   C14S11514   3.809   6.409   9.037  0.2807  0.2287  0.3479
  111OSM   H14S11515   3.700   6.395   9.020  0.6643 -0.1811 -2.2509
  111OSM   H14T11516   3.858   6.311   9.016  0.4936 -0.2417  2.7754
  111OSM   C15S11517   3.852   6.502   8.922  0.0924 -0.2117 -0.0913
  111OSM   H15S11518   3.856   6.444   8.827  0.5442  2.7358 -2.0214
  111OSM   H15T11519   3.952   6.545   8.943  0.3223 -0.0089 -1.5027
  111OSM   C16S11520   3.757   6.622   8.888 -0.2877 -0.3990 -0.0038
  111OSM   H16S11521   3.733   6.683   8.978 -1.6413 -0.9512  0.0272
  111OSM   H16T11522   3.663   6.572   8.858 -0.2593 -2.1019  2.4849
  111OSM   C17S11523   3.810   6.715   8.774  0.2289 -0.1890 -0.0067
  111OSM   H17S11524   3.823   6.661   8.678  0.2643 -0.8818  0.3800
  111OSM   H17T11525   3.910   6.761   8.787  0.4659 -0.9113  0.7573
  111OSM   C18S11526   3.705   6.827   8.753 -0.8531 -0.9151  0.0073
  111OSM   H18S11527   3.613   6.790   8.703 -1.9380  0.4485  0.9373
  111OSM   H18T11528   3.743   6.911   8.691  2.5819  1.1742  4.3266
  111OSM   H18U11529   3.661   6.856   8.850  0.5874 -0.2266  0.4879
  111OSM    C1F11530   3.624   6.746  10.319  0.1511  0.5110 -0.5826
  111OSM     OF11531   3.696   6.838  10.351 -0.2483  0.3240  0.2980
  111OSM    C2F11532   3.491   6.782  10.272  0.0116 -0.4532  0.1274
  111OSM    H2F11533   3.480   6.891  10.253  0.2137 -0.6732 -1.3324
  111OSM    H2G11534   3.418   6.753  10.351 -0.7354 -0.7060 -0.6359
  111OSM    C3F11535   3.475   6.712  10.136  0.3325  0.1152  0.6326
  111OSM    H3F11536   3.452   6.607  10.167  0.2086 -0.2273 -0.5458
  111OSM    H3G11537   3.566   6.720  10.072 -0.6391  1.3137 -0.6536
  111OSM    C4F11538   3.358   6.753  10.055  0.2372 -0.4363 -0.8946
  111OSM    H4F11539   3.385   6.851  10.009 -0.8700  1.0651  1.4633
  111OSM    H4G11540   3.274   6.769  10.125  1.5866 -0.2718  0.7520
  111OSM    C5F11541   3.320   6.663   9.938  0.2465  0.2074 -0.1615
  111OSM    H5F11542   3.213   6.687   9.917 -0.9552 -2.0263  2.6464
  111OSM    H5G11543   3.321   6.557   9.971 -0.8072 -0.5468 -2.3452
  111OSM    C6F11544   3.415   6.679   9.818 -0.6431  0.4857 -0.5213
  111OSM    H6F11545   3.516   6.639   9.840 -0.2960  1.6804  0.1500
  111OSM    H6G11546   3.431   6.787   9.800  2.6359  0.1416 -0.2658
  111OSM    C7F11547   3.362   6.606   9.694 -0.3933  0.5479 -0.0765
  111OSM    H7F11548   3.258   6.634   9.666 -0.3028 -0.2054 -1.2731
  111OSM    H7G11549   3.366   6.499   9.724 -1.6419  0.2709 -0.8457
  111OSM    C8F11550   3.466   6.612   9.575 -0.3182 -0.3670 -0.0552
  111OSM    H8F11551   3.561   6.568   9.612  0.1438  1.4004  0.9330
  111OSM    H8G11552   3.472   6.721   9.556 -2.0211 -0.1674  0.3400
  111OSM    C9F11553   3.440   6.534   9.447  1.1392 -0.0134 -0.2117
  111OSM    H9F11554   3.404   6.433   9.471 -0.4291  0.5745  0.0242
  111OSM   C10F11555   3.433   6.578   9.320 -0.8083 -0.2179 -0.1559
  111OSM   H10F11556   3.425   6.501   9.241  1.4054 -2.2957  1.4987
  111OSM   C11F11557   3.463   6.724   9.279 -0.3105  0.4295 -0.1828
  111OSM   H11F11558   3.573   6.736   9.272 -0.0944 -0.8103  0.7934
  111OSM   H11G11559   3.434   6.791   9.363  0.5154 -0.6930  1.0372
  111OSM   C12F11560   3.381   6.767   9.157 -0.0929  0.5124  0.0819
  111OSM   H12F11561   3.416   6.871   9.136 -2.4302  1.3773  0.2134
  111OSM   H12G11562   3.276   6.783   9.188 -0.1593 -0.1379  0.2047
  111OSM   C13F11563   3.398   6.679   9.030 -0.7943  0.0665  0.5582
  111OSM   H13F11564   3.318   6.602   9.030 -1.8325  1.1258  0.1085
  111OSM   H13G11565   3.503   6.642   9.036 -0.0605  2.1673  2.1599
  111OSM   C14F11566   3.390   6.769   8.898  0.6530  0.2636 -0.6274
  111OSM   H14F11567   3.439   6.723   8.809 -0.1946 -0.9725 -0.4748
  111OSM   H14G11568   3.447   6.863   8.919 -1.3065  1.6613 -1.3185
  111OSM   C15F11569   3.256   6.817   8.857 -0.0978 -0.9184  0.8185
  111OSM   H15F11570   3.202   6.852   8.947 -0.5488  0.3299  0.0982
  111OSM   H15G11571   3.185   6.739   8.820 -0.7511  0.2505 -0.5173
  111OSM   C16F11572   3.266   6.934   8.760 -1.0688  0.0413  0.7460
  111OSM   H16F11573   3.243   6.902   8.657 -1.7056  3.4150 -0.2863
  111OSM   H16G11574   3.371   6.971   8.757 -0.9194 -0.4238  0.1759
  111OSM   C17F11575   3.179   7.049   8.790 -0.6901 -0.6250  0.0540
  111OSM   H17F11576   3.180   7.079   8.896  3.6564  0.2355 -0.0478
  111OSM   H17G11577   3.076   7.023   8.759 -0.7551  0.0671 -0.3332
  111OSM   C18F11578   3.224   7.172   8.710  0.2045 -0.2985 -0.3485
  111OSM   H18F11579   3.328   7.202   8.736 -0.9261  2.9243  0.9710
  111OSM   H18G11580   3.153   7.256   8.725 -0.9495 -1.4314  0.7591
  111OSM   H18H11581   3.232   7.153   8.601  0.5380  1.4893 -0.6726
  112OSM      N11582   3.849   5.145  11.107  0.3638  0.2473 -0.0639
  112OSM    C1511583   3.764   5.169  11.228 -0.2411  0.2271 -0.5615
  112OSM   H15A11584   3.667   5.209  11.205  0.1289  1.2563 -0.3869
  112OSM   H15B11585   3.822   5.237  11.289  0.7314 -1.3479  0.3476
  112OSM   H15C11586   3.747   5.074  11.277 -1.1522 -0.1774 -1.6417
  112OSM    C1411587   3.882   5.274  11.042  0.7824  0.2154  0.0558
  112OSM   H14A11588   3.943   5.344  11.098  1.3398  0.6929 -1.1128
  112OSM   H14B11589   3.800   5.329  10.999  1.5744  0.1531 -1.6160
  112OSM   H14C11590   3.942   5.249  10.956  2.3216 -1.0357  1.4332
  112OSM    C1311591   3.974   5.085  11.155  0.1770 -0.3420 -1.1049
  112OSM   H13A11592   3.965   4.996  11.216 -0.7818  0.6022  0.1829
  112OSM   H13B11593   4.032   5.159  11.208 -0.3123 -0.3483 -0.5426
  112OSM   H13C11594   4.042   5.057  11.076  1.2679  1.8653 -1.0152
  112OSM    C1211595   3.784   5.050  11.009  0.5212  0.1845 -0.5372
  112OSM   H12A11596   3.682   5.086  11.002  0.4270  0.0566  0.1033
  112OSM   H12B11597   3.775   4.955  11.059 -0.2850 -0.8200 -2.4951
  112OSM    C1111598   3.846   5.024  10.865 -0.0895 -0.7251  0.4498
  112OSM   H11A11599   3.848   5.118  10.804  0.7289  0.1718  1.8164
  112OSM   H11B11600   3.789   4.955  10.798  1.3506  0.2938 -1.9830
  112OSM      P11601   4.012   4.820  10.886  0.1532  0.0371 -0.0553
  112OSM    O1311602   4.157   4.802  10.898  0.1142  0.3128 -0.1875
  112OSM    O1411603   3.932   4.764  10.990  0.3463  0.2695 -0.4111
  112OSM    O1111604   3.962   4.764  10.747  0.2536  0.0466  0.3500
  112OSM    O1211605   3.983   4.976  10.871 -1.0116  0.2942 -0.0473
  112OSM    C1S11606   4.030   4.808  10.628 -0.3427 -0.0309 -0.1813
  112OSM    H1S11607   4.140   4.794  10.640 -0.3287  0.8989  0.9333
  112OSM    H1T11608   4.006   4.911  10.594  0.5764  0.4430  0.5645
  112OSM     NF11609   4.050   4.747  10.381 -0.0454  0.3747 -0.0382
  112OSM    HNF11610   3.998   4.807  10.321 -0.4356  1.8003  1.6345
  112OSM    C2S11611   3.992   4.710  10.511  0.2526 -0.4803 -0.7840
  112OSM    H2S11612   4.028   4.610  10.545  2.2899 -0.0711 -1.5797
  112OSM    C3S11613   3.839   4.710  10.497 -0.5648  0.4560  0.2859
  112OSM    H3S11614   3.803   4.811  10.468  0.8636  0.7834 -0.4487
  112OSM     O311615   3.767   4.683  10.617  0.0571  0.0700 -0.2636
  112OSM    HO311616   3.834   4.696  10.685  0.9321 -2.3782 -0.5357
  112OSM    C4S11617   3.797   4.608  10.389  0.1152  0.4256  0.3582
  112OSM    H4S11618   3.796   4.647  10.286  0.9216 -0.7029 -0.1037
  112OSM    C5S11619   3.769   4.475  10.407  0.0568  0.4617  0.3694
  112OSM    H5S11620   3.781   4.427  10.506  0.5913  1.3189  0.7313
  112OSM    C6S11621   3.728   4.392  10.286  0.2069  0.2938 -0.0071
  112OSM    H6S11622   3.674   4.452  10.209  0.7943 -0.3177 -0.9040
  112OSM    H6T11623   3.654   4.316  10.320 -2.2744  1.4638 -2.4628
  112OSM    C7S11624   3.848   4.323  10.231 -0.1086  0.0496 -1.3486
  112OSM    H7S11625   3.881   4.248  10.306 -3.2246  1.5206  1.7652
  112OSM    H7T11626   3.930   4.396  10.217  0.2788  0.5694  2.5889
  112OSM    C8S11627   3.830   4.253  10.097 -0.1283  0.5473 -0.1097
  112OSM    H8S11628   3.820   4.341  10.030  2.9087  0.7201 -0.4537
  112OSM    H8T11629   3.746   4.180  10.102  1.6195 -1.6054 -0.5646
  112OSM    C9S11630   3.957   4.171  10.048 -0.0959 -0.6552 -0.3681
  112OSM    H9S11631   3.956   4.089  10.124  0.5480  0.0840  0.4571
  112OSM    H9T11632   4.049   4.232  10.057 -0.4008 -0.1431 -0.7211
  112OSM   C10S11633   3.938   4.109   9.904  0.2374  0.4743 -0.4211
  112OSM   H10S11634   3.839   4.059   9.916 -0.8582  2.8960  1.6105
  112OSM   H10T11635   4.009   4.025   9.892  0.7047  0.5904  1.1761
  112OSM   C11S11636   3.942   4.207   9.786  0.2591  1.0645 -0.1373
  112OSM   H11S11637   4.019   4.280   9.819  0.9761 -0.0010  0.6568
  112OSM   H11T11638   3.841   4.252   9.777 -0.5537 -0.0517  2.4523
  112OSM   C12S11639   3.998   4.143   9.662 -0.4762  0.3257 -0.8915
  112OSM   H12S11640   4.049   4.047   9.686 -1.5420 -0.4869 -1.7840
  112OSM   H12T11641   4.070   4.216   9.620 -0.3457  1.6929  1.5370
  112OSM   C13S11642   3.886   4.117   9.556  0.1821 -0.1821  0.4081
  112OSM   H13S11643   3.820   4.206   9.562  1.4921  0.7380  1.9547
  112OSM   H13T11644   3.824   4.029   9.586  0.4294  0.1525  2.0078
  112OSM   C14S11645   3.955   4.097   9.422 -0.1499  0.0435  0.3564
  112OSM   H14S11646   4.013   4.002   9.426  1.5044  1.0111  0.2098
  112OSM   H14T11647   4.025   4.180   9.399 -0.2392  0.1538  0.4814
  112OSM   C15S11648   3.859   4.097   9.297  0.4270  0.0456 -0.1801
  112OSM   H15S11649   3.915   4.062   9.208  0.5058  4.2658 -1.9801
  112OSM   H15T11650   3.844   4.204   9.275  0.8375  0.0164 -0.6022
  112OSM   C16S11651   3.734   4.014   9.323 -1.0130 -0.3932 -0.4541
  112OSM   H16S11652   3.683   4.064   9.408  1.1710  0.0619  0.6578
  112OSM   H16T11653   3.769   3.911   9.343 -1.0905 -0.3726 -0.2185
  112OSM   C17S11654   3.651   4.017   9.196 -0.4800  0.8507 -0.0285
  112OSM   H17S11655   3.711   3.969   9.116  0.9506  3.2508 -0.5004
  112OSM   H17T11656   3.629   4.122   9.169 -2.3698  0.5760  0.3104
  112OSM   C18S11657   3.517   3.942   9.196 -0.1566  0.0365 -0.0061
  112OSM   H18S11658   3.475   3.938   9.093 -1.1408  0.0400  0.3765
  112OSM   H18T11659   3.441   3.976   9.270  0.7611  2.2098  0.0038
  112OSM   H18U11660   3.538   3.839   9.232  2.6589 -0.1197 -1.8170
  112OSM    C1F11661   4.175   4.724  10.353 -0.3992  0.0288  0.2920
  112OSM     OF11662   4.255   4.669  10.425  0.2943  0.0051 -0.1249
  112OSM    C2F11663   4.218   4.783  10.224 -0.2851 -1.3573 -0.0613
  112OSM    H2F11664   4.259   4.885  10.239  1.7231 -2.2271  0.7425
  112OSM    H2G11665   4.126   4.798  10.163  1.2724  1.6117 -1.9439
  112OSM    C3F11666   4.321   4.692  10.148 -0.1256 -0.3966  0.3043
  112OSM    H3F11667   4.402   4.658  10.217 -0.0790  0.8945  0.9264
  112OSM    H3G11668   4.371   4.745  10.064 -1.1180  0.4802  0.2460
  112OSM    C4F11669   4.247   4.573  10.081  0.1164  0.0322  0.1014
  112OSM    H4F11670   4.178   4.530  10.157 -0.0264  1.7636  1.0131
  112OSM    H4G11671   4.331   4.506  10.055  0.3674  0.7890 -1.1319
  112OSM    C5F11672   4.163   4.594   9.955 -0.4473 -0.2255  0.6448
  112OSM    H5F11673   4.118   4.695   9.967  0.2099  0.2030 -0.3393
  112OSM    H5G11674   4.100   4.502   9.961  1.1565 -1.2788  2.7197
  112OSM    C6F11675   4.258   4.589   9.832 -0.3109  0.2009  0.8924
  112OSM    H6F11676   4.315   4.494   9.840  0.2572  0.6666  3.3445
  112OSM    H6G11677   4.333   4.670   9.850 -1.7718  1.5838  0.9332
  112OSM    C7F11678   4.190   4.602   9.695  0.1472 -0.1178 -0.1004
  112OSM    H7F11679   4.134   4.698   9.703 -0.1979 -0.2996 -0.3104
  112OSM    H7G11680   4.127   4.511   9.686  0.9157 -0.7014  0.3716
  112OSM    C8F11681   4.279   4.604   9.566 -0.0771 -0.0393  0.0584
  112OSM    H8F11682   4.212   4.598   9.478 -0.7755 -0.6487  0.6171
  112OSM    H8G11683   4.342   4.513   9.580  0.2636  0.1809 -0.0226
  112OSM    C9F11684   4.371   4.719   9.584  0.0900 -0.0006  0.6712
  112OSM    H9F11685   4.397   4.741   9.688 -1.2208 -0.9655  1.2189
  112OSM   C10F11686   4.423   4.777   9.476  0.7552  0.4783 -0.3618
  112OSM   H10F11687   4.482   4.868   9.498 -1.2776  1.2873  2.1729
  112OSM   C11F11688   4.407   4.734   9.332 -0.0213  0.2461  0.0210
  112OSM   H11F11689   4.329   4.656   9.324 -0.9385  1.1645 -0.2859
  112OSM   H11G11690   4.497   4.692   9.282  0.2436  1.6437 -0.7240
  112OSM   C12F11691   4.360   4.853   9.251  0.3266 -0.1014  0.5760
  112OSM   H12F11692   4.428   4.941   9.255  1.0797 -0.7090  1.6095
  112OSM   H12G11693   4.262   4.876   9.298 -1.2591 -1.5736 -1.7766
  112OSM   C13F11694   4.341   4.808   9.108  0.1468  0.7231 -0.5338
  112OSM   H13F11695   4.286   4.712   9.097  0.4047  0.6682 -1.4513
  112OSM   H13G11696   4.436   4.785   9.057  0.6369 -1.3481  1.1787
  112OSM   C14F11697   4.264   4.904   9.021 -0.4690  0.0918 -0.7723
  112OSM   H14F11698   4.281   5.012   9.040  0.7511 -0.5662  2.3141
  112OSM   H14G11699   4.157   4.880   9.040 -0.1242 -0.0095  1.1687
  112OSM   C15F11700   4.294   4.910   8.867  0.2011  0.1770 -0.7054
  112OSM   H15F11701   4.272   4.811   8.822  1.2063 -0.4442  0.1177
  112OSM   H15G11702   4.403   4.926   8.847  0.8563  1.0214  2.9136
  112OSM   C16F11703   4.207   5.014   8.797  0.3556  0.0903 -0.3275
  112OSM   H16F11704   4.261   5.047   8.706 -0.9358  0.2776 -1.0467
  112OSM   H16G11705   4.211   5.110   8.853  1.5741 -1.3167  2.1487
  112OSM   C17F11706   4.062   4.983   8.779  0.0409 -0.0100  0.0660
  112OSM   H17F11707   4.014   4.956   8.876 -0.6490 -0.2381 -0.3314
  112OSM   H17G11708   4.050   4.902   8.704 -0.5717  1.1015 -1.0673
  112OSM   C18F11709   3.982   5.105   8.725  0.4493 -0.6927  0.0784
  112OSM   H18F11710   4.001   5.194   8.788 -1.7489  0.8249 -1.2562
  112OSM   H18G11711   3.871   5.104   8.726  0.4162 -1.0143 -1.2676
  112OSM   H18H11712   4.019   5.123   8.621 -1.2010 -2.8784 -0.9761
  113OSM      N11713   0.129   2.471  11.015 -0.4959 -0.3208  0.0399
  113OSM    C1511714   0.238   2.369  11.039 -0.6039  0.2136  0.3912
  113OSM   H15A11715   0.333   2.416  11.062 -1.0064  0.5462  1.4123
  113OSM   H15B11716   0.261   2.303  10.956 -0.5940  1.9418 -1.0285
  113OSM   H15C11717   0.210   2.305  11.121  2.3973 -0.0509  1.3517
  113OSM    C1411718  -0.004   2.401  11.032  0.2826  0.0220  0.3264
  113OSM   H14A11719  -0.028   2.340  10.946 -0.7259  0.3221  0.3817
  113OSM   H14B11720  -0.082   2.476  11.032 -0.4363 -0.6569 -1.6231
  113OSM   H14C11721  -0.011   2.343  11.122  0.5475  1.1112  1.0722
  113OSM    C1311722   0.146   2.569  11.127  0.1312  0.5803 -0.2658
  113OSM   H13A11723   0.068   2.643  11.123 -0.4577  0.0515  1.0468
  113OSM   H13B11724   0.243   2.616  11.117 -1.3225  3.7384 -0.7195
  113OSM   H13C11725   0.145   2.526  11.226  0.2844 -2.6549 -1.5780
  113OSM    C1211726   0.149   2.547  10.885 -0.3333  0.0485  0.5605
  113OSM   H12A11727   0.173   2.473  10.810 -0.4821  1.6417 -1.1261
  113OSM   H12B11728   0.243   2.598  10.890 -0.1787  0.2547 -2.4443
  113OSM    C1111729   0.034   2.642  10.833 -0.0440  1.0094  0.7962
  113OSM   H11A11730   0.055   2.672  10.728  2.4074 -1.7364  0.3697
  113OSM   H11B11731   0.053   2.735  10.890  1.8145  0.8758  0.4626
  113OSM      P11732  -0.216   2.683  10.870 -0.1699  0.4003  0.3503
  113OSM    O1311733  -0.337   2.601  10.902 -0.0278 -0.2450 -0.0156
  113OSM    O1411734  -0.195   2.788  10.968  0.2445  0.1936 -0.6336
  113OSM    O1111735  -0.245   2.748  10.729 -0.3047 -0.3918 -0.0553
  113OSM    O1211736  -0.091   2.590  10.850  0.3391 -0.3942  0.0118
  113OSM    C1S11737  -0.207   2.681  10.605  0.8230  0.0674 -0.7603
  113OSM    H1S11738  -0.285   2.607  10.578  0.2696  0.7442 -1.0466
  113OSM    H1T11739  -0.116   2.618  10.610  0.3431 -0.5808 -0.0991
  113OSM     NF11740  -0.155   2.712  10.362 -0.2717 -0.0860  0.4489
  113OSM    HNF11741  -0.063   2.727  10.328  0.9834 -1.4155  2.9631
  113OSM    C2S11742  -0.192   2.782  10.484  0.4973  0.4406  0.5325
  113OSM    H2S11743  -0.290   2.827  10.457  1.1807  1.4156 -0.4079
  113OSM    C3S11744  -0.098   2.901  10.518  0.2128  0.6911 -0.4969
  113OSM    H3S11745   0.000   2.858  10.549 -0.2713  0.2776  0.5256
  113OSM     O311746  -0.146   2.978  10.628 -0.3064  0.3468  0.0612
  113OSM    HO311747  -0.212   2.916  10.660  0.5678 -0.2492  0.7488
  113OSM    C4S11748  -0.084   3.005  10.412 -0.0462 -0.2657 -0.6697
  113OSM    H4S11749  -0.168   3.075  10.405  0.7972  1.2189  2.4857
  113OSM    C5S11750   0.013   3.020  10.323 -0.1569  0.6735  0.2389
  113OSM    H5S11751   0.095   2.946  10.316 -1.0197 -0.2640 -0.1657
  113OSM    C6S11752   0.017   3.127  10.213  0.2668 -0.1355  0.1515
  113OSM    H6S11753   0.113   3.148  10.160  1.6018  4.3295  3.6540
  113OSM    H6T11754   0.007   3.219  10.275 -0.5340 -0.9356  1.2592
  113OSM    C7S11755  -0.096   3.112  10.101 -0.6581  1.0445  0.4853
  113OSM    H7S11756  -0.111   3.208  10.047 -1.4427 -0.3212 -1.8532
  113OSM    H7T11757  -0.195   3.087  10.146 -0.7477 -0.5861 -0.5513
  113OSM    C8S11758  -0.067   2.997  10.007  0.0438 -0.1565  0.5756
  113OSM    H8S11759  -0.157   2.932  10.006 -0.4161  0.4647 -0.7812
  113OSM    H8T11760   0.017   2.936  10.046  0.0628  0.0556  0.8651
  113OSM    C9S11761  -0.038   3.046   9.863 -0.0556  0.2279 -0.1898
  113OSM    H9S11762   0.048   3.116   9.870  0.1725 -0.1847  1.3790
  113OSM    H9T11763  -0.126   3.093   9.814  0.2357 -0.2547 -1.2113
  113OSM   C10S11764  -0.015   2.926   9.773  0.2621  0.3058  0.2143
  113OSM   H10S11765  -0.109   2.867   9.782 -0.3699  1.5598  2.6944
  113OSM   H10T11766   0.067   2.860   9.809 -0.2455 -0.7606 -0.5360
  113OSM   C11S11767   0.006   2.964   9.632  0.7062  0.5683  0.2468
  113OSM   H11S11768   0.097   3.026   9.619  1.3406 -0.6869 -1.6029
  113OSM   H11T11769  -0.085   3.021   9.605  0.3189 -1.5322 -3.5347
  113OSM   C12S11770   0.012   2.856   9.523 -0.2202  0.3170 -0.5047
  113OSM   H12S11771  -0.093   2.827   9.503 -0.0051 -1.0529  0.2140
  113OSM   H12T11772   0.062   2.761   9.552 -2.5271 -0.9687 -0.5113
  113OSM   C13S11773   0.064   2.917   9.395  0.0160 -0.5359  0.2594
  113OSM   H13S11774   0.172   2.944   9.398  0.2163 -1.3615  1.7626
  113OSM   H13T11775   0.004   3.008   9.376  0.4806 -0.5357 -1.3503
  113OSM   C14S11776   0.039   2.821   9.280  0.2222 -0.7766 -0.8002
  113OSM   H14S11777  -0.067   2.788   9.291  0.5678 -1.7851 -0.2931
  113OSM   H14T11778   0.089   2.724   9.301 -1.3062 -1.5159 -0.3997
  113OSM   C15S11779   0.072   2.877   9.143 -0.4607  0.4678 -0.1038
  113OSM   H15S11780   0.179   2.904   9.127 -0.0616 -1.8706 -1.9598
  113OSM   H15T11781   0.013   2.970   9.130  2.6456  2.7611  0.9112
  113OSM   C16S11782   0.041   2.764   9.039  0.0242 -0.0988  0.1319
  113OSM   H16S11783  -0.063   2.730   9.054  0.0839 -0.1063  0.5416
  113OSM   H16T11784   0.106   2.676   9.059  0.9196  0.4361 -0.3343
  113OSM   C17S11785   0.062   2.794   8.884 -0.0584 -1.1022 -0.9192
  113OSM   H17S11786   0.149   2.862   8.875  0.3576 -1.4851  0.0780
  113OSM   H17T11787  -0.014   2.867   8.850  1.1999 -0.4662 -2.4905
  113OSM   C18S11788   0.062   2.674   8.795  0.3984  1.1753  0.0913
  113OSM   H18S11789  -0.023   2.603   8.803  0.7829  0.7690  0.6061
  113OSM   H18T11790   0.145   2.608   8.829  0.0073  1.1389  1.0007
  113OSM   H18U11791   0.070   2.708   8.689  0.4362 -0.5876 -0.5107
  113OSM    C1F11792  -0.222   2.617  10.299  0.4741 -0.2119  0.1559
  113OSM     OF11793  -0.325   2.569  10.347  0.5133 -0.1556  0.4297
  113OSM    C2F11794  -0.160   2.571  10.166  0.0147 -0.4142  0.1701
  113OSM    H2F11795  -0.071   2.508  10.189 -0.7569 -1.1202  1.2870
  113OSM    H2G11796  -0.133   2.659  10.103 -0.4391 -1.1696 -1.1205
  113OSM    C3F11797  -0.259   2.487  10.080 -0.5961 -0.2684  0.3552
  113OSM    H3F11798  -0.356   2.539  10.068 -1.0712 -1.1306  0.3190
  113OSM    H3G11799  -0.276   2.389  10.130  0.4875 -1.2117 -1.0304
  113OSM    C4F11800  -0.205   2.439   9.945 -0.6982 -0.2396 -0.5437
  113OSM    H4F11801  -0.294   2.392   9.899 -1.4252 -0.6155  1.1874
  113OSM    H4G11802  -0.112   2.379   9.958  0.2969  1.2314 -0.5385
  113OSM    C5F11803  -0.167   2.556   9.856 -0.5128  0.4316 -0.6483
  113OSM    H5F11804  -0.075   2.606   9.893  0.2531 -1.2074 -0.2466
  113OSM    H5G11805  -0.245   2.632   9.838 -1.1140 -0.2599 -0.9990
  113OSM    C6F11806  -0.115   2.501   9.721 -0.2985 -0.7191  0.2103
  113OSM    H6F11807  -0.038   2.424   9.741  1.0925  0.2639 -1.1349
  113OSM    H6G11808  -0.075   2.590   9.667 -0.8425  0.6131  1.9146
  113OSM    C7F11809  -0.220   2.440   9.630  0.3366 -0.5402  0.2095
  113OSM    H7F11810  -0.308   2.507   9.628  0.6421 -0.1005  0.9139
  113OSM    H7G11811  -0.239   2.345   9.685  1.3980 -0.3305  0.9830
  113OSM    C8F11812  -0.170   2.406   9.487  0.2946  0.1713  0.2345
  113OSM    H8F11813  -0.240   2.323   9.463  0.3122 -0.1576  1.2785
  113OSM    H8G11814  -0.077   2.346   9.499 -0.4528 -1.2982 -0.8897
  113OSM    C9F11815  -0.145   2.524   9.397 -0.0266 -0.2830  0.8996
  113OSM    H9F11816  -0.124   2.618   9.449 -0.5869  1.6633 -2.1355
  113OSM   C10F11817  -0.139   2.519   9.260 -0.2660 -1.5331 -0.5416
  113OSM   H10F11818  -0.140   2.616   9.209 -1.6674  0.1073  2.3417
  113OSM   C11F11819  -0.157   2.395   9.176 -0.3683  0.1930  0.1230
  113OSM   H11F11820  -0.267   2.386   9.162 -0.1768  0.6472 -2.0311
  113OSM   H11G11821  -0.112   2.308   9.228  2.4902  1.2926 -0.3285
  113OSM   C12F11822  -0.119   2.403   9.029 -0.3301 -0.7695 -0.6474
  113OSM   H12F11823  -0.008   2.412   9.028 -0.2996  0.9632  2.7561
  113OSM   H12G11824  -0.146   2.499   8.979 -1.9361 -0.9272 -0.1399
  113OSM   C13F11825  -0.164   2.283   8.951  0.2369  0.4006 -0.3196
  113OSM   H13F11826  -0.271   2.309   8.938  0.2528  0.7711  0.2646
  113OSM   H13G11827  -0.153   2.190   9.012 -0.1049  0.0499 -0.7904
  113OSM   C14F11828  -0.102   2.272   8.814  0.4782  0.1315  0.1438
  113OSM   H14F11829  -0.002   2.224   8.817  0.2898 -0.2224  1.1881
  113OSM   H14G11830  -0.089   2.368   8.760 -0.7605 -0.2657 -0.9294
  113OSM   C15F11831  -0.183   2.188   8.715  0.0978 -0.2953  0.1584
  113OSM   H15F11832  -0.216   2.091   8.760  1.1111  0.2034  2.0662
  113OSM   H15G11833  -0.124   2.182   8.621 -0.9083  1.3716 -0.6347
  113OSM   C16F11834  -0.312   2.259   8.667  0.3922  0.3452 -0.6967
  113OSM   H16F11835  -0.286   2.365   8.644  1.0158  0.0369 -1.4383
  113OSM   H16G11836  -0.386   2.270   8.749  0.4444  2.5977 -0.8777
  113OSM   C17F11837  -0.391   2.199   8.548 -0.0336  0.4459  0.2528
  113OSM   H17F11838  -0.419   2.099   8.588 -0.5675  0.5866  0.2359
  113OSM   H17G11839  -0.323   2.191   8.461  0.5877 -0.3596  0.8014
  113OSM   C18F11840  -0.527   2.272   8.516 -0.2362  0.0081 -0.5179
  113OSM   H18F11841  -0.582   2.278   8.613  1.6819 -2.1604  0.8287
  113OSM   H18G11842  -0.595   2.240   8.434 -0.0248  1.7143 -1.4027
  113OSM   H18H11843  -0.519   2.378   8.485 -3.1243  1.1592  2.0975
  114OSM      N11844   2.851   3.218  10.972  0.2017 -0.1385  0.4362
  114OSM    C1511845   2.738   3.126  11.003  0.0415  0.6582  0.1791
  114OSM   H15A11846   2.723   3.065  10.915 -0.7013 -2.6042  2.3909
  114OSM   H15B11847   2.645   3.174  11.032  0.8769  2.4116  0.0837
  114OSM   H15C11848   2.761   3.058  11.083  0.9075 -0.2589 -0.8222
  114OSM    C1411849   2.902   3.298  11.090  0.4507  0.4438  0.2831
  114OSM   H14A11850   2.949   3.226  11.155  0.4924  0.3197  0.1163
  114OSM   H14B11851   2.828   3.356  11.144  2.3675  0.7128  2.7919
  114OSM   H14C11852   2.983   3.362  11.056  0.5247 -0.8501 -2.1976
  114OSM    C1311853   2.968   3.137  10.928 -0.3244  0.0260 -0.3540
  114OSM   H13A11854   3.054   3.202  10.921 -1.5391  2.0729  2.3087
  114OSM   H13B11855   2.944   3.094  10.832 -1.1346 -0.0774 -0.1069
  114OSM   H13C11856   2.979   3.063  11.005 -1.2161 -0.5003 -0.7166
  114OSM    C1211857   2.809   3.306  10.857 -0.3837 -0.0274  0.4179
  114OSM   H12A11858   2.891   3.361  10.813 -0.4210  0.0769  0.4761
  114OSM   H12B11859   2.748   3.384  10.899 -1.0840 -1.4575  2.1723
  114OSM    C1111860   2.727   3.251  10.739 -0.2842  0.0632 -0.0395
  114OSM   H11A11861   2.703   3.334  10.668 -0.5581 -0.3830 -0.4722
  114OSM   H11B11862   2.629   3.225  10.783 -1.7041  1.9279 -1.8922
  114OSM      P11863   2.714   3.013  10.624  0.0913 -0.5212 -0.0528
  114OSM    O1311864   2.819   2.919  10.586  0.0236 -0.2675 -0.8021
  114OSM    O1411865   2.612   2.959  10.726  0.1744 -0.0232 -0.1955
  114OSM    O1111866   2.644   3.062  10.490 -0.6767 -0.4874 -0.5967
  114OSM    O1211867   2.798   3.138  10.681 -0.1467 -0.0139 -0.7415
  114OSM    C1S11868   2.705   3.153  10.397 -0.3245  0.1584 -0.2144
  114OSM    H1S11869   2.772   3.091  10.333 -0.1448 -2.2434  2.1255
  114OSM    H1T11870   2.767   3.233  10.443  0.7360  0.5605 -2.2021
  114OSM     NF11871   2.636   3.288  10.195 -0.4403  0.1233 -0.8308
  114OSM    HNF11872   2.632   3.388  10.188 -1.6923  0.1603  0.0010
  114OSM    C2S11873   2.587   3.230  10.324 -0.7600 -0.7991  0.0225
  114OSM    H2S11874   2.512   3.152  10.298 -0.1652 -1.0516 -1.0070
  114OSM    C3S11875   2.521   3.330  10.426 -0.1249  0.5003  0.6957
  114OSM    H3S11876   2.589   3.411  10.458 -0.2468  1.5492 -1.4903
  114OSM     O311877   2.469   3.270  10.538 -0.1242 -0.1006 -0.2677
  114OSM    HO311878   2.491   3.177  10.529 -3.4545 -1.0658  0.1650
  114OSM    C4S11879   2.409   3.403  10.359  0.2917 -0.0266  0.7037
  114OSM    H4S11880   2.431   3.510  10.346  1.8732 -0.0852  2.4553
  114OSM    C5S11881   2.285   3.352  10.324 -0.1650 -0.1250 -0.9016
  114OSM    H5S11882   2.268   3.246  10.348  1.9589 -0.6197 -1.3340
  114OSM    C6S11883   2.178   3.420  10.251  0.7988 -0.4576  0.2019
  114OSM    H6S11884   2.141   3.515  10.295 -3.1890 -1.1356 -1.2669
  114OSM    H6T11885   2.086   3.357  10.249  0.1083  0.5254  0.0690
  114OSM    C7S11886   2.224   3.462  10.106  0.8640  0.6804 -0.3927
  114OSM    H7S11887   2.304   3.538  10.118  2.2998 -0.7203 -0.7990
  114OSM    H7T11888   2.134   3.500  10.054  0.0691  0.4968  0.8152
  114OSM    C8S11889   2.271   3.331  10.032 -0.1736 -0.3668  0.4041
  114OSM    H8S11890   2.192   3.253  10.027  0.4579 -0.9344 -1.4713
  114OSM    H8T11891   2.365   3.294  10.080  1.8079  2.5205 -0.9443
  114OSM    C9S11892   2.318   3.372   9.890  0.0610  0.3035  0.6674
  114OSM    H9S11893   2.398   3.304   9.855 -0.4696 -0.0081  0.0395
  114OSM    H9T11894   2.366   3.472   9.893  0.0510  0.2912  1.2311
  114OSM   C10S11895   2.206   3.368   9.789 -0.1559  0.0652 -0.1571
  114OSM   H10S11896   2.116   3.418   9.830 -1.2129 -0.8343 -1.3239
  114OSM   H10T11897   2.186   3.260   9.775  0.4752  0.0487 -0.9876
  114OSM   C11S11898   2.239   3.435   9.656  0.2400 -0.2356  0.1609
  114OSM   H11S11899   2.347   3.447   9.630 -0.3071  3.9348 -1.0751
  114OSM   H11T11900   2.208   3.542   9.663 -1.2940 -0.6105 -0.5415
  114OSM   C12S11901   2.161   3.368   9.542  0.3882  0.1071  0.2423
  114OSM   H12S11902   2.053   3.367   9.569  0.3151 -2.5383  0.1254
  114OSM   H12T11903   2.178   3.258   9.544 -3.0182 -0.6452 -2.0280
  114OSM   C13S11904   2.187   3.419   9.392  0.5363  0.4734  0.0355
  114OSM   H13S11905   2.294   3.396   9.374  0.6059 -0.5568  1.5477
  114OSM   H13T11906   2.179   3.529   9.395 -0.3476  0.4094  0.2867
  114OSM   C14S11907   2.101   3.339   9.291 -0.2120 -0.1369 -0.8491
  114OSM   H14S11908   2.001   3.348   9.340 -0.2737  1.0605 -1.1643
  114OSM   H14T11909   2.112   3.228   9.289 -1.4066 -0.3445  1.1537
  114OSM   C15S11910   2.106   3.382   9.147  0.2412 -0.9969  0.5913
  114OSM   H15S11911   2.205   3.350   9.109  0.8147 -1.6676  2.5673
  114OSM   H15T11912   2.084   3.490   9.130  0.1866 -1.0575  0.2519
  114OSM   C16S11913   1.991   3.313   9.071  0.1563  0.4002 -0.3054
  114OSM   H16S11914   1.898   3.350   9.118 -1.5435 -1.6835 -1.8041
  114OSM   H16T11915   1.998   3.204   9.093 -1.4176  0.5155  0.8887
  114OSM   C17S11916   2.001   3.348   8.924  0.5507  0.3408  0.5293
  114OSM   H17S11917   2.106   3.350   8.886  0.3551  0.7566 -0.0046
  114OSM   H17T11918   1.963   3.451   8.907  2.5016  1.2309  1.1930
  114OSM   C18S11919   1.932   3.250   8.829 -0.7415 -0.1024  0.5798
  114OSM   H18S11920   1.904   3.309   8.739  2.0137 -0.6075 -0.7042
  114OSM   H18T11921   1.832   3.219   8.868 -1.8743  1.8498 -0.6290
  114OSM   H18U11922   2.000   3.167   8.799  0.9119  1.7855 -1.1706
  114OSM    C1F11923   2.681   3.221  10.092  0.1732  0.0401 -0.2717
  114OSM     OF11924   2.654   3.102  10.089 -0.3730 -0.6731  0.3426
  114OSM    C2F11925   2.738   3.307   9.979  0.1563  1.1128  0.0470
  114OSM    H2F11926   2.801   3.383  10.030  0.8427  0.4407  0.2159
  114OSM    H2G11927   2.663   3.352   9.910 -1.4059 -0.6553  0.5252
  114OSM    C3F11928   2.849   3.232   9.898 -0.6123 -0.3697 -0.1851
  114OSM    H3F11929   2.917   3.180   9.969  0.0853 -0.2016 -0.7209
  114OSM    H3G11930   2.910   3.300   9.835  0.0771 -2.0304 -1.3894
  114OSM    C4F11931   2.799   3.145   9.788 -0.1491  0.1333  0.1488
  114OSM    H4F11932   2.730   3.067   9.828 -1.3036  0.4563 -1.1210
  114OSM    H4G11933   2.889   3.098   9.745  0.5655  2.1415 -0.6626
  114OSM    C5F11934   2.735   3.231   9.672 -0.3113 -0.1533  0.0233
  114OSM    H5F11935   2.780   3.333   9.670  1.5978 -0.6699  4.7806
  114OSM    H5G11936   2.630   3.253   9.701 -0.2547  0.6903 -0.3939
  114OSM    C6F11937   2.752   3.164   9.535 -0.1564  0.2531  0.3768
  114OSM    H6F11938   2.709   3.064   9.557 -0.6782  1.0595  3.4289
  114OSM    H6G11939   2.858   3.159   9.502  0.3787  1.7266  1.7458
  114OSM    C7F11940   2.692   3.234   9.412  0.4152  0.7441  0.0159
  114OSM    H7F11941   2.732   3.177   9.326  1.6409  0.3766  0.8108
  114OSM    H7G11942   2.728   3.337   9.390  1.8233  0.5602  1.3206
  114OSM    C8F11943   2.541   3.232   9.400  0.4071  0.5191  1.2106
  114OSM    H8F11944   2.511   3.291   9.311 -1.0031  0.9951  1.9612
  114OSM    H8G11945   2.486   3.273   9.487  0.1156  0.7751  0.9113
  114OSM    C9F11946   2.488   3.087   9.382 -0.6137  0.5522  0.1404
  114OSM    H9F11947   2.506   3.033   9.477  1.5032 -0.8871 -0.9845
  114OSM   C10F11948   2.410   3.025   9.285  0.0157  0.2620 -0.2393
  114OSM   H10F11949   2.390   2.918   9.297 -1.2249  0.4859 -0.1406
  114OSM   C11F11950   2.350   3.088   9.166  0.2250 -0.0658  0.3101
  114OSM   H11F11951   2.409   3.179   9.138  0.1341 -0.2550 -0.5153
  114OSM   H11G11952   2.242   3.110   9.179  0.3861  0.3634  1.0270
  114OSM   C12F11953   2.343   2.988   9.054  0.5077 -0.1712 -0.5602
  114OSM   H12F11954   2.278   2.903   9.082  0.5651 -0.3377 -0.9273
  114OSM   H12G11955   2.445   2.954   9.026  1.6404  0.4897  2.3947
  114OSM   C13F11956   2.273   3.039   8.932  0.4144 -0.4662  0.0498
  114OSM   H13F11957   2.283   3.149   8.923 -0.9882 -0.3488 -0.2719
  114OSM   H13G11958   2.164   3.020   8.927  0.3969 -0.7333  1.1743
  114OSM   C14F11959   2.333   2.986   8.806 -0.1036 -0.4903  1.0926
  114OSM   H14F11960   2.348   2.876   8.812  1.8692 -0.2807  0.5401
  114OSM   H14G11961   2.430   3.038   8.789 -0.4174 -0.5264 -1.1411
  114OSM   C15F11962   2.253   3.015   8.674 -0.3865  0.6037  0.4517
  114OSM   H15F11963   2.227   3.123   8.679 -0.3101  0.5801  1.8108
  114OSM   H15G11964   2.154   2.965   8.684  1.2925 -3.2300 -0.4784
  114OSM   C16F11965   2.325   2.978   8.546  0.4425 -0.6998  0.8074
  114OSM   H16F11966   2.418   3.038   8.548  0.2077 -0.3606  2.3926
  114OSM   H16G11967   2.262   2.998   8.457 -2.5167 -3.8297  1.9782
  114OSM   C17F11968   2.377   2.833   8.530 -1.3568 -0.2999  0.2400
  114OSM   H17F11969   2.437   2.804   8.619 -0.0554  2.3686  0.3295
  114OSM   H17G11970   2.455   2.839   8.450 -0.6447  1.0743  1.0118
  114OSM   C18F11971   2.271   2.731   8.506 -0.1493  1.0449 -0.0348
  114OSM   H18F11972   2.314   2.632   8.482 -0.4147  0.0965  3.0227
  114OSM   H18G11973   2.220   2.758   8.411  1.5357  0.9658 -0.9952
  114OSM   H18H11974   2.196   2.723   8.588 -0.4753  0.5231 -0.3805
  115OSM      N11975   5.491   2.795  11.150  0.4848 -0.0863 -0.1364
  115OSM    C1511976   5.590   2.735  11.249 -0.9636 -0.3886 -1.1058
  115OSM   H15A11977   5.582   2.632  11.279  2.0350 -0.4322 -0.2252
  115OSM   H15B11978   5.584   2.779  11.347  1.7402 -1.0248 -0.5780
  115OSM   H15C11979   5.692   2.750  11.218 -0.3814  0.4895  1.0668
  115OSM    C1411980   5.479   2.706  11.037  0.0565  0.0332 -0.2419
  115OSM   H14A11981   5.424   2.617  11.066  0.0868 -0.5602 -1.9105
  115OSM   H14B11982   5.575   2.682  10.995 -0.1021 -2.0363  0.4487
  115OSM   H14C11983   5.417   2.756  10.964  0.5462 -0.0024 -0.6855
  115OSM    C1311984   5.361   2.813  11.212  0.0000  0.0086 -0.1025
  115OSM   H13A11985   5.293   2.829  11.130  1.6174 -1.0413 -1.7310
  115OSM   H13B11986   5.369   2.892  11.285 -0.8875 -0.0029  0.0167
  115OSM   H13C11987   5.318   2.721  11.249 -0.3099  0.0188 -0.4374
  115OSM    C1211988   5.540   2.932  11.107  0.7079 -0.0433  0.2484
  115OSM   H12A11989   5.648   2.935  11.099  0.6712  0.4869 -0.0561
  115OSM   H12B11990   5.516   2.997  11.190 -1.4273 -0.2809 -0.1497
  115OSM    C1111991   5.461   2.999  10.990  0.7246  0.6146 -0.2582
  115OSM   H11A11992   5.488   2.942  10.898 -0.0082  1.2504 -0.8790
  115OSM   H11B11993   5.499   3.103  10.979 -0.5763  1.2090  0.6525
  115OSM      P11994   5.212   3.013  10.901 -0.0347 -0.0473 -0.1003
  115OSM    O1311995   5.093   2.936  10.952  0.0060 -0.5181  0.1372
  115OSM    O1411996   5.186   3.157  10.880  0.1872 -0.2003  0.3957
  115OSM    O1111997   5.281   2.942  10.776  0.2442  0.2142 -0.1673
  115OSM    O1211998   5.324   3.005  11.010  0.7639  0.2639 -0.5177
  115OSM    C1S11999   5.221   2.873  10.669  0.0907  0.6677 -0.0032
  115OSM    H1S12000   5.118   2.834  10.682  0.0186  0.8201 -0.1064
  115OSM    H1T12001   5.268   2.773  10.663  1.4451  1.2881 -0.1683
  115OSM     NF12002   5.171   2.880  10.423  0.4411  0.7749 -0.6699
  115OSM    HNF12003   5.230   2.827  10.364 -0.5841  0.6714 -1.6406
  115OSM    C2S12004   5.239   2.950  10.533 -0.0593  0.1047  0.3038
  115OSM    H2S12005   5.196   3.052  10.544  1.7800  0.8888  0.5791
  115OSM    C3S12006   5.390   2.974  10.516 -0.4064 -0.4160  0.0230
  115OSM    H3S12007   5.439   2.875  10.506  0.1572 -0.2042  0.6702
  115OSM     O312008   5.460   3.039  10.628 -0.3386 -0.2827  0.0839
  115OSM    HO312009   5.395   3.046  10.699 -1.5994  1.2033 -1.1285
  115OSM    C4S12010   5.427   3.039  10.382 -0.1162 -0.6199 -0.4641
  115OSM    H4S12011   5.453   2.964  10.305  2.8221 -1.1242  0.8782
  115OSM    C5S12012   5.436   3.168  10.339 -0.4540  1.0911 -0.0300
  115OSM    H5S12013   5.415   3.257  10.400  2.7914  3.2854 -1.8440
  115OSM    C6S12014   5.477   3.213  10.203 -0.6079 -0.2302  0.1573
  115OSM    H6S12015   5.576   3.263  10.214 -1.1561  0.4900  2.1717
  115OSM    H6T12016   5.401   3.283  10.162  0.0130  1.4545  1.7343
  115OSM    C7S12017   5.498   3.109  10.090  0.4044  0.2007 -0.6546
  115OSM    H7S12018   5.401   3.058  10.071  0.8918 -0.6977 -0.7487
  115OSM    H7T12019   5.573   3.030  10.112  0.9424  0.4399 -1.5901
  115OSM    C8S12020   5.556   3.187   9.973 -0.6114  0.4656 -0.4859
  115OSM    H8S12021   5.644   3.249  10.000  0.3526 -1.0324 -0.0868
  115OSM    H8T12022   5.473   3.255   9.943 -0.2994  1.3476  0.6141
  115OSM    C9S12023   5.595   3.103   9.853  0.0164  0.4142 -0.1643
  115OSM    H9S12024   5.672   3.029   9.884 -0.5348 -0.2503 -0.3851
  115OSM    H9T12025   5.647   3.181   9.792 -1.7146  3.2271  1.7310
  115OSM   C10S12026   5.487   3.036   9.780  0.2571  0.4171  0.5293
  115OSM   H10S12027   5.428   3.126   9.753 -1.1855 -0.3865  0.9107
  115OSM   H10T12028   5.433   2.974   9.856  1.3689  0.0471  1.0379
  115OSM   C11S12029   5.529   2.953   9.657 -0.5099  0.1077 -0.3580
  115OSM   H11S12030   5.438   2.908   9.612 -0.2723 -1.2036  0.4531
  115OSM   H11T12031   5.597   2.870   9.687  0.1949  0.5473 -0.6982
  115OSM   C12S12032   5.606   3.033   9.550  0.5375  0.1790  0.1051
  115OSM   H12S12033   5.688   3.094   9.593  0.0090  0.1086  1.2544
  115OSM   H12T12034   5.533   3.100   9.500  2.1976  1.1682 -1.1099
  115OSM   C13S12035   5.672   2.946   9.443 -0.3645  0.1359  0.2211
  115OSM   H13S12036   5.586   2.893   9.397 -0.6111 -1.0585  1.9901
  115OSM   H13T12037   5.736   2.864   9.483  0.4233  0.6372  0.0057
  115OSM   C14S12038   5.764   3.012   9.343  0.1334  0.5053  0.2875
  115OSM   H14S12039   5.841   3.075   9.393  1.8670 -1.8980  0.8275
  115OSM   H14T12040   5.703   3.076   9.275 -0.3699  0.5257  0.7560
  115OSM   C15S12041   5.834   2.905   9.261  0.6160  1.5280  1.2398
  115OSM   H15S12042   5.774   2.812   9.246  1.7717  0.6079  2.1498
  115OSM   H15T12043   5.927   2.859   9.301  0.5907  0.7424  0.4307
  115OSM   C16S12044   5.844   2.963   9.116  0.0425 -0.6723  0.2109
  115OSM   H16S12045   5.895   3.061   9.129 -0.1660 -0.8275  2.6700
  115OSM   H16T12046   5.745   2.981   9.068  0.6537  2.4255 -0.1245
  115OSM   C17S12047   5.931   2.883   9.019 -0.7232  0.2966  0.2408
  115OSM   H17S12048   5.870   2.798   8.981 -1.4683 -0.6814  3.3290
  115OSM   H17T12049   6.008   2.833   9.081 -0.6916  1.0185  0.7904
  115OSM   C18S12050   6.006   2.966   8.903  0.3246  0.1871 -0.0186
  115OSM   H18S12051   6.084   3.034   8.944  0.7136  1.6521 -2.8862
  115OSM   H18T12052   5.937   3.022   8.836 -1.8158 -2.2620  0.0134
  115OSM   H18U12053   6.059   2.891   8.840  2.0130 -0.3404  1.9220
  115OSM    C1F12054   5.036   2.871  10.417 -1.2043 -0.9509 -0.9044
  115OSM     OF12055   4.961   2.928  10.495 -0.0562 -0.1134  0.7241
  115OSM    C2F12056   4.982   2.780  10.317 -0.1481  0.7742  0.8595
  115OSM    H2F12057   5.015   2.676  10.338  0.9037  0.9391  0.0750
  115OSM    H2G12058   5.033   2.807  10.222 -0.7241 -0.9090  0.0353
  115OSM    C3F12059   4.837   2.782  10.294  0.6299 -0.3909 -0.3450
  115OSM    H3F12060   4.801   2.878  10.252  0.6806 -0.3640 -0.3268
  115OSM    H3G12061   4.799   2.769  10.397  2.1101  1.7316  0.5399
  115OSM    C4F12062   4.781   2.671  10.207  0.0697  0.1599 -0.2737
  115OSM    H4F12063   4.670   2.670  10.204  0.0606  1.5220 -1.6205
  115OSM    H4G12064   4.821   2.577  10.248  0.9131  1.0319  0.9664
  115OSM    C5F12065   4.830   2.669  10.060  0.0894 -0.7109  0.0330
  115OSM    H5F12066   4.937   2.645  10.047  0.3944  0.3113  0.5752
  115OSM    H5G12067   4.836   2.773  10.022  2.6326  0.2848  2.7914
  115OSM    C6F12068   4.755   2.565   9.980  0.2045 -0.2685  0.5846
  115OSM    H6F12069   4.658   2.610   9.951 -0.1063 -2.0667 -1.4336
  115OSM    H6G12070   4.737   2.471  10.037  0.7949 -1.6599 -1.4088
  115OSM    C7F12071   4.840   2.536   9.852  0.3788  0.2727  0.2439
  115OSM    H7F12072   4.939   2.495   9.881 -0.0193 -0.1267  1.0963
  115OSM    H7G12073   4.856   2.630   9.795  0.6227 -0.8578 -1.6357
  115OSM    C8F12074   4.775   2.428   9.766  0.3950 -0.1506  0.0299
  115OSM    H8F12075   4.772   2.336   9.828  1.3040  0.9353  1.7720
  115OSM    H8G12076   4.836   2.403   9.676  0.5278 -0.2253  0.1396
  115OSM    C9F12077   4.629   2.460   9.736 -0.3451  0.0914  0.1208
  115OSM    H9F12078   4.570   2.421   9.820  0.0703 -1.9338 -0.4581
  115OSM   C10F12079   4.568   2.507   9.627  0.3621 -0.5351  0.1957
  115OSM   H10F12080   4.458   2.517   9.623  0.4913  0.8122 -0.5197
  115OSM   C11F12081   4.630   2.541   9.493 -0.7141  0.6589  0.2598
  115OSM   H11F12082   4.687   2.636   9.504  0.7518  0.0506 -1.4085
  115OSM   H11G12083   4.554   2.572   9.417  0.5685  0.5654 -1.1194
  115OSM   C12F12084   4.724   2.439   9.428  0.4069 -0.1202  1.3042
  115OSM   H12F12085   4.671   2.343   9.443 -0.7677  0.3211  0.2126
  115OSM   H12G12086   4.821   2.428   9.481  1.1881 -2.0908 -0.3984
  115OSM   C13F12087   4.748   2.470   9.275  0.0289 -0.5112 -0.5107
  115OSM   H13F12088   4.653   2.478   9.219  1.2812  0.6977 -2.5744
  115OSM   H13G12089   4.810   2.381   9.249 -1.6488 -2.4308  1.6008
  115OSM   C14F12090   4.833   2.587   9.246  0.4137  0.5593 -0.2865
  115OSM   H14F12091   4.937   2.570   9.283  0.6344 -1.2423 -1.5830
  115OSM   H14G12092   4.790   2.678   9.292 -1.4289 -0.9943  1.1826
  115OSM   C15F12093   4.858   2.590   9.091  0.1504  0.4762  0.6401
  115OSM   H15F12094   4.759   2.594   9.042 -0.2099  1.0255  1.3953
  115OSM   H15G12095   4.914   2.500   9.056 -1.8521 -1.3491  1.8543
  115OSM   C16F12096   4.935   2.711   9.047 -0.1401 -0.1729 -0.0541
  115OSM   H16F12097   5.032   2.711   9.101  0.1262  1.3973 -0.4763
  115OSM   H16G12098   4.878   2.801   9.077 -1.2107 -0.8080 -0.1470
  115OSM   C17F12099   4.960   2.728   8.895  0.3134  0.8343 -0.1827
  115OSM   H17F12100   5.040   2.655   8.871  1.2072  1.2640  1.4096
  115OSM   H17G12101   4.989   2.835   8.888 -0.1427  1.0155  0.5734
  115OSM   C18F12102   4.840   2.686   8.802 -0.3977 -0.6793  0.5957
  115OSM   H18F12103   4.832   2.576   8.818  1.0583 -0.6951  1.3989
  115OSM   H18G12104   4.864   2.716   8.697 -1.6469 -1.7974 -0.0415
  115OSM   H18H12105   4.745   2.741   8.817  0.3828  1.9556 -2.7146
  116OSM      N12106   2.454   5.251  10.686 -0.0303 -0.5502  0.3685
  116OSM    C1512107   2.457   5.109  10.640  0.3504  0.5957 -0.1660
  116OSM   H15A12108   2.521   5.096  10.554  1.1411  1.5923  0.2583
  116OSM   H15B12109   2.358   5.087  10.601 -0.3072 -0.4982  1.9475
  116OSM   H15C12110   2.465   5.036  10.719 -4.3860 -0.6111 -0.4832
  116OSM    C1412111   2.590   5.283  10.743  0.6381  0.2065  1.4318
  116OSM   H14A12112   2.664   5.260  10.668 -1.7351 -0.7708 -0.7421
  116OSM   H14B12113   2.616   5.213  10.821 -2.6071 -2.9511 -0.0140
  116OSM   H14C12114   2.602   5.386  10.773  1.7928  0.5652 -0.1513
  116OSM    C1312115   2.434   5.340  10.574  0.0777 -0.5308  0.4251
  116OSM   H13A12116   2.504   5.311  10.497 -1.0058 -1.0395 -0.3884
  116OSM   H13B12117   2.459   5.444  10.590  0.7059 -0.7413  0.8458
  116OSM   H13C12118   2.340   5.341  10.521  0.3816  0.1230 -0.1261
  116OSM    C1212119   2.355   5.275  10.792 -0.1457  0.2704 -0.5305
  116OSM   H12A12120   2.374   5.227  10.887 -1.0328  1.1240  0.1099
  116OSM   H12B12121   2.259   5.230  10.768  0.7324 -1.1488 -1.4929
  116OSM    C1112122   2.330   5.425  10.819 -0.8953 -0.2917 -0.0674
  116OSM   H11A12123   2.257   5.436  10.901 -0.4336  1.1559  0.1694
  116OSM   H11B12124   2.284   5.470  10.728  1.1605  0.8749 -0.5936
  116OSM      P12125   2.467   5.648  10.797  0.0157  0.0574 -0.3337
  116OSM    O1312126   2.336   5.715  10.808 -0.6990 -0.6142  0.0265
  116OSM    O1412127   2.592   5.712  10.846  0.2969  0.4800  0.6008
  116OSM    O1112128   2.490   5.613  10.648 -0.2678  0.3112  0.0733
  116OSM    O1212129   2.443   5.508  10.864 -0.4949 -0.1692  0.0090
  116OSM    C1S12130   2.615   5.614  10.577  0.2575 -0.0817  0.9729
  116OSM    H1S12131   2.684   5.528  10.592 -1.2278 -1.5624 -0.3676
  116OSM    H1T12132   2.677   5.704  10.600 -1.6092  1.5450 -0.0153
  116OSM     NF12133   2.725   5.616  10.350 -0.1786 -0.7992  0.0563
  116OSM    HNF12134   2.748   5.691  10.289 -1.4879 -1.5928 -1.4895
  116OSM    C2S12135   2.598   5.627  10.416  0.3250 -0.3103 -0.2339
  116OSM    H2S12136   2.536   5.543  10.377 -1.8052  1.2286 -0.3539
  116OSM    C3S12137   2.524   5.757  10.376 -0.2508 -0.4071 -0.6511
  116OSM    H3S12138   2.590   5.840  10.407  0.7880 -0.5492 -2.3298
  116OSM     O312139   2.409   5.779  10.458  0.0115  0.1304  0.0044
  116OSM    HO312140   2.426   5.715  10.528  6.6383 -0.7018 -1.6676
  116OSM    C4S12141   2.504   5.750  10.229  0.5425  0.0396  0.2655
  116OSM    H4S12142   2.601   5.771  10.182  1.1262 -0.7550  1.0829
  116OSM    C5S12143   2.394   5.710  10.167  1.0075  0.2476  0.5038
  116OSM    H5S12144   2.305   5.695  10.229 -0.5214  0.4614 -1.5267
  116OSM    C6S12145   2.381   5.703  10.016 -0.6033  0.8651 -0.7216
  116OSM    H6S12146   2.336   5.796   9.975 -0.3039 -0.4099 -4.2889
  116OSM    H6T12147   2.301   5.627  10.007 -1.6095  1.8340 -0.2403
  116OSM    C7S12148   2.515   5.674   9.931  0.4345 -0.2820 -0.3960
  116OSM    H7S12149   2.566   5.587   9.978  0.3781  0.1596  0.5095
  116OSM    H7T12150   2.581   5.762   9.942  0.1690 -0.2816  1.8012
  116OSM    C8S12151   2.485   5.650   9.783  0.3845  0.1207  1.0761
  116OSM    H8S12152   2.414   5.730   9.754 -1.6905 -1.3065  1.9925
  116OSM    H8T12153   2.434   5.554   9.764  0.7377  0.1885 -0.3433
  116OSM    C9S12154   2.615   5.644   9.701 -0.3599  0.4175  0.0305
  116OSM    H9S12155   2.675   5.560   9.741 -2.0102 -0.0177  1.7177
  116OSM    H9T12156   2.661   5.744   9.719 -1.2938  0.7034  0.8573
  116OSM   C10S12157   2.588   5.633   9.551  0.0049 -0.3882 -0.5803
  116OSM   H10S12158   2.549   5.532   9.527 -1.6778  0.0543  0.1923
  116OSM   H10T12159   2.683   5.654   9.497  0.7711 -1.1449  0.4252
  116OSM   C11S12160   2.493   5.743   9.511 -0.5009 -0.3298 -0.0332
  116OSM   H11S12161   2.518   5.835   9.568  0.3716  0.5560 -1.7599
  116OSM   H11T12162   2.390   5.702   9.519  0.3331 -2.8027 -1.1129
  116OSM   C12S12163   2.511   5.794   9.367 -0.2182 -0.3344  0.7195
  116OSM   H12S12164   2.512   5.706   9.299 -2.5207  1.5996 -2.0545
  116OSM   H12T12165   2.610   5.843   9.357  0.1017 -1.0162  0.5163
  116OSM   C13S12166   2.391   5.877   9.330  0.3718 -0.1813  0.2087
  116OSM   H13S12167   2.402   5.969   9.391  1.4437 -0.6647  0.7696
  116OSM   H13T12168   2.299   5.820   9.357  1.6890 -2.0271  1.0285
  116OSM   C14S12169   2.368   5.921   9.182  0.3415 -0.1587 -0.2112
  116OSM   H14S12170   2.262   5.951   9.167 -0.7285 -1.9164  2.8317
  116OSM   H14T12171   2.383   5.834   9.116 -0.6365 -0.7247  0.2793
  116OSM   C15S12172   2.463   6.032   9.133  0.4263 -0.2123 -0.3924
  116OSM   H15S12173   2.572   6.009   9.130  0.3422 -0.5770 -0.7059
  116OSM   H15T12174   2.446   6.117   9.202  2.0351 -0.9858  1.0201
  116OSM   C16S12175   2.413   6.068   8.989 -0.6357  0.3979 -0.4536
  116OSM   H16S12176   2.307   6.100   8.990 -0.3447  1.4199 -0.9500
  116OSM   H16T12177   2.418   5.968   8.941 -0.0722  0.3247 -0.2549
  116OSM   C17S12178   2.513   6.163   8.913  0.0745 -0.3172 -0.2302
  116OSM   H17S12179   2.609   6.109   8.916 -0.3095 -1.1537 -1.7274
  116OSM   H17T12180   2.535   6.259   8.965  0.3026  0.8050 -2.2921
  116OSM   C18S12181   2.470   6.209   8.768 -0.0546  0.5650 -0.1094
  116OSM   H18S12182   2.415   6.130   8.713  1.1103 -1.3102  1.2721
  116OSM   H18T12183   2.563   6.246   8.720  0.2820  0.1074  0.1795
  116OSM   H18U12184   2.405   6.299   8.768 -0.1757  0.4852 -1.1161
  116OSM    C1F12185   2.777   5.500  10.344 -0.4684  0.8904  0.1825
  116OSM     OF12186   2.718   5.403  10.390  0.4408  0.6763 -0.4710
  116OSM    C2F12187   2.913   5.488  10.276 -0.1895 -0.4469 -0.2633
  116OSM    H2F12188   2.992   5.489  10.355 -0.7572 -0.2645  0.3052
  116OSM    H2G12189   2.929   5.581  10.218 -0.8123 -1.4571 -2.1272
  116OSM    C3F12190   2.936   5.363  10.188  0.3234  0.2369 -0.3866
  116OSM    H3F12191   2.914   5.263  10.229  1.3766  0.8411  1.8043
  116OSM    H3G12192   3.037   5.369  10.143  0.1387 -1.1110 -1.0370
  116OSM    C4F12193   2.843   5.366  10.068  0.0168  0.2820  0.3593
  116OSM    H4F12194   2.833   5.473  10.038 -0.3712  0.8450  2.3441
  116OSM    H4G12195   2.737   5.338  10.085  0.0031  0.9931  1.5593
  116OSM    C5F12196   2.891   5.269   9.950  0.2667  0.1974 -0.7253
  116OSM    H5F12197   2.870   5.164   9.980  0.2954  0.0996 -1.0441
  116OSM    H5G12198   3.001   5.278   9.944  0.4776 -2.0039 -0.7259
  116OSM    C6F12199   2.818   5.281   9.817  0.5994 -0.6321  0.8043
  116OSM    H6F12200   2.885   5.246   9.736 -0.4869  1.1826 -0.9752
  116OSM    H6G12201   2.821   5.390   9.795  0.1463 -1.0379 -1.4381
  116OSM    C7F12202   2.675   5.218   9.789 -0.3498 -0.5680 -0.1850
  116OSM    H7F12203   2.599   5.273   9.848  1.9518  0.7579  1.6686
  116OSM    H7G12204   2.690   5.116   9.830  0.2367 -0.7204 -0.7523
  116OSM    C8F12205   2.627   5.197   9.639 -0.3407 -0.0810 -0.3923
  116OSM    H8F12206   2.624   5.303   9.604 -0.1455  0.4490  1.1095
  116OSM    H8G12207   2.528   5.148   9.650 -0.0844 -1.0979 -2.2154
  116OSM    C9F12208   2.718   5.109   9.568 -0.0881  0.4349  0.6421
  116OSM    H9F12209   2.695   5.004   9.592 -0.0797  0.2208 -0.2677
  116OSM   C10F12210   2.816   5.141   9.482  0.5011 -0.1408  0.7642
  116OSM   H10F12211   2.872   5.059   9.435  1.9775  1.3269 -0.1325
  116OSM   C11F12212   2.846   5.280   9.429  0.0352 -0.1502  0.3966
  116OSM   H11F12213   2.944   5.313   9.470 -0.4150  1.3822  0.3260
  116OSM   H11G12214   2.765   5.350   9.458  0.7550  1.7280 -1.7492
  116OSM   C12F12215   2.849   5.286   9.273  0.1740 -0.0908 -0.1130
  116OSM   H12F12216   2.863   5.386   9.226  1.0582 -0.6491 -1.0871
  116OSM   H12G12217   2.755   5.255   9.222  1.6223 -0.9454 -2.4115
  116OSM   C13F12218   2.963   5.205   9.207 -0.2031 -0.2508  0.5019
  116OSM   H13F12219   2.946   5.096   9.220 -1.8116  0.1861  2.8380
  116OSM   H13G12220   3.061   5.232   9.253  0.7249 -2.0194 -0.3497
  116OSM   C14F12221   2.984   5.238   9.055  0.3664  0.2888  0.6182
  116OSM   H14F12222   2.891   5.214   8.999  0.2273 -1.2206  1.4350
  116OSM   H14G12223   3.057   5.159   9.028  0.2284 -0.9167  3.4662
  116OSM   C15F12224   3.036   5.378   9.013  0.4046  0.4001  0.6275
  116OSM   H15F12225   3.129   5.394   9.072 -0.1660 -0.1609  1.7231
  116OSM   H15G12226   2.970   5.466   9.025 -0.1998 -0.1234  1.2399
  116OSM   C16F12227   3.089   5.384   8.869 -0.3592  0.0977 -0.0773
  116OSM   H16F12228   3.161   5.301   8.854 -2.1343 -2.0473  2.4499
  116OSM   H16G12229   3.146   5.478   8.857 -1.6512  0.8649 -0.4339
  116OSM   C17F12230   2.982   5.370   8.766  0.0932 -0.2473  0.2898
  116OSM   H17F12231   2.913   5.456   8.752  1.7025  0.9139 -0.9669
  116OSM   H17G12232   2.920   5.284   8.798 -1.2005  0.1737 -0.9747
  116OSM   C18F12233   3.046   5.336   8.632  0.1746  0.0644 -0.4603
  116OSM   H18F12234   2.972   5.301   8.557  2.3608 -1.8150 -1.8629
  116OSM   H18G12235   3.120   5.255   8.648  0.4100  0.6732  1.9080
  116OSM   H18H12236   3.104   5.424   8.597  0.8346 -0.6134 -1.0986
  117OSM      N12237   6.016   3.128  10.844  0.4348  0.0917  0.0011
  117OSM    C1512238   5.864   3.125  10.846 -0.2615 -0.6266  0.4576
  117OSM   H15A12239   5.831   3.182  10.932 -0.4771 -1.3504  0.8627
  117OSM   H15B12240   5.824   3.025  10.842  0.2252 -0.7857 -1.6702
  117OSM   H15C12241   5.832   3.184  10.761  0.5382 -0.7623  0.0505
  117OSM    C1412242   6.056   3.272  10.850 -0.0875 -0.1805  0.5900
  117OSM   H14A12243   6.031   3.322  10.758 -3.0109 -1.9816  0.2782
  117OSM   H14B12244   6.162   3.276  10.868  0.4893 -1.6937 -2.0314
  117OSM   H14C12245   5.994   3.328  10.920 -0.5709 -0.0832  0.0900
  117OSM    C1312246   6.064   3.054  10.966 -0.1912 -0.4973  0.2957
  117OSM   H13A12247   6.027   3.091  11.060  0.1174 -0.2424  0.3213
  117OSM   H13B12248   6.171   3.035  10.966 -0.2378 -0.7703  0.2328
  117OSM   H13C12249   6.031   2.952  10.958  0.4642 -0.7408  0.5607
  117OSM    C1212250   6.070   3.062  10.714 -0.4406  0.3312 -0.1680
  117OSM   H12A12251   6.175   3.071  10.693 -0.0668 -1.7485  0.5329
  117OSM   H12B12252   6.018   3.107  10.632  1.4951  0.7154 -1.2385
  117OSM    C1112253   6.045   2.903  10.692 -0.4340 -0.7168 -0.1469
  117OSM   H11A12254   6.073   2.872  10.590  0.3180 -3.4659  0.8227
  117OSM   H11B12255   5.936   2.883  10.702 -0.3959 -0.7203  0.2721
  117OSM      P12256   6.056   2.696  10.844 -0.2238  0.0345 -0.0663
  117OSM    O1312257   6.135   2.649  10.965  0.3665  0.3034 -0.1942
  117OSM    O1412258   5.911   2.700  10.868 -0.0897 -0.1069  0.3278
  117OSM    O1112259   6.082   2.591  10.736 -0.3394  0.0636  0.3372
  117OSM    O1212260   6.110   2.830  10.795  0.4439 -0.0211  0.4535
  117OSM    C1S12261   6.214   2.552  10.694 -0.1797  0.4085  0.4362
  117OSM    H1S12262   6.266   2.502  10.780 -0.9917  0.6785  1.0975
  117OSM    H1T12263   6.278   2.640  10.671 -1.5839  1.2470 -0.3502
  117OSM     NF12264   6.344   2.420  10.542 -0.7942 -0.0538 -0.0972
  117OSM    HNF12265   6.390   2.474  10.473 -0.4597  0.7002  0.6840
  117OSM    C2S12266   6.206   2.456  10.569  0.2970  0.6616 -0.4812
  117OSM    H2S12267   6.142   2.370  10.597 -1.7554  2.0385 -0.6790
  117OSM    C3S12268   6.138   2.524  10.445  0.2013  0.4864  0.0250
  117OSM    H3S12269   6.199   2.612  10.417 -0.1743 -0.1868 -3.2022
  117OSM     O312270   6.012   2.569  10.477  0.3214 -0.0666 -0.4423
  117OSM    HO312271   5.992   2.552  10.570 -0.1260  1.9047 -0.1283
  117OSM    C4S12272   6.125   2.435  10.331  0.3397 -0.1932  1.2798
  117OSM    H4S12273   6.027   2.384  10.332 -0.5346  1.4056  1.3465
  117OSM    C5S12274   6.207   2.430  10.227 -0.1911 -0.0034  0.1490
  117OSM    H5S12275   6.300   2.489  10.228  0.0852 -0.4336  1.2091
  117OSM    C6S12276   6.208   2.340  10.104  0.7747  0.5244 -0.5636
  117OSM    H6S12277   6.140   2.251  10.109  1.6675 -0.2819 -2.0214
  117OSM    H6T12278   6.308   2.292  10.108 -0.3212 -1.8372  1.4797
  117OSM    C7S12279   6.189   2.394   9.965  0.1123 -0.2984 -0.2232
  117OSM    H7S12280   6.269   2.470   9.960  0.0320 -0.1216  0.9594
  117OSM    H7T12281   6.091   2.445   9.958  0.7708  1.0329  0.0981
  117OSM    C8S12282   6.203   2.291   9.853  0.1532 -0.2440  0.3939
  117OSM    H8S12283   6.114   2.228   9.833 -0.9329  1.2845  0.2404
  117OSM    H8T12284   6.282   2.216   9.876 -0.5839 -0.2468  3.2856
  117OSM    C9S12285   6.234   2.357   9.714  0.0888 -0.4108  0.0604
  117OSM    H9S12286   6.316   2.427   9.739  0.0728  0.0405 -1.1001
  117OSM    H9T12287   6.146   2.419   9.687 -0.0748 -0.2472  0.9101
  117OSM   C10S12288   6.250   2.264   9.600 -0.5861  0.1507 -0.0895
  117OSM   H10S12289   6.148   2.219   9.603 -1.7180  2.5067 -0.5710
  117OSM   H10T12290   6.321   2.179   9.594  0.4697  1.0406 -0.6684
  117OSM   C11S12291   6.268   2.348   9.472  0.4241  0.0443 -0.3101
  117OSM   H11S12292   6.360   2.410   9.465  0.3785 -0.0654 -3.1930
  117OSM   H11T12293   6.191   2.427   9.462 -2.5197 -2.7316 -1.0559
  117OSM   C12S12294   6.245   2.262   9.347 -0.1939  0.1640 -0.7518
  117OSM   H12S12295   6.167   2.186   9.367  0.3224 -0.3081 -0.4954
  117OSM   H12T12296   6.335   2.197   9.336 -0.9441 -1.2191  0.8908
  117OSM   C13S12297   6.232   2.342   9.216  0.4880 -0.8797 -0.1053
  117OSM   H13S12298   6.303   2.426   9.230  0.2290 -0.1997 -2.4509
  117OSM   H13T12299   6.130   2.382   9.196  0.5556 -0.2604  0.7575
  117OSM   C14S12300   6.273   2.274   9.085  0.3087 -0.0422  0.2837
  117OSM   H14S12301   6.356   2.203   9.101 -1.5031 -2.1971  0.7144
  117OSM   H14T12302   6.301   2.357   9.017  0.7971  0.8869  1.6026
  117OSM   C15S12303   6.156   2.196   9.025  0.2178 -0.1296 -0.7618
  117OSM   H15S12304   6.076   2.266   8.993 -0.0703  0.6169  1.4084
  117OSM   H15T12305   6.106   2.141   9.108 -0.2044  1.6892  0.2478
  117OSM   C16S12306   6.190   2.113   8.902  0.0543  0.0033 -0.4280
  117OSM   H16S12307   6.262   2.165   8.835  0.3875  0.2096  0.0823
  117OSM   H16T12308   6.093   2.101   8.850 -0.3275  0.9039  0.0624
  117OSM   C17S12309   6.244   1.978   8.938 -0.1292  0.4039 -1.1846
  117OSM   H17S12310   6.332   1.992   9.004  0.3780 -2.9576 -1.0040
  117OSM   H17T12311   6.288   1.928   8.850  2.4421  0.5326 -0.0557
  117OSM   C18S12312   6.145   1.885   9.014 -0.2049 -0.7225  0.2479
  117OSM   H18S12313   6.092   1.920   9.106 -0.1251 -2.6201  1.0641
  117OSM   H18T12314   6.198   1.791   9.038  0.2751 -0.8764 -1.3183
  117OSM   H18U12315   6.067   1.863   8.938 -0.1920  0.7056 -0.2173
  117OSM    C1F12316   6.414   2.333  10.615  0.3285  0.9230  0.0750
  117OSM     OF12317   6.376   2.296  10.724  0.0720 -0.2017 -0.3286
  117OSM    C2F12318   6.545   2.305  10.573 -1.2371 -0.1639 -0.1310
  117OSM    H2F12319   6.583   2.376  10.496  1.6514 -0.5570  0.8238
  117OSM    H2G12320   6.532   2.211  10.516 -0.0758 -1.2300  1.2984
  117OSM    C3F12321   6.655   2.293  10.684 -0.6155 -0.0988  0.3090
  117OSM    H3F12322   6.619   2.215  10.754 -0.4899  0.1178  0.6216
  117OSM    H3G12323   6.662   2.386  10.744  1.9056  0.5641 -0.8988
  117OSM    C4F12324   6.798   2.274  10.634 -0.7820 -0.2095 -0.1604
  117OSM    H4F12325   6.857   2.230  10.716  0.0572  1.4508  0.1546
  117OSM    H4G12326   6.826   2.380  10.612 -0.8675  0.2293  1.7194
  117OSM    C5F12327   6.818   2.178  10.513  0.7021 -0.1661 -0.0728
  117OSM    H5F12328   6.800   2.221  10.412 -1.7971 -0.2265  0.2901
  117OSM    H5G12329   6.736   2.105  10.524  0.7902 -0.3782 -0.7648
  117OSM    C6F12330   6.948   2.101  10.510 -0.3990 -0.2596  0.9737
  117OSM    H6F12331   6.973   2.039  10.599 -1.7634 -0.1385  1.4701
  117OSM    H6G12332   7.020   2.185  10.503  0.2781 -0.9554 -2.8814
  117OSM    C7F12333   6.961   2.010  10.379  0.5082  0.7181 -0.7658
  117OSM    H7F12334   6.916   2.061  10.291  2.2799  0.4440 -1.8747
  117OSM    H7G12335   6.905   1.915  10.397  0.8049  0.8894  1.3120
  117OSM    C8F12336   7.101   1.965  10.343 -0.0514 -0.8780 -0.0185
  117OSM    H8F12337   7.083   1.888  10.265  1.3241 -0.5597 -0.6681
  117OSM    H8G12338   7.145   1.908  10.428 -2.4651 -3.1054 -0.1286
  117OSM    C9F12339   7.180   2.080  10.282 -0.8396  0.0537 -0.4134
  117OSM    H9F12340   7.217   2.144  10.364 -3.8149  2.6586 -0.9344
  117OSM   C10F12341   7.205   2.105  10.149 -0.0489 -0.7587 -0.0556
  117OSM   H10F12342   7.258   2.197  10.119  0.9766 -1.4057 -0.2789
  117OSM   C11F12343   7.162   2.026  10.033  0.2134  0.3706 -0.1303
  117OSM   H11F12344   7.090   1.947  10.063 -0.8266  0.5408 -2.0374
  117OSM   H11G12345   7.253   1.977   9.992 -0.5742 -0.6554 -0.7061
  117OSM   C12F12346   7.092   2.105   9.913 -0.7167  0.1934 -0.0929
  117OSM   H12F12347   7.170   2.166   9.862  0.7372  0.7975  2.6259
  117OSM   H12G12348   7.010   2.168   9.956 -0.5069 -0.5221  1.4339
  117OSM   C13F12349   7.026   2.023   9.801 -0.1205 -0.0709  0.2100
  117OSM   H13F12350   6.947   1.955   9.840 -0.0641 -1.5545 -2.0538
  117OSM   H13G12351   7.100   1.951   9.762  1.5744  1.1076  1.1234
  117OSM   C14F12352   6.976   2.115   9.687  0.9533 -0.2523  0.1445
  117OSM   H14F12353   7.049   2.197   9.667  0.8242 -0.6482 -2.3455
  117OSM   H14G12354   6.875   2.159   9.702  2.2323  2.5283  1.3739
  117OSM   C15F12355   6.961   2.031   9.553 -0.4710 -0.0497 -0.6063
  117OSM   H15F12356   6.879   1.957   9.564 -0.5018  0.1009  0.2478
  117OSM   H15G12357   7.056   1.976   9.540 -0.0938  0.2902  0.5669
  117OSM   C16F12358   6.940   2.112   9.433  0.2131  0.0229  0.3854
  117OSM   H16F12359   7.003   2.204   9.435  0.5288 -0.1939  0.5954
  117OSM   H16G12360   6.833   2.142   9.432  0.2866  0.3479  1.1343
  117OSM   C17F12361   6.960   2.035   9.296  0.4322  0.0832  0.2109
  117OSM   H17F12362   6.895   1.946   9.286 -1.2352  1.3659 -0.8524
  117OSM   H17G12363   7.065   1.998   9.300  0.4938  0.1407 -0.6803
  117OSM   C18F12364   6.937   2.120   9.173 -0.5240 -0.1553 -0.1817
  117OSM   H18F12365   6.829   2.111   9.149 -0.3626  0.1833 -1.0770
  117OSM   H18G12366   6.995   2.088   9.084 -1.2701 -0.6027 -0.5140
  117OSM   H18H12367   6.969   2.223   9.201  1.3956 -0.9271  0.6894
  118OSM      N12368   1.115   2.727  11.285 -0.5283 -0.2144 -0.0900
  118OSM    C1512369   1.061   2.788  11.408 -0.0392  0.6117 -0.3284
  118OSM   H15A12370   0.968   2.835  11.381 -0.5977 -0.7345 -0.8322
  118OSM   H15B12371   1.127   2.865  11.444 -0.7221  0.3156  1.7000
  118OSM   H15C12372   1.045   2.717  11.489 -3.1373  1.2979 -0.2074
  118OSM    C1412373   1.257   2.689  11.316  0.2791  0.0710 -0.1206
  118OSM   H14A12374   1.301   2.774  11.365  2.0221  0.6849 -2.5543
  118OSM   H14B12375   1.318   2.667  11.229  1.6815  0.5270  0.7058
  118OSM   H14C12376   1.272   2.599  11.375  2.0958  0.7597  0.5491
  118OSM    C1312377   1.032   2.604  11.245  0.3588 -1.0220  0.7396
  118OSM   H13A12378   0.926   2.625  11.247  0.5023 -0.3268  1.8888
  118OSM   H13B12379   1.043   2.530  11.323  1.1940 -1.7010 -0.0002
  118OSM   H13C12380   1.069   2.558  11.155 -0.8301 -1.0614  0.2611
  118OSM    C1212381   1.123   2.835  11.180 -0.3215 -0.6881 -0.0587
  118OSM   H12A12382   1.172   2.917  11.232  0.0968  0.4881 -2.2163
  118OSM   H12B12383   1.021   2.867  11.166 -0.1649 -0.2656 -0.2666
  118OSM    C1112384   1.173   2.802  11.038 -0.1416 -0.4028 -0.0950
  118OSM   H11A12385   1.146   2.884  10.967  1.6196 -0.2812 -0.6574
  118OSM   H11B12386   1.113   2.717  11.001  0.1900 -1.5593  1.8858
  118OSM      P12387   1.364   2.661  10.949 -0.3615  0.1048  0.1932
  118OSM    O1312388   1.510   2.684  10.933 -0.6102 -0.1874  0.0917
  118OSM    O1412389   1.311   2.536  11.011 -0.1956  1.1720  0.2616
  118OSM    O1112390   1.284   2.669  10.809 -0.4695 -0.0085 -0.8169
  118OSM    O1212391   1.315   2.786  11.020  0.4999 -0.8398  0.5280
  118OSM    C1S12392   1.320   2.763  10.714 -0.2378  0.0945  0.3900
  118OSM    H1S12393   1.424   2.800  10.712 -0.1553 -0.1043  0.8436
  118OSM    H1T12394   1.251   2.849  10.724 -0.6559 -0.3137  1.1475
  118OSM     NF12395   1.369   2.790  10.464 -0.8248 -0.1650  0.4838
  118OSM    HNF12396   1.302   2.844  10.414  0.1540  0.2302 -0.4348
  118OSM    C2S12397   1.311   2.704  10.567 -0.4062 -0.4848 -0.2554
  118OSM    H2S12398   1.384   2.620  10.567 -0.6890 -0.7610  1.5768
  118OSM    C3S12399   1.173   2.645  10.535  0.4257  0.1862 -0.1946
  118OSM    H3S12400   1.099   2.726  10.523 -1.2167 -1.3980 -1.4535
  118OSM     O312401   1.118   2.559  10.639 -0.6209  0.0127 -0.0134
  118OSM    HO312402   1.167   2.597  10.712  0.7627  0.1421 -0.9664
  118OSM    C4S12403   1.180   2.571  10.409 -0.0062  0.2068  0.0977
  118OSM    H4S12404   1.169   2.630  10.316  2.4062 -1.9981 -1.7533
  118OSM    C5S12405   1.209   2.440  10.386 -0.0360 -0.8778 -0.1436
  118OSM    H5S12406   1.236   2.389  10.479  0.7002  0.3039  0.3182
  118OSM    C6S12407   1.233   2.356  10.262 -0.0570  0.3945 -0.7374
  118OSM    H6S12408   1.177   2.260  10.261 -2.3647  1.6338 -3.6587
  118OSM    H6T12409   1.340   2.329  10.251  0.0593  0.4089  0.1993
  118OSM    C7S12410   1.165   2.418  10.140  0.1614  0.2530  0.0330
  118OSM    H7S12411   1.200   2.521  10.114 -3.7109  2.1660  1.5816
  118OSM    H7T12412   1.055   2.419  10.157 -0.0086  0.0438 -0.9544
  118OSM    C8S12413   1.183   2.339  10.007  0.5633  0.8184 -0.1787
  118OSM    H8S12414   1.164   2.233  10.036  1.0683  0.8016  0.0992
  118OSM    H8T12415   1.287   2.363   9.976  0.6962  1.9859  1.0761
  118OSM    C9S12416   1.093   2.393   9.894 -0.2583 -0.5210 -0.5949
  118OSM    H9S12417   1.088   2.504   9.896  0.4696 -0.4981  0.6597
  118OSM    H9T12418   0.991   2.351   9.910  0.5219 -3.0115 -1.7181
  118OSM   C10S12419   1.127   2.349   9.754 -0.4916  0.0705 -0.1675
  118OSM   H10S12420   1.160   2.243   9.746  0.4091  0.3606 -0.4790
  118OSM   H10T12421   1.219   2.404   9.722  0.0888 -0.0045  1.2813
  118OSM   C11S12422   1.016   2.386   9.654 -0.7420  0.2611  0.5982
  118OSM   H11S12423   0.988   2.493   9.662 -0.7214  0.4880 -1.6787
  118OSM   H11T12424   0.920   2.334   9.673 -1.1913  1.1416  0.7891
  118OSM   C12S12425   1.052   2.355   9.508 -0.3814  0.6457 -0.2661
  118OSM   H12S12426   1.053   2.247   9.484 -1.4956 -0.8274  5.0098
  118OSM   H12T12427   1.155   2.395   9.496  1.0536 -1.9005  2.3509
  118OSM   C13S12428   0.950   2.410   9.410 -0.1390  0.7394  0.5805
  118OSM   H13S12429   0.932   2.520   9.406 -2.2807  0.5357  2.5432
  118OSM   H13T12430   0.856   2.353   9.424  0.3002  0.0811  0.8627
  118OSM   C14S12431   1.000   2.377   9.271  0.4448  0.2096 -0.0886
  118OSM   H14S12432   1.012   2.267   9.269 -2.7985 -0.2736  1.0953
  118OSM   H14T12433   1.098   2.426   9.253  0.5959  0.6486  1.6818
  118OSM   C15S12434   0.904   2.418   9.156  0.2558  0.2676 -0.5328
  118OSM   H15S12435   0.918   2.527   9.139 -0.8057  0.3457 -0.9865
  118OSM   H15T12436   0.798   2.413   9.187  0.9574 -2.1207  1.8456
  118OSM   C16S12437   0.934   2.339   9.033 -0.2849  0.6480 -0.9870
  118OSM   H16S12438   0.932   2.230   9.051 -3.0278  0.6933 -0.5566
  118OSM   H16T12439   1.035   2.363   8.993 -0.1079  0.2260 -0.7889
  118OSM   C17S12440   0.829   2.373   8.923 -0.3199  0.2340  0.7147
  118OSM   H17S12441   0.797   2.478   8.910 -0.8128  0.1162  0.9642
  118OSM   H17T12442   0.744   2.302   8.934 -0.1127 -0.0220  0.6685
  118OSM   C18S12443   0.874   2.337   8.785  0.0672 -0.4944 -0.1923
  118OSM   H18S12444   0.810   2.371   8.701  1.7060  2.1292 -0.5110
  118OSM   H18T12445   0.878   2.226   8.787  3.7619 -0.4957  1.9121
  118OSM   H18U12446   0.979   2.370   8.766  0.3354 -1.0567  0.2673
  118OSM    C1F12447   1.498   2.819  10.464  0.2729 -0.8498  0.8394
  118OSM     OF12448   1.577   2.760  10.536 -0.0061 -0.1860 -0.2155
  118OSM    C2F12449   1.540   2.922  10.374  0.5569 -0.5401  0.5218
  118OSM    H2F12450   1.600   2.994  10.434  2.1024 -1.6134  0.3406
  118OSM    H2G12451   1.456   2.986  10.341 -0.4125 -1.4891  1.1132
  118OSM    C3F12452   1.634   2.882  10.261 -0.3657  0.5013  0.2303
  118OSM    H3F12453   1.577   2.816  10.192 -2.3739 -1.4314  3.5093
  118OSM    H3G12454   1.721   2.823  10.296 -0.8397  0.8899  2.1709
  118OSM    C4F12455   1.678   3.004  10.171 -0.8428 -0.2731  0.6155
  118OSM    H4F12456   1.743   3.070  10.232  1.8585 -1.9528 -0.2907
  118OSM    H4G12457   1.585   3.051  10.131 -0.2746 -0.1260 -0.5526
  118OSM    C5F12458   1.772   2.964  10.064 -0.2049 -0.4076  0.3800
  118OSM    H5F12459   1.729   2.888   9.995  1.1768 -1.5427  0.7053
  118OSM    H5G12460   1.869   2.923  10.100  0.5269  1.9537  1.2812
  118OSM    C6F12461   1.805   3.079   9.971 -0.2879 -0.4772 -0.1906
  118OSM    H6F12462   1.853   3.158  10.032  0.9793  0.6764 -2.5467
  118OSM    H6G12463   1.720   3.126   9.918  0.2762  0.6070 -0.1627
  118OSM    C7F12464   1.915   3.046   9.867  0.1741  0.5555 -0.2581
  118OSM    H7F12465   1.988   2.975   9.912  2.1916  1.6417 -1.6407
  118OSM    H7G12466   1.981   3.134   9.854  1.3121 -0.0987  0.8077
  118OSM    C8F12467   1.882   2.992   9.725  0.2096 -0.4353 -0.1668
  118OSM    H8F12468   1.793   2.927   9.739  0.9574 -1.6550 -0.9268
  118OSM    H8G12469   1.964   2.926   9.689 -0.2921 -0.8767 -0.5137
  118OSM    C9F12470   1.834   3.106   9.632  0.3472 -0.9804 -0.3743
  118OSM    H9F12471   1.804   3.196   9.688  0.4751  0.5588 -2.6216
  118OSM   C10F12472   1.850   3.112   9.498  0.3533 -0.0416  0.0145
  118OSM   H10F12473   1.811   3.197   9.441 -2.4558 -2.0198 -1.2430
  118OSM   C11F12474   1.920   3.010   9.416 -0.5221  0.4757  0.3772
  118OSM   H11F12475   1.914   2.908   9.461 -0.0880  0.8412  1.3008
  118OSM   H11G12476   2.028   3.031   9.396 -0.8300  0.1877 -1.8028
  118OSM   C12F12477   1.860   3.009   9.279  0.1463 -0.4002 -0.0405
  118OSM   H12F12478   1.870   3.109   9.231  1.1751 -0.3151  0.3316
  118OSM   H12G12479   1.750   2.992   9.284  0.2918 -1.4599 -0.1184
  118OSM   C13F12480   1.922   2.905   9.185 -0.5184  0.9176 -0.1075
  118OSM   H13F12481   1.899   2.810   9.237  0.0168 -0.1792 -1.7777
  118OSM   H13G12482   2.032   2.924   9.175 -0.4305  2.5659  2.9270
  118OSM   C14F12483   1.861   2.899   9.046  0.2295  0.0610  0.4844
  118OSM   H14F12484   1.878   2.998   8.999  0.9389 -0.1847  0.2050
  118OSM   H14G12485   1.755   2.867   9.033  0.4388 -0.1854 -0.8147
  118OSM   C15F12486   1.938   2.790   8.961 -0.2511  0.7042 -0.1987
  118OSM   H15F12487   1.910   2.688   8.995  1.0578 -0.0140 -1.1880
  118OSM   H15G12488   2.047   2.797   8.980 -0.6244  2.0262  1.6651
  118OSM   C16F12489   1.901   2.797   8.812  0.1104 -0.0835  0.0023
  118OSM   H16F12490   1.985   2.775   8.743  0.5819  0.7922  0.2851
  118OSM   H16G12491   1.860   2.898   8.795  0.2340  0.0670  0.6011
  118OSM   C17F12492   1.803   2.685   8.764  0.0533  0.2202 -0.3117
  118OSM   H17F12493   1.716   2.679   8.832 -1.8930  3.7898 -2.2125
  118OSM   H17G12494   1.852   2.585   8.759 -2.1343 -0.8614 -1.9187
  118OSM   C18F12495   1.735   2.716   8.632 -0.3893 -0.2284 -0.0479
  118OSM   H18F12496   1.670   2.632   8.599  0.9444 -0.5675 -1.9886
  118OSM   H18G12497   1.817   2.726   8.558 -0.5028 -1.1116 -0.3045
  118OSM   H18H12498   1.671   2.806   8.631 -1.2030 -0.7313 -2.7390
  119OSM      N12499   2.548   2.004  10.980 -0.2667 -0.3198 -0.3557
  119OSM    C1512500   2.516   1.857  10.989 -0.5670  0.0089 -0.8852
  119OSM   H15A12501   2.412   1.839  11.011  0.0037 -2.6156  0.0026
  119OSM   H15B12502   2.571   1.819  11.073 -2.1889  1.3853  0.8728
  119OSM   H15C12503   2.562   1.799  10.910  1.8729  2.4669 -1.4574
  119OSM    C1412504   2.526   2.072  11.108  0.5444  0.0086 -0.2312
  119OSM   H14A12505   2.422   2.055  11.132  0.7638  0.1255  0.8481
  119OSM   H14B12506   2.548   2.178  11.112 -1.3326  0.4044  1.0851
  119OSM   H14C12507   2.587   2.031  11.187 -1.0928 -0.8306  0.6581
  119OSM    C1312508   2.690   2.013  10.939  0.0412  0.0705  0.7666
  119OSM   H13A12509   2.739   2.109  10.939  0.7340 -0.2609 -0.5414
  119OSM   H13B12510   2.702   1.974  10.839  0.7075  0.3464  0.7394
  119OSM   H13C12511   2.756   1.944  10.989  1.9787  2.4627  1.7108
  119OSM    C1212512   2.448   2.049  10.866 -0.6552  0.5551 -0.3152
  119OSM   H12A12513   2.349   2.036  10.906 -0.1079 -1.0437  0.6104
  119OSM   H12B12514   2.460   1.972  10.791 -1.8770 -0.3387  0.3882
  119OSM    C1112515   2.461   2.187  10.809  0.2137 -0.1096 -0.1777
  119OSM   H11A12516   2.401   2.191  10.716  0.3404 -0.8265 -0.2894
  119OSM   H11B12517   2.568   2.199  10.782 -0.2510  1.5139 -1.4581
  119OSM      P12518   2.279   2.324  10.957  0.0943  0.3502 -0.1179
  119OSM    O1312519   2.232   2.227  11.056  0.7301 -0.0838 -0.5695
  119OSM    O1412520   2.267   2.472  10.984  0.1023 -0.4001 -0.1388
  119OSM    O1112521   2.202   2.300  10.822  0.1826 -0.0521 -0.3407
  119OSM    O1212522   2.428   2.286  10.914  0.0458  0.7578 -0.4315
  119OSM    C1S12523   2.208   2.399  10.717  0.0359  0.1061 -0.0095
  119OSM    H1S12524   2.313   2.432  10.702 -0.8231  3.1114  0.0885
  119OSM    H1T12525   2.153   2.489  10.749 -1.3243 -0.4871 -0.5913
  119OSM     NF12526   2.182   2.416  10.462  0.1729  0.3848 -0.0613
  119OSM    HNF12527   2.108   2.467  10.419 -2.2586 -1.0339  2.1848
  119OSM    C2S12528   2.151   2.340  10.585  0.0328 -0.1938 -0.3600
  119OSM    H2S12529   2.195   2.238  10.572  0.1967 -0.0994 -0.5599
  119OSM    C3S12530   1.993   2.324  10.609 -0.1275  0.3417 -0.0171
  119OSM    H3S12531   1.955   2.427  10.599  1.4876  0.9071 -0.6989
  119OSM     O312532   1.956   2.270  10.735 -0.1712  0.3320 -0.9842
  119OSM    HO312533   2.038   2.256  10.784 -1.6545 -0.8462  1.3681
  119OSM    C4S12534   1.927   2.233  10.504 -0.1764  0.7120 -0.1662
  119OSM    H4S12535   1.879   2.294  10.426 -1.7660  0.5386  0.6478
  119OSM    C5S12536   1.909   2.097  10.504  1.0351 -0.2815 -0.6342
  119OSM    H5S12537   1.949   2.037  10.587  3.8536  3.1545  0.7786
  119OSM    C6S12538   1.843   2.026  10.384 -0.4364 -0.7608 -0.4547
  119OSM    H6S12539   1.763   1.960  10.423 -1.2594  0.7023  0.4585
  119OSM    H6T12540   1.916   1.956  10.340 -1.3568 -1.2125 -1.2916
  119OSM    C7S12541   1.772   2.120  10.284  0.0059  0.4062 -0.4580
  119OSM    H7S12542   1.848   2.188  10.240 -1.4615  0.7486 -2.6223
  119OSM    H7T12543   1.689   2.181  10.325  0.4393  2.0215 -1.8682
  119OSM    C8S12544   1.710   2.042  10.171 -0.1496  0.2793  0.2804
  119OSM    H8S12545   1.634   1.974  10.214  0.4037 -0.4663  0.1052
  119OSM    H8T12546   1.787   1.981  10.119 -0.4382  0.6072 -0.5572
  119OSM    C9S12547   1.639   2.134  10.078  0.4720  0.2055 -0.1261
  119OSM    H9S12548   1.693   2.227  10.049  1.0413 -0.2184 -0.4537
  119OSM    H9T12549   1.544   2.163  10.127  0.2752  0.0535 -0.4177
  119OSM   C10S12550   1.599   2.064   9.952  0.1660 -0.3066  0.5121
  119OSM   H10S12551   1.543   1.971   9.976 -0.8989 -0.4409 -2.1410
  119OSM   H10T12552   1.698   2.029   9.915 -0.7642 -2.7642  0.1529
  119OSM   C11S12553   1.517   2.142   9.852  0.2101  0.2694  0.6015
  119OSM   H11S12554   1.548   2.248   9.840  1.0249  0.0990  1.1000
  119OSM   H11T12555   1.414   2.151   9.894  1.0494 -0.3306  2.9450
  119OSM   C12S12556   1.497   2.067   9.716 -0.4726  0.0918  0.1222
  119OSM   H12S12557   1.456   1.964   9.729 -2.1947  0.0732 -3.7551
  119OSM   H12T12558   1.601   2.056   9.680 -0.2794 -0.3586  0.8145
  119OSM   C13S12559   1.405   2.128   9.620  0.1998 -0.1545 -0.2555
  119OSM   H13S12560   1.426   2.236   9.604 -1.5274  0.1974 -0.3499
  119OSM   H13T12561   1.300   2.121   9.656 -0.0169  1.7818 -0.4323
  119OSM   C14S12562   1.405   2.061   9.476  0.2753  0.1004  0.0620
  119OSM   H14S12563   1.404   1.950   9.482 -0.8431 -0.1589 -3.0934
  119OSM   H14T12564   1.497   2.099   9.425  0.0147  3.8248  1.9921
  119OSM   C15S12565   1.292   2.101   9.382 -0.7626  0.0281 -0.7148
  119OSM   H15S12566   1.261   2.207   9.391  0.0521  0.2102  0.0738
  119OSM   H15T12567   1.213   2.027   9.408  0.3949 -1.0890 -0.2308
  119OSM   C16S12568   1.323   2.071   9.231 -0.2706  0.3409  0.1174
  119OSM   H16S12569   1.315   1.961   9.221 -0.1396  0.4643 -1.6193
  119OSM   H16T12570   1.429   2.098   9.208 -0.8295  1.8176 -0.8979
  119OSM   C17S12571   1.224   2.138   9.141  0.2285 -0.4629  1.3612
  119OSM   H17S12572   1.219   2.247   9.161 -1.0673 -0.2979  0.2796
  119OSM   H17T12573   1.123   2.095   9.162 -1.3338  1.4173 -1.6556
  119OSM   C18S12574   1.251   2.117   8.989  0.0210 -0.0414  0.1962
  119OSM   H18S12575   1.269   2.008   8.977  2.3663  0.2444  0.7026
  119OSM   H18T12576   1.350   2.161   8.967 -0.7789  1.0205 -1.4635
  119OSM   H18U12577   1.174   2.161   8.922 -0.4036  0.5347  1.0397
  119OSM    C1F12578   2.300   2.401  10.397 -0.7609  0.6595  0.1424
  119OSM     OF12579   2.404   2.363  10.450  0.2852  0.8257  0.3718
  119OSM    C2F12580   2.291   2.434  10.255 -0.9959  0.5723 -0.3432
  119OSM    H2F12581   2.246   2.535  10.261  1.3725  1.6866 -0.5020
  119OSM    H2G12582   2.222   2.368  10.198 -0.8307  1.8097 -2.0454
  119OSM    C3F12583   2.429   2.433  10.197 -0.5829 -0.0737 -0.0908
  119OSM    H3F12584   2.467   2.329  10.204 -1.8296 -0.4994  0.6681
  119OSM    H3G12585   2.502   2.495  10.255 -0.0547  0.4748 -1.3009
  119OSM    C4F12586   2.430   2.490  10.058 -0.4741 -0.4321 -0.0506
  119OSM    H4F12587   2.529   2.516  10.016 -0.6243 -0.2492 -0.2923
  119OSM    H4G12588   2.375   2.587  10.054 -0.0941 -0.2495 -1.6683
  119OSM    C5F12589   2.371   2.384   9.961 -0.1683  0.8571 -0.8683
  119OSM    H5F12590   2.264   2.373   9.992  0.7078 -1.4264  1.7816
  119OSM    H5G12591   2.429   2.289   9.961 -0.1455  0.8103  1.4293
  119OSM    C6F12592   2.379   2.446   9.820 -0.1822  0.5460  1.0597
  119OSM    H6F12593   2.474   2.416   9.771 -0.9380  0.0736 -0.1449
  119OSM    H6G12594   2.374   2.557   9.815 -2.2729  0.6155 -5.8763
  119OSM    C7F12595   2.255   2.422   9.735 -0.7057  0.4457 -0.3337
  119OSM    H7F12596   2.254   2.481   9.640 -3.3606  0.5995 -0.2831
  119OSM    H7G12597   2.169   2.460   9.793  0.3132  0.1138  1.4592
  119OSM    C8F12598   2.230   2.276   9.687  0.4352 -0.2171  1.0437
  119OSM    H8F12599   2.330   2.235   9.662 -0.0508 -0.0586 -1.4262
  119OSM    H8G12600   2.166   2.286   9.597  0.1242 -0.4039  1.2430
  119OSM    C9F12601   2.157   2.187   9.777 -0.3427 -0.3392  0.0975
  119OSM    H9F12602   2.157   2.209   9.885 -0.7827 -1.1264  0.2658
  119OSM   C10F12603   2.063   2.100   9.746 -0.5497 -0.5069 -0.1556
  119OSM   H10F12604   2.023   2.041   9.830 -0.3149 -0.7231 -0.1926
  119OSM   C11F12605   2.019   2.061   9.601 -0.1565  0.3818  0.0260
  119OSM   H11F12606   2.035   1.952   9.584  0.2865  0.4533 -0.0436
  119OSM   H11G12607   2.069   2.118   9.520 -0.4612 -0.6343 -0.9044
  119OSM   C12F12608   1.871   2.092   9.584  0.1941  0.0771 -0.3188
  119OSM   H12F12609   1.873   2.202   9.572  0.4340  0.1910  0.6401
  119OSM   H12G12610   1.811   2.074   9.676 -0.3668  1.5372 -0.3847
  119OSM   C13F12611   1.805   2.032   9.454 -0.3424 -0.3410  0.2674
  119OSM   H13F12612   1.710   2.090   9.445 -1.1297 -1.8237 -1.7551
  119OSM   H13G12613   1.765   1.930   9.473  0.6772 -0.6280  0.9181
  119OSM   C14F12614   1.878   2.054   9.328  0.2587  0.0703  0.1610
  119OSM   H14F12615   1.973   1.998   9.310  1.9307  2.1396  1.9096
  119OSM   H14G12616   1.907   2.162   9.323 -1.5801  0.7392  2.4210
  119OSM   C15F12617   1.784   2.020   9.208  0.0959 -0.7985 -0.5232
  119OSM   H15F12618   1.809   2.081   9.118 -1.6936 -0.8636 -1.0922
  119OSM   H15G12619   1.680   2.052   9.231  0.1918 -1.0482  0.2611
  119OSM   C16F12620   1.791   1.868   9.172  0.3422  0.3417  0.5515
  119OSM   H16F12621   1.791   1.819   9.272  4.0554  1.0227  1.0522
  119OSM   H16G12622   1.892   1.857   9.127  0.3373  2.4430 -0.0939
  119OSM   C17F12623   1.680   1.821   9.082  0.7275  0.2960  0.3147
  119OSM   H17F12624   1.687   1.875   8.984  0.4901 -2.0780 -1.0846
  119OSM   H17G12625   1.581   1.838   9.128  0.7107  2.6540 -0.4155
  119OSM   C18F12626   1.692   1.672   9.046  0.2520 -0.7283  0.1239
  119OSM   H18F12627   1.721   1.628   9.144 -0.3776  1.6931  1.4600
  119OSM   H18G12628   1.782   1.655   8.983  0.1924  1.7193 -0.7236
  119OSM   H18H12629   1.598   1.634   8.999 -0.3000  1.1856 -0.4353
  120OSM      N12630   3.263   4.454  11.023  0.0862  0.5227  0.0452
  120OSM    C1512631   3.194   4.568  10.950  0.5530  0.1756  0.1640
  120OSM   H15A12632   3.152   4.530  10.858  0.1802  0.2421  0.3077
  120OSM   H15B12633   3.270   4.642  10.930  1.0867  0.1980  2.0328
  120OSM   H15C12634   3.115   4.601  11.016  2.4541 -0.1728  2.7934
  120OSM    C1412635   3.333   4.508  11.149  0.1329 -0.2572 -0.1180
  120OSM   H14A12636   3.375   4.429  11.209  0.9981  0.7738  0.6616
  120OSM   H14B12637   3.264   4.565  11.210 -1.0785 -1.5039 -0.2583
  120OSM   H14C12638   3.407   4.581  11.123  1.6608 -1.0199  1.8182
  120OSM    C1312639   3.152   4.356  11.061 -0.1248  0.4374 -0.0580
  120OSM   H13A12640   3.178   4.289  11.141 -0.0197 -0.9321 -1.1990
  120OSM   H13B12641   3.135   4.285  10.981 -1.4007  1.2706 -0.5696
  120OSM   H13C12642   3.057   4.406  11.074 -1.3023 -1.1606 -1.8554
  120OSM    C1212643   3.363   4.381  10.933  0.1260 -0.4959 -0.1385
  120OSM   H12A12644   3.397   4.288  10.975  1.2352  0.5510  1.3781
  120OSM   H12B12645   3.456   4.436  10.934 -1.8123  3.1022 -0.1452
  120OSM    C1112646   3.312   4.355  10.798 -0.7624 -0.4362 -0.3794
  120OSM   H11A12647   3.398   4.316  10.738 -0.7054  0.6740 -1.0552
  120OSM   H11B12648   3.298   4.453  10.746 -2.8870 -1.0099 -0.9843
  120OSM      P12649   3.079   4.262  10.714  0.0084 -0.1554 -0.8007
  120OSM    O1312650   3.055   4.119  10.671 -0.2893 -0.4027  0.1411
  120OSM    O1412651   2.972   4.348  10.777 -1.0343 -0.0957 -0.1355
  120OSM    O1112652   3.136   4.329  10.589 -0.3135  0.1208  0.3795
  120OSM    O1212653   3.210   4.266  10.800  0.2226  0.8355  0.3485
  120OSM    C1S12654   3.230   4.276  10.502 -0.1829 -0.9348 -0.0891
  120OSM    H1S12655   3.253   4.171  10.530 -0.4598 -0.8107  0.6098
  120OSM    H1T12656   3.324   4.336  10.506 -0.5528 -0.4138  0.9607
  120OSM     NF12657   3.288   4.223  10.265 -0.1641 -0.2602 -0.6903
  120OSM    HNF12658   3.342   4.289  10.215 -1.8884 -2.1787 -5.6644
  120OSM    C2S12659   3.189   4.278  10.353 -0.3228 -0.3507  0.2736
  120OSM    H2S12660   3.095   4.219  10.345 -2.3742  2.8083 -0.8013
  120OSM    C3S12661   3.145   4.424  10.315  0.4497  0.1482  0.1147
  120OSM    H3S12662   3.238   4.480  10.290  0.2680  0.5018  0.2221
  120OSM     O312663   3.073   4.503  10.407 -0.1340 -0.1504  0.3619
  120OSM    HO312664   3.074   4.453  10.489  1.0163  2.1769  1.8715
  120OSM    C4S12665   3.073   4.425  10.178  0.4072 -0.9101 -0.2999
  120OSM    H4S12666   3.136   4.458  10.094 -0.7890  0.4575 -0.7247
  120OSM    C5S12667   2.946   4.388  10.150  0.2459  0.2085 -0.7980
  120OSM    H5S12668   2.883   4.349  10.231  2.6486 -2.0600  0.1035
  120OSM    C6S12669   2.875   4.390  10.009 -0.4961  0.2230 -0.6055
  120OSM    H6S12670   2.781   4.448  10.016  0.5402  1.7762  1.6543
  120OSM    H6T12671   2.830   4.288  10.007 -1.5194  0.3265  4.4645
  120OSM    C7S12672   2.969   4.417   9.889 -0.0903 -0.0389  0.1562
  120OSM    H7S12673   3.047   4.340   9.874 -0.4814 -0.7772  1.6483
  120OSM    H7T12674   3.020   4.515   9.903  0.1050 -0.1082 -0.0823
  120OSM    C8S12675   2.894   4.422   9.758 -0.5985  0.3335  0.6801
  120OSM    H8S12676   2.814   4.500   9.764  0.1924  1.1818  0.4740
  120OSM    H8T12677   2.845   4.324   9.740 -3.9422  2.1137 -0.9800
  120OSM    C9S12678   3.002   4.453   9.645  0.4479  0.5598  0.0829
  120OSM    H9S12679   3.075   4.370   9.636  0.4211  0.7378 -2.4870
  120OSM    H9T12680   3.062   4.547   9.655 -1.0152  2.1315 -3.9522
  120OSM   C10S12681   2.937   4.474   9.508  0.1116 -0.1834 -0.1112
  120OSM   H10S12682   2.863   4.556   9.515 -0.2023 -0.5467  0.9882
  120OSM   H10T12683   2.884   4.381   9.480 -2.1295 -0.1177  3.3065
  120OSM   C11S12684   3.044   4.505   9.401 -0.6205 -0.1085  0.2893
  120OSM   H11S12685   3.095   4.406   9.401  0.6469  0.4977  2.0570
  120OSM   H11T12686   3.128   4.572   9.430 -2.6189  2.0023  1.5736
  120OSM   C12S12687   2.990   4.548   9.265 -0.3133  0.0643  0.7002
  120OSM   H12S12688   3.082   4.558   9.203  0.4563 -0.9548  1.6369
  120OSM   H12T12689   2.952   4.652   9.277  2.2901  1.2199 -0.3334
  120OSM   C13S12690   2.891   4.451   9.195 -0.2714  0.3550  0.1661
  120OSM   H13S12691   2.793   4.457   9.247 -0.1864 -1.1374  0.5414
  120OSM   H13T12692   2.926   4.346   9.205 -0.4693  0.2364 -0.3302
  120OSM   C14S12693   2.875   4.475   9.045 -0.4054 -0.5254 -0.8908
  120OSM   H14S12694   2.973   4.449   9.000  1.2591  0.2142  2.0322
  120OSM   H14T12695   2.861   4.585   9.030  1.7607  0.0981  1.0226
  120OSM   C15S12696   2.750   4.400   8.990 -0.5857 -0.4341  0.2018
  120OSM   H15S12697   2.767   4.290   8.989 -1.0491 -0.5142  0.5144
  120OSM   H15T12698   2.736   4.433   8.886 -0.4545 -0.5765  0.1380
  120OSM   C16S12699   2.618   4.442   9.072 -0.2737  0.5110  0.2226
  120OSM   H16S12700   2.620   4.551   9.091 -1.7336  0.6954 -0.5209
  120OSM   H16T12701   2.606   4.406   9.177  1.2080 -2.0311 -0.3966
  120OSM   C17S12702   2.495   4.415   8.987 -0.6444  0.1421 -0.6649
  120OSM   H17S12703   2.462   4.313   9.016 -0.6567  0.9739  2.6055
  120OSM   H17T12704   2.532   4.424   8.882  0.4421 -0.8964 -0.3915
  120OSM   C18S12705   2.373   4.504   9.018  0.3089 -0.1536 -0.0740
  120OSM   H18S12706   2.358   4.523   9.127  1.7672  0.6491  0.0227
  120OSM   H18T12707   2.272   4.482   8.979 -0.8366  2.3072  1.2873
  120OSM   H18U12708   2.406   4.608   8.995  0.7139 -0.2450  0.0836
  120OSM    C1F12709   3.310   4.095  10.262 -0.5898  0.2521  0.0066
  120OSM     OF12710   3.229   4.016  10.312  0.2468  0.0438  0.0745
  120OSM    C2F12711   3.430   4.051  10.184  0.7995 -0.3415 -0.2358
  120OSM    H2F12712   3.517   4.085  10.243  0.6081 -0.1149 -0.0822
  120OSM    H2G12713   3.428   4.113  10.093 -0.3274 -0.7703 -0.5188
  120OSM    C3F12714   3.435   3.905  10.155 -0.1577 -0.2854  0.3331
  120OSM    H3F12715   3.345   3.883  10.093  0.2569  1.8409 -1.1372
  120OSM    H3G12716   3.424   3.853  10.252  0.9008  0.0244  0.6366
  120OSM    C4F12717   3.566   3.866  10.077 -0.0364 -0.2106 -0.5250
  120OSM    H4F12718   3.560   3.755  10.068 -0.3642 -0.0857 -2.0630
  120OSM    H4G12719   3.650   3.895  10.144  1.7193 -0.5752 -2.4946
  120OSM    C5F12720   3.596   3.928   9.941 -0.9333 -0.1892  0.0538
  120OSM    H5F12721   3.703   3.899   9.929 -0.8495 -0.2012  0.7771
  120OSM    H5G12722   3.607   4.038   9.953  1.8981 -0.5554  1.8338
  120OSM    C6F12723   3.491   3.897   9.832  0.1020 -0.3239 -0.0539
  120OSM    H6F12724   3.394   3.929   9.876 -0.5994  0.6994 -2.2112
  120OSM    H6G12725   3.470   3.788   9.830 -0.4349 -0.2121 -0.9488
  120OSM    C7F12726   3.520   3.967   9.698 -0.2466  0.4762  0.0910
  120OSM    H7F12727   3.620   3.942   9.657 -0.6286 -0.7619 -0.1393
  120OSM    H7G12728   3.525   4.075   9.723 -0.4042  0.7029 -0.8237
  120OSM    C8F12729   3.426   3.934   9.577  0.2418  1.0217 -0.0050
  120OSM    H8F12730   3.440   3.824   9.565  2.9947  1.3249 -0.1438
  120OSM    H8G12731   3.465   3.990   9.490 -1.2890  1.7999 -0.2320
  120OSM    C9F12732   3.278   3.964   9.605 -0.9781  0.3790  0.1103
  120OSM    H9F12733   3.232   3.903   9.684  0.1604 -0.9443 -0.2203
  120OSM   C10F12734   3.210   4.071   9.555  0.2778  0.3398  0.4828
  120OSM   H10F12735   3.105   4.084   9.583  0.4489 -0.4154  1.5288
  120OSM   C11F12736   3.262   4.177   9.458 -0.0750  0.4394 -0.1363
  120OSM   H11F12737   3.372   4.172   9.442  0.0792  1.8662  0.3476
  120OSM   H11G12738   3.242   4.275   9.505 -2.2178  0.3023 -0.6455
  120OSM   C12F12739   3.204   4.161   9.315  0.0315 -0.7246  0.8272
  120OSM   H12F12740   3.095   4.179   9.330  0.2968  0.3152  1.6068
  120OSM   H12G12741   3.215   4.055   9.283 -1.2122 -0.7995  0.5744
  120OSM   C13F12742   3.265   4.250   9.206 -0.0299  0.1234 -1.1519
  120OSM   H13F12743   3.376   4.244   9.206  0.3032  3.3310  1.0812
  120OSM   H13G12744   3.252   4.359   9.227  0.9179  0.1394 -0.6001
  120OSM   C14F12745   3.198   4.223   9.071 -0.0906 -0.0481 -0.2400
  120OSM   H14F12746   3.092   4.233   9.101  0.6100 -1.2246  3.0811
  120OSM   H14G12747   3.215   4.118   9.042 -0.4116  0.4204 -2.3093
  120OSM   C15F12748   3.243   4.322   8.965 -0.5090  0.0184  0.2726
  120OSM   H15F12749   3.353   4.327   8.980 -0.9537 -0.3812  5.3791
  120OSM   H15G12750   3.197   4.416   9.001 -2.4099  0.0211 -1.9495
  120OSM   C16F12751   3.188   4.299   8.829  0.3650 -0.2350 -0.1930
  120OSM   H16F12752   3.190   4.395   8.773 -0.7699 -0.9383 -1.4997
  120OSM   H16G12753   3.081   4.276   8.847  0.5095 -0.4470  0.4082
  120OSM   C17F12754   3.235   4.180   8.748 -0.2480  0.2711  0.6357
  120OSM   H17F12755   3.235   4.087   8.809  0.3408 -0.8740 -1.0362
  120OSM   H17G12756   3.343   4.200   8.727 -0.7999  1.4521 -1.2370
  120OSM   C18F12757   3.152   4.159   8.628 -0.4092 -0.6899  0.2306
  120OSM   H18F12758   3.182   4.064   8.577  1.0637  0.5697 -1.3826
  120OSM   H18G12759   3.165   4.246   8.560 -2.8182 -1.1348 -0.9152
  120OSM   H18H12760   3.046   4.145   8.658 -0.8377 -0.8321 -1.2355
  121OSM      N12761   5.422   1.781  10.860  0.2712  0.5942  0.2396
  121OSM    C1512762   5.370   1.886  10.759 -0.2544 -0.2527 -0.2798
  121OSM   H15A12763   5.421   1.886  10.664 -0.0269 -0.1258 -0.1562
  121OSM   H15B12764   5.364   1.986  10.799 -1.9497  0.1733 -1.4477
  121OSM   H15C12765   5.266   1.867  10.734  0.0582  0.1040 -1.9738
  121OSM    C1412766   5.561   1.817  10.897 -0.0750 -0.3485  0.0061
  121OSM   H14A12767   5.624   1.850  10.815  1.3269  1.3308  1.6672
  121OSM   H14B12768   5.610   1.732  10.941  1.4795  0.2611 -0.4745
  121OSM   H14C12769   5.571   1.893  10.973  0.6771  0.0961 -0.5301
  121OSM    C1312770   5.334   1.780  10.984  0.3373  0.3110  0.0910
  121OSM   H13A12771   5.230   1.765  10.959  0.2900  2.7755 -1.5016
  121OSM   H13B12772   5.332   1.880  11.024  0.3216  0.4317 -0.2124
  121OSM   H13C12773   5.369   1.711  11.060  0.0996  3.3026  3.1616
  121OSM    C1212774   5.427   1.647  10.792  0.3527  0.2092 -0.5369
  121OSM   H12A12775   5.485   1.656  10.701  1.0590 -1.8512 -0.3478
  121OSM   H12B12776   5.326   1.619  10.766  0.4765 -1.4716  0.6213
  121OSM    C1112777   5.493   1.524  10.872  1.0289 -0.4886 -0.1473
  121OSM   H11A12778   5.467   1.425  10.829  0.7745 -1.0678  1.2748
  121OSM   H11B12779   5.430   1.529  10.963 -0.0130 -1.5533 -0.7886
  121OSM      P12780   5.761   1.493  10.838  0.0234  0.1302  0.1045
  121OSM    O1312781   5.876   1.577  10.882  0.0262  0.1381 -0.3163
  121OSM    O1412782   5.771   1.347  10.863 -0.5620 -0.4533 -0.4093
  121OSM    O1112783   5.734   1.518  10.685 -0.0730  0.5123  0.1039
  121OSM    O1212784   5.628   1.543  10.907  0.9673 -0.4939  0.1146
  121OSM    C1S12785   5.666   1.441  10.585  0.0872 -0.2306 -0.9842
  121OSM    H1S12786   5.564   1.430  10.629  1.0684  1.0562  1.9222
  121OSM    H1T12787   5.708   1.339  10.575  1.9610  0.5026 -1.0100
  121OSM     NF12788   5.565   1.463  10.359  0.2453  0.5373 -0.0708
  121OSM    HNF12789   5.599   1.398  10.291  1.3221 -0.6803  1.5637
  121OSM    C2S12790   5.662   1.511  10.450 -0.7319 -0.7548 -0.4996
  121OSM    H2S12791   5.637   1.618  10.466 -1.1878 -1.0924  1.3404
  121OSM    C3S12792   5.801   1.495  10.389 -0.4157  0.2408 -0.0352
  121OSM    H3S12793   5.820   1.387  10.375  0.1666  0.1537  1.3164
  121OSM     O312794   5.906   1.544  10.477 -0.5695  0.6187  0.3195
  121OSM    HO312795   5.861   1.575  10.556  0.6296 -0.7629  1.6068
  121OSM    C4S12796   5.813   1.564  10.247  0.2568  0.0174 -0.7582
  121OSM    H4S12797   5.787   1.501  10.161 -1.2448  0.5846 -0.7577
  121OSM    C5S12798   5.861   1.690  10.215  0.4500  0.5497  0.3640
  121OSM    H5S12799   5.904   1.762  10.286 -0.4848  1.1809  0.2996
  121OSM    C6S12800   5.876   1.747  10.072  0.0262 -0.4670 -0.2077
  121OSM    H6S12801   5.966   1.811  10.061 -0.2485 -0.1007 -0.3511
  121OSM    H6T12802   5.786   1.811  10.058 -1.3844 -1.8783  1.8553
  121OSM    C7S12803   5.872   1.639   9.955 -0.0556  0.0030  0.4069
  121OSM    H7S12804   5.771   1.593   9.947 -0.5515  0.9071  1.3049
  121OSM    H7T12805   5.942   1.554   9.966 -0.8258 -0.6857  0.1253
  121OSM    C8S12806   5.908   1.711   9.829 -0.6328 -0.6041 -0.1286
  121OSM    H8S12807   6.009   1.755   9.837 -0.8521 -0.1266  0.0765
  121OSM    H8T12808   5.844   1.802   9.826  0.6378  0.3050 -2.0017
  121OSM    C9S12809   5.900   1.616   9.703 -0.2249 -0.1291  0.4204
  121OSM    H9S12810   5.804   1.563   9.713  1.0386 -2.7706 -0.6146
  121OSM    H9T12811   5.987   1.546   9.700 -0.7941 -0.8182 -1.6533
  121OSM   C10S12812   5.911   1.693   9.565  0.3757  0.6437  0.1068
  121OSM   H10S12813   6.006   1.749   9.547  3.2987 -3.7622  0.2530
  121OSM   H10T12814   5.829   1.767   9.559 -0.8329 -0.6516  0.2170
  121OSM   C11S12815   5.905   1.584   9.456 -0.6717  0.4215  0.2059
  121OSM   H11S12816   5.816   1.518   9.468 -0.2862 -0.6016 -2.0153
  121OSM   H11T12817   5.987   1.509   9.463 -1.4151 -0.5900 -1.3920
  121OSM   C12S12818   5.897   1.636   9.315 -0.1191 -0.4085  0.2581
  121OSM   H12S12819   5.985   1.700   9.291 -1.1259  1.2290  0.7972
  121OSM   H12T12820   5.806   1.699   9.318  0.0190 -0.1298 -0.9039
  121OSM   C13S12821   5.880   1.531   9.204 -0.2129 -0.3493 -1.0215
  121OSM   H13S12822   5.795   1.468   9.239  0.9630 -0.9482  0.9298
  121OSM   H13T12823   5.972   1.470   9.209  1.6021  2.2666 -0.3225
  121OSM   C14S12824   5.862   1.591   9.056  0.6304  0.7321  0.4870
  121OSM   H14S12825   5.940   1.667   9.038  0.4717  0.4339 -1.7876
  121OSM   H14T12826   5.769   1.651   9.046  0.2310  0.3315  1.6108
  121OSM   C15S12827   5.879   1.485   8.948  0.1453  0.3529  0.1754
  121OSM   H15S12828   5.807   1.402   8.965  1.4397 -1.1209 -1.1445
  121OSM   H15T12829   5.974   1.428   8.943 -0.1243 -0.1534  0.7246
  121OSM   C16S12830   5.839   1.543   8.815 -0.2709  0.7247  0.4473
  121OSM   H16S12831   5.935   1.582   8.776  0.8816 -1.0295  1.3625
  121OSM   H16T12832   5.765   1.626   8.820 -1.6542 -0.4960  1.1834
  121OSM   C17S12833   5.791   1.436   8.719  0.7112 -0.4096 -0.2610
  121OSM   H17S12834   5.706   1.379   8.763 -0.0719  1.3536  0.6114
  121OSM   H17T12835   5.876   1.366   8.708  1.8823  1.3012 -3.1827
  121OSM   C18S12836   5.753   1.493   8.576 -0.0280  0.0132 -0.4256
  121OSM   H18S12837   5.740   1.415   8.498 -2.4702 -0.3697  0.2870
  121OSM   H18T12838   5.841   1.554   8.546  0.2957 -1.2383 -2.2037
  121OSM   H18U12839   5.660   1.555   8.582 -0.8913 -1.1728 -1.1687
  121OSM    C1F12840   5.433   1.496  10.398 -0.1114  0.8957  1.0480
  121OSM     OF12841   5.410   1.580  10.483  0.4927  0.2593  0.1114
  121OSM    C2F12842   5.309   1.427  10.327 -0.1777  0.3558 -0.1719
  121OSM    H2F12843   5.226   1.500  10.332  1.7358  2.6283  0.4199
  121OSM    H2G12844   5.284   1.344  10.397  1.1348 -0.0780 -0.1887
  121OSM    C3F12845   5.341   1.364  10.189  0.3617 -0.2709  0.4803
  121OSM    H3F12846   5.402   1.271  10.189  0.6897 -0.0576  0.3448
  121OSM    H3G12847   5.383   1.443  10.123 -0.4119 -0.9155 -0.8185
  121OSM    C4F12848   5.210   1.310  10.112  0.2097 -0.7955  0.6691
  121OSM    H4F12849   5.249   1.295  10.009 -0.1010  1.2834  0.2058
  121OSM    H4G12850   5.139   1.396  10.111 -0.5766 -1.4117  1.3626
  121OSM    C5F12851   5.158   1.183  10.168 -0.2409 -0.2708 -0.3543
  121OSM    H5F12852   5.093   1.215  10.253 -1.1798  1.0005 -1.5004
  121OSM    H5G12853   5.247   1.129  10.205  0.0470 -0.4654 -1.3026
  121OSM    C6F12854   5.078   1.099  10.059  0.5877  0.3478 -0.0710
  121OSM    H6F12855   5.147   1.042   9.993 -0.8824 -0.1955 -1.1966
  121OSM    H6G12856   5.021   1.172   9.998  0.0021 -1.2562 -1.5040
  121OSM    C7F12857   4.973   1.000  10.121 -0.3710 -0.0223  0.2852
  121OSM    H7F12858   4.899   1.062  10.175 -1.1285 -1.1861  0.6324
  121OSM    H7G12859   5.029   0.940  10.196 -0.1054 -0.2701 -0.1142
  121OSM    C8F12860   4.895   0.909  10.020 -0.5912 -0.6340  0.2555
  121OSM    H8F12861   4.836   0.974   9.952 -0.3380  1.9659  2.3590
  121OSM    H8G12862   4.817   0.846  10.067 -1.4770 -0.6592 -1.1892
  121OSM    C9F12863   4.990   0.813   9.948 -0.3775 -0.0130  0.4375
  121OSM    H9F12864   5.047   0.738  10.005  1.0263  1.4149  0.9968
  121OSM   C10F12865   5.016   0.820   9.818  0.3315  0.5153  0.4393
  121OSM   H10F12866   5.076   0.738   9.777 -1.3253 -0.0863 -0.8779
  121OSM   C11F12867   4.953   0.917   9.724 -0.3387  0.5944  0.9110
  121OSM   H11F12868   4.922   1.021   9.747  1.2240  1.3230 -0.1331
  121OSM   H11G12869   4.851   0.877   9.702 -0.5197 -0.0805  2.7948
  121OSM   C12F12870   5.047   0.936   9.602 -0.2209 -0.7378 -0.2110
  121OSM   H12F12871   5.148   0.965   9.637 -1.0092 -0.2445  1.8076
  121OSM   H12G12872   5.029   1.034   9.553  0.2341 -0.5172  0.0600
  121OSM   C13F12873   5.042   0.808   9.512  0.7560 -1.1449 -0.3123
  121OSM   H13F12874   4.934   0.783   9.510  0.4096  0.1424  0.7961
  121OSM   H13G12875   5.106   0.727   9.551 -0.7748 -3.0477 -1.5679
  121OSM   C14F12876   5.106   0.832   9.378  0.1131 -0.9916 -0.0303
  121OSM   H14F12877   5.113   0.733   9.329 -1.0468 -2.5244  2.6728
  121OSM   H14G12878   5.206   0.878   9.394 -0.6759 -0.0140  2.8432
  121OSM   C15F12879   5.023   0.933   9.295 -0.4621  0.9489  0.6823
  121OSM   H15F12880   5.005   1.031   9.344 -1.1979  1.2457 -0.1524
  121OSM   H15G12881   4.926   0.883   9.274  0.2989 -0.7613  1.0432
  121OSM   C16F12882   5.102   0.970   9.167  0.6078  0.3837  0.1804
  121OSM   H16F12883   5.138   0.880   9.114  0.9317  1.1428 -0.9193
  121OSM   H16G12884   5.199   1.021   9.185  1.4903 -0.6609 -1.3509
  121OSM   C17F12885   5.023   1.049   9.062 -0.2429 -0.5160 -0.1601
  121OSM   H17F12886   5.080   1.053   8.967  2.3277  1.9563  1.3488
  121OSM   H17G12887   5.015   1.157   9.087 -0.0007 -0.6618  0.6012
  121OSM   C18F12888   4.886   0.995   9.030  0.2616 -0.1871  0.8452
  121OSM   H18F12889   4.815   1.005   9.115 -0.4824 -0.5139  0.2816
  121OSM   H18G12890   4.903   0.888   9.004 -1.1364  0.0680 -1.4374
  121OSM   H18H12891   4.841   1.042   8.940  0.0956 -0.4591  0.7836
  122OSM      N12892   1.638   4.392  10.776 -0.3193  0.0597  0.0982
  122OSM    C1512893   1.646   4.263  10.688 -0.3566 -0.0506 -0.3057
  122OSM   H15A12894   1.682   4.284  10.588  0.9478 -0.9139 -0.0460
  122OSM   H15B12895   1.547   4.221  10.676 -0.0106 -1.7359  1.9986
  122OSM   H15C12896   1.711   4.197  10.745 -1.9396 -0.7282  0.8003
  122OSM    C1412897   1.592   4.354  10.915  0.1524 -0.2944 -0.1485
  122OSM   H14A12898   1.562   4.442  10.970 -0.9875 -2.2012  2.4726
  122OSM   H14B12899   1.663   4.289  10.963  2.5637  0.1076 -2.9052
  122OSM   H14C12900   1.501   4.296  10.910 -0.8715 -0.0509  6.4763
  122OSM    C1312901   1.766   4.464  10.779 -0.1325  0.3750  0.0570
  122OSM   H13A12902   1.809   4.475  10.681  0.2231 -1.1492  0.0179
  122OSM   H13B12903   1.835   4.412  10.843  0.3122  1.0546  0.1446
  122OSM   H13C12904   1.751   4.561  10.824  0.9012  2.1628 -3.1125
  122OSM    C1212905   1.528   4.485  10.711 -0.1716 -0.0292  0.1579
  122OSM   H12A12906   1.438   4.428  10.695 -0.3653  0.4138 -0.3652
  122OSM   H12B12907   1.554   4.521  10.612  1.6618  0.0239  0.6321
  122OSM    C1112908   1.470   4.601  10.795  0.1765 -0.1605 -0.1192
  122OSM   H11A12909   1.429   4.560  10.890  1.1181 -1.1768 -0.1313
  122OSM   H11B12910   1.386   4.639  10.734 -0.5209  0.2235  1.0368
  122OSM      P12911   1.636   4.807  10.753  0.2097  0.5595  0.0307
  122OSM    O1312912   1.585   4.940  10.781  0.8259 -0.2725  1.2212
  122OSM    O1412913   1.781   4.778  10.779 -0.5281  0.0644 -0.1779
  122OSM    O1112914   1.597   4.767  10.606  0.0875 -0.1426  0.2304
  122OSM    O1212915   1.557   4.700  10.841 -0.4820 -0.3898  0.7362
  122OSM    C1S12916   1.503   4.840  10.528 -0.2269  0.2653  0.5710
  122OSM    H1S12917   1.495   4.947  10.556 -2.0644  0.0041  1.1965
  122OSM    H1T12918   1.405   4.788  10.537  0.0106 -0.6673 -1.5042
  122OSM     NF12919   1.444   4.882  10.272 -0.8651  0.5154  0.3117
  122OSM    HNF12920   1.382   4.817  10.229  0.5775 -1.6799  1.3903
  122OSM    C2S12921   1.538   4.821  10.368  0.7294  0.2981 -0.2214
  122OSM    H2S12922   1.624   4.891  10.361  0.7287  0.5864  1.9487
  122OSM    C3S12923   1.567   4.677  10.337  0.8012  0.1939 -0.3282
  122OSM    H3S12924   1.479   4.624  10.380 -1.1073  2.1298 -1.6353
  122OSM     O312925   1.686   4.615  10.392 -0.7115 -0.0207 -0.1541
  122OSM    HO312926   1.713   4.668  10.467  3.9958 -3.1397  0.7922
  122OSM    C4S12927   1.566   4.654  10.189 -0.0926 -0.0510 -0.1106
  122OSM    H4S12928   1.631   4.716  10.126 -0.7944  0.0383 -0.7644
  122OSM    C5S12929   1.490   4.558  10.129  0.4095 -0.2572  0.2224
  122OSM    H5S12930   1.422   4.501  10.194  1.5828  0.5860  2.2467
  122OSM    C6S12931   1.488   4.527   9.985 -0.7533  0.5225  0.0873
  122OSM    H6S12932   1.393   4.560   9.937 -0.3696  4.4149  1.6001
  122OSM    H6T12933   1.485   4.416   9.981 -0.7789  0.5401 -0.4825
  122OSM    C7S12934   1.608   4.591   9.901 -0.0942  0.3011 -0.3046
  122OSM    H7S12935   1.698   4.576   9.963 -0.9907  0.2265  1.0330
  122OSM    H7T12936   1.593   4.701   9.898 -3.9336 -0.0542  0.2862
  122OSM    C8S12937   1.627   4.537   9.766  0.0385  0.3382 -0.1582
  122OSM    H8S12938   1.620   4.427   9.781  0.3517  0.5908  2.3162
  122OSM    H8T12939   1.728   4.560   9.726 -0.0839  0.7531 -0.2311
  122OSM    C9S12940   1.526   4.590   9.663  1.1521 -0.2805  0.4737
  122OSM    H9S12941   1.518   4.701   9.657 -0.9414 -0.4046 -0.0260
  122OSM    H9T12942   1.424   4.554   9.688  0.0467  2.3892  0.1364
  122OSM   C10S12943   1.552   4.546   9.521  0.9811  0.3682  0.8953
  122OSM   H10S12944   1.547   4.435   9.509 -0.3846  0.6828 -2.5427
  122OSM   H10T12945   1.651   4.581   9.487  0.8793  0.5670  0.8049
  122OSM   C11S12946   1.440   4.585   9.419 -0.6142  0.7720 -0.0903
  122OSM   H11S12947   1.337   4.563   9.454 -0.1734 -1.5495 -0.1400
  122OSM   H11T12948   1.461   4.526   9.328 -0.6951  0.4509  0.0972
  122OSM   C12S12949   1.448   4.739   9.388 -0.6404  0.5174  0.3296
  122OSM   H12S12950   1.555   4.766   9.397 -0.5126  0.0684  0.1914
  122OSM   H12T12951   1.394   4.796   9.466  0.0435  1.6825 -0.0219
  122OSM   C13S12952   1.389   4.780   9.249 -0.6307  0.0053  0.1670
  122OSM   H13S12953   1.291   4.729   9.239 -0.5823 -0.4759  1.8760
  122OSM   H13T12954   1.454   4.751   9.164 -4.5565  1.6920 -3.7918
  122OSM   C14S12955   1.369   4.934   9.246  0.3794 -0.6113 -0.4127
  122OSM   H14S12956   1.461   4.997   9.246  0.9777 -1.4546 -0.0376
  122OSM   H14T12957   1.314   4.969   9.336  0.5245  0.8583 -0.8659
  122OSM   C15S12958   1.300   4.989   9.118  0.1159  0.0995 -0.2747
  122OSM   H15S12959   1.190   4.974   9.121  0.2743 -1.2547 -0.8711
  122OSM   H15T12960   1.320   4.927   9.029  1.1432  0.4420 -0.2994
  122OSM   C16S12961   1.328   5.134   9.092 -0.9591  0.5455  0.1598
  122OSM   H16S12962   1.320   5.154   8.983 -1.7071  1.8359  0.4412
  122OSM   H16T12963   1.438   5.146   9.102 -0.9224 -0.8753  2.3090
  122OSM   C17S12964   1.245   5.230   9.171 -0.9099  0.3830  0.0705
  122OSM   H17S12965   1.293   5.330   9.163 -1.6503  0.6417 -1.4380
  122OSM   H17T12966   1.261   5.206   9.279  1.1857  0.5066 -0.1671
  122OSM   C18S12967   1.094   5.232   9.148 -0.6292 -0.0659  0.0560
  122OSM   H18S12968   1.051   5.131   9.168  0.2695 -0.6353 -0.8006
  122OSM   H18T12969   1.072   5.261   9.043 -1.2246 -0.6043  0.0278
  122OSM   H18U12970   1.044   5.304   9.217  1.3376  1.2757  0.1424
  122OSM    C1F12971   1.428   5.013  10.268 -0.5027 -0.5705  0.4261
  122OSM     OF12972   1.488   5.083  10.346  0.3108  0.2708  0.2395
  122OSM    C2F12973   1.327   5.075  10.171 -0.6020  0.2483 -0.2584
  122OSM    H2F12974   1.298   5.175  10.209 -1.5922 -0.4888  1.0010
  122OSM    H2G12975   1.243   5.003  10.176 -2.6239  2.5465  0.5270
  122OSM    C3F12976   1.394   5.083  10.032  0.6239 -0.8770 -0.3529
  122OSM    H3F12977   1.418   4.980   9.998 -0.8409 -0.9247 -1.3276
  122OSM    H3G12978   1.486   5.144  10.034  1.0275 -1.4438 -0.9114
  122OSM    C4F12979   1.315   5.148   9.923  0.1758 -0.9361 -0.0758
  122OSM    H4F12980   1.284   5.249   9.957  0.4543 -0.7602 -0.3423
  122OSM    H4G12981   1.234   5.074   9.902 -1.2478 -0.2103  2.4438
  122OSM    C5F12982   1.395   5.168   9.794 -0.3080  0.6545  0.0970
  122OSM    H5F12983   1.485   5.233   9.802 -0.8877  1.3533  1.2341
  122OSM    H5G12984   1.336   5.217   9.714  2.8590  0.3777 -2.5892
  122OSM    C6F12985   1.458   5.040   9.728  0.1902  0.4346  0.3535
  122OSM    H6F12986   1.357   5.000   9.705  0.8652 -0.3966 -1.3798
  122OSM    H6G12987   1.515   4.981   9.803  3.7147  3.5041  0.4022
  122OSM    C7F12988   1.530   5.069   9.598 -0.2182  0.3920 -0.4085
  122OSM    H7F12989   1.482   5.144   9.532 -2.0516 -1.1553 -0.9067
  122OSM    H7G12990   1.543   4.982   9.529  0.7912  0.1002  0.1189
  122OSM    C8F12991   1.671   5.121   9.635  0.5076  0.1279 -0.1519
  122OSM    H8F12992   1.659   5.222   9.681 -2.3181 -0.8905  1.6267
  122OSM    H8G12993   1.721   5.138   9.537  2.2855 -1.8531  0.3379
  122OSM    C9F12994   1.760   5.035   9.721 -0.8573  1.2021 -0.1928
  122OSM    H9F12995   1.785   5.075   9.820 -0.4796  0.6057 -0.0423
  122OSM   C10F12996   1.822   4.920   9.687  0.5444 -0.0411  0.1762
  122OSM   H10F12997   1.879   4.864   9.762  0.7261  1.8698  1.5457
  122OSM   C11F12998   1.810   4.850   9.550 -0.2097 -0.0403 -0.2060
  122OSM   H11F12999   1.782   4.925   9.473 -0.7235 -1.7732 -1.7790
  122OSM   H11G13000   1.730   4.773   9.554  1.2357 -1.5977 -0.0061
  122OSM   C12F13001   1.940   4.789   9.495  0.1755 -0.6710 -0.0115
  122OSM   H12F13002   1.934   4.768   9.386  0.3929 -0.6698 -0.0239
  122OSM   H12G13003   1.946   4.689   9.544 -1.3972 -2.2692 -2.7891
  122OSM   C13F13004   2.080   4.853   9.521  1.0583  0.3419  0.2207
  122OSM   H13F13005   2.155   4.773   9.507  2.6657  1.9488 -0.6896
  122OSM   H13G13006   2.089   4.891   9.625 -1.2159 -1.0323  1.0103
  122OSM   C14F13007   2.110   4.971   9.428  0.1562 -0.6639 -0.5258
  122OSM   H14F13008   2.203   5.013   9.473 -1.9925  4.0216  0.1658
  122OSM   H14G13009   2.041   5.053   9.459  2.1152  0.2808  1.7140
  122OSM   C15F13010   2.124   4.934   9.280  0.1858 -0.0280 -0.2303
  122OSM   H15F13011   2.024   4.890   9.258 -0.0095  0.5028 -0.4384
  122OSM   H15G13012   2.193   4.847   9.276 -1.0555 -1.2713  2.6670
  122OSM   C16F13013   2.153   5.045   9.176  0.4913  1.0387 -0.1453
  122OSM   H16F13014   2.242   5.109   9.190  2.0763 -0.0653 -3.9073
  122OSM   H16G13015   2.073   5.121   9.186  0.9116  1.3028  1.6525
  122OSM   C17F13016   2.154   4.981   9.038 -0.0281  0.5198 -0.0762
  122OSM   H17F13017   2.058   4.925   9.034 -0.6210  1.3928  1.1879
  122OSM   H17G13018   2.240   4.911   9.038 -0.4472 -0.0037  0.0587
  122OSM   C18F13019   2.161   5.068   8.915  0.0399 -0.1424  0.3443
  122OSM   H18F13020   2.062   5.095   8.874  0.8163  2.4958  0.0318
  122OSM   H18G13021   2.220   5.031   8.828 -1.0022  3.1214 -1.9362
  122OSM   H18H13022   2.205   5.166   8.943  1.0847  0.6896 -3.5396
  123OSM      N13023   4.776   5.131   6.029 -0.3122  0.3283  0.2524
  123OSM    C1513024   4.897   5.031   6.031 -0.0273 -0.0603  0.4662
  123OSM   H15A13025   4.942   5.032   6.129 -0.3500  0.9344  0.6150
  123OSM   H15B13026   4.958   5.042   5.943 -2.2608 -0.8563 -1.2555
  123OSM   H15C13027   4.865   4.928   6.023 -1.0494  0.1560  1.4208
  123OSM    C1413028   4.705   5.129   6.166 -0.4485 -0.3950 -0.2005
  123OSM   H14A13029   4.783   5.133   6.241 -1.9443 -0.4576  1.4181
  123OSM   H14B13030   4.650   5.038   6.180  1.5987 -1.3379  2.5072
  123OSM   H14C13031   4.643   5.214   6.190 -1.8955 -2.2349  3.1829
  123OSM    C1313032   4.852   5.257   5.995  0.1574  0.0933 -0.2408
  123OSM   H13A13033   4.944   5.243   5.941 -0.4269 -1.9799 -0.7756
  123OSM   H13B13034   4.865   5.323   6.080 -3.0274  1.4095 -0.6279
  123OSM   H13C13035   4.789   5.319   5.932 -0.3956  0.7821  0.9632
  123OSM    C1213036   4.687   5.090   5.919  0.9808  0.3893  0.4224
  123OSM   H12A13037   4.745   5.076   5.829  2.0035 -0.9405  1.2484
  123OSM   H12B13038   4.621   5.170   5.890  1.0254  0.3921  0.3273
  123OSM    C1113039   4.611   4.957   5.931 -0.2528 -0.0996 -0.1142
  123OSM   H11A13040   4.538   4.951   5.847 -2.0577 -2.7622  1.5145
  123OSM   H11B13041   4.539   4.972   6.014 -0.9458  0.3400 -0.7756
  123OSM      P13042   4.632   4.721   6.028 -0.5430 -0.0211  0.0980
  123OSM    O1313043   4.489   4.722   6.009  0.0159 -0.1647  0.1536
  123OSM    O1413044   4.702   4.597   6.001 -0.2333 -0.2978 -0.4042
  123OSM    O1113045   4.666   4.760   6.177 -0.7382  0.3436 -0.2506
  123OSM    O1213046   4.692   4.842   5.950  0.1163 -0.7380 -0.0504
  123OSM    C1S13047   4.622   4.692   6.298 -0.0552 -0.5035  0.6889
  123OSM    H1S13048   4.604   4.588   6.262  0.6614  0.1491 -1.7860
  123OSM    H1T13049   4.527   4.730   6.339  0.3984  1.5448 -0.0360
  123OSM     NF13050   4.663   4.618   6.512 -0.1051  0.2643 -0.4632
  123OSM    HNF13051   4.612   4.674   6.577  0.9361 -0.3349  0.9214
  123OSM    C2S13052   4.732   4.690   6.408  0.1816 -0.0317  0.0472
  123OSM    H2S13053   4.825   4.632   6.388  0.9278  1.0115  0.3936
  123OSM    C3S13054   4.771   4.835   6.444  0.0711  0.3308 -0.7850
  123OSM    H3S13055   4.679   4.893   6.464 -0.3175  0.1525 -2.0138
  123OSM     O313056   4.836   4.894   6.334 -0.4596  0.3343  0.2211
  123OSM    HO313057   4.804   4.844   6.259 -0.5715 -1.7352  1.5623
  123OSM    C4S13058   4.859   4.833   6.568 -0.2484 -0.3787 -0.0022
  123OSM    H4S13059   4.805   4.859   6.660 -0.6631 -1.6108  0.1198
  123OSM    C5S13060   5.001   4.831   6.561  0.0507  0.2742  0.5119
  123OSM    H5S13061   5.053   4.834   6.464 -2.0096 -0.6446 -0.6900
  123OSM    C6S13062   5.083   4.838   6.690 -0.6400  0.4758 -0.2277
  123OSM    H6S13063   5.080   4.948   6.710 -2.6738  1.2873 -3.9847
  123OSM    H6T13064   5.190   4.816   6.667 -0.8960 -0.9234 -0.1421
  123OSM    C7S13065   5.033   4.753   6.811 -1.1995  0.1921 -0.6217
  123OSM    H7S13066   5.031   4.646   6.781  0.7622  0.2078 -0.9194
  123OSM    H7T13067   4.928   4.783   6.833 -1.2905 -1.2626  1.1899
  123OSM    C8S13068   5.117   4.771   6.936  0.8313 -0.2338 -0.1010
  123OSM    H8S13069   5.103   4.878   6.963  2.1228  0.1384 -0.8218
  123OSM    H8T13070   5.224   4.761   6.910  0.9485 -0.0285  0.3048
  123OSM    C9S13071   5.070   4.683   7.064  0.2596 -0.4652 -0.2875
  123OSM    H9S13072   5.093   4.576   7.044 -0.6194 -0.9814  1.2949
  123OSM    H9T13073   4.960   4.698   7.074  0.3683  0.1758 -0.0321
  123OSM   C10S13074   5.137   4.744   7.186  0.2843  0.8429 -0.2141
  123OSM   H10S13075   5.088   4.840   7.211  0.4347  0.8745 -0.0331
  123OSM   H10T13076   5.246   4.756   7.166  0.4865 -0.3005  0.0959
  123OSM   C11S13077   5.125   4.649   7.311 -0.3040 -0.0329 -0.2634
  123OSM   H11S13078   5.153   4.545   7.284 -2.2888  0.1112 -3.4597
  123OSM   H11T13079   5.019   4.652   7.347 -0.7715 -0.2787 -1.5664
  123OSM   C12S13080   5.233   4.682   7.415  0.2299 -0.1397 -0.5265
  123OSM   H12S13081   5.286   4.768   7.368 -3.2479  1.4611 -1.8450
  123OSM   H12T13082   5.297   4.597   7.447 -0.5484  0.2941  2.5868
  123OSM   C13S13083   5.177   4.733   7.547 -0.0794  0.2813  0.1927
  123OSM   H13S13084   5.138   4.659   7.620 -3.8465  2.2391  0.4053
  123OSM   H13T13085   5.095   4.804   7.523  0.2934  0.3905 -0.8073
  123OSM   C14S13086   5.292   4.802   7.631  0.2336  0.3235 -0.4976
  123OSM   H14S13087   5.348   4.876   7.569 -0.5839  1.0247 -0.4103
  123OSM   H14T13088   5.363   4.723   7.663  0.3750  1.2318  1.5680
  123OSM   C15S13089   5.241   4.871   7.762 -0.0599  0.1475 -0.3741
  123OSM   H15S13090   5.137   4.905   7.742  0.4316  0.9740 -1.6723
  123OSM   H15T13091   5.292   4.970   7.773  3.6871 -1.6570  0.0597
  123OSM   C16S13092   5.246   4.782   7.889  0.1033 -0.1297 -0.3037
  123OSM   H16S13093   5.351   4.754   7.909 -0.2097 -0.8321  0.4379
  123OSM   H16T13094   5.186   4.689   7.875  1.8684 -1.2794 -0.5856
  123OSM   C17S13095   5.178   4.854   8.006 -0.5309  0.0329  0.5258
  123OSM   H17S13096   5.067   4.867   8.001 -0.4391  0.2744 -1.6000
  123OSM   H17T13097   5.220   4.957   8.011  1.0462 -0.4049 -2.0222
  123OSM   C18S13098   5.209   4.791   8.143  0.1643 -0.9681  0.2664
  123OSM   H18S13099   5.320   4.780   8.141  0.4940  0.3674  3.7295
  123OSM   H18T13100   5.163   4.691   8.160 -0.2277 -0.6607  1.0707
  123OSM   H18U13101   5.179   4.861   8.224  0.2820 -2.1804  1.3897
  123OSM    C1F13102   4.649   4.485   6.522 -0.0342 -0.0664 -0.1074
  123OSM     OF13103   4.685   4.416   6.429  0.4159 -0.3278 -0.0227
  123OSM    C2F13104   4.579   4.420   6.648 -0.6418  0.0545  0.8799
  123OSM    H2F13105   4.527   4.499   6.706 -1.5786 -0.2292  0.4502
  123OSM    H2G13106   4.660   4.381   6.713 -0.3531  1.8102  1.6177
  123OSM    C3F13107   4.476   4.306   6.617  0.1694 -0.8232  0.7313
  123OSM    H3F13108   4.518   4.223   6.557  0.8692 -0.1034  0.2147
  123OSM    H3G13109   4.403   4.358   6.551 -0.9680 -4.5193 -1.2437
  123OSM    C4F13110   4.396   4.259   6.735 -0.1477  0.3908  0.6225
  123OSM    H4F13111   4.305   4.203   6.704  0.3349 -1.0932  1.7530
  123OSM    H4G13112   4.361   4.345   6.797  3.5983  1.5825  1.3049
  123OSM    C5F13113   4.487   4.161   6.811  0.3440  0.1660  0.0626
  123OSM    H5F13114   4.572   4.220   6.851  0.3068  1.4772 -1.7341
  123OSM    H5G13115   4.518   4.076   6.747 -0.9850 -1.1070  1.0310
  123OSM    C6F13116   4.423   4.091   6.927  0.1945  0.2741  0.2189
  123OSM    H6F13117   4.345   4.018   6.898  0.8639 -0.2238 -0.3625
  123OSM    H6G13118   4.388   4.174   6.992 -1.1389  0.0214 -0.1632
  123OSM    C7F13119   4.533   4.011   7.006 -0.0135 -0.8092  0.7361
  123OSM    H7F13120   4.589   4.085   7.067  0.4015 -1.4960  1.1977
  123OSM    H7G13121   4.598   3.956   6.935 -0.0030 -0.7681  0.7135
  123OSM    C8F13122   4.478   3.906   7.096  0.2351 -0.7222  0.6769
  123OSM    H8F13123   4.566   3.854   7.140 -0.0853 -0.2795  1.8792
  123OSM    H8G13124   4.433   3.822   7.039 -1.3010 -0.8038  1.9574
  123OSM    C9F13125   4.381   3.951   7.201 -0.5117  0.6933  1.0754
  123OSM    H9F13126   4.279   3.961   7.162  0.0589 -0.8494 -0.9782
  123OSM   C10F13127   4.423   3.976   7.330 -0.5626  0.3480  0.9190
  123OSM   H10F13128   4.350   4.026   7.394 -1.6613  0.1207 -0.1160
  123OSM   C11F13129   4.563   3.966   7.379 -0.8170 -0.2073  0.2623
  123OSM   H11F13130   4.594   4.066   7.418 -2.3765  0.5107 -0.2203
  123OSM   H11G13131   4.637   3.929   7.306  2.2145  0.1629  2.9241
  123OSM   C12F13132   4.577   3.848   7.488  0.0290  0.0531 -0.0311
  123OSM   H12F13133   4.566   3.756   7.426 -2.8659  0.2247  0.0752
  123OSM   H12G13134   4.495   3.854   7.563 -1.1570  1.6068 -1.3651
  123OSM   C13F13135   4.703   3.857   7.573  0.0419  0.3988 -0.3901
  123OSM   H13F13136   4.694   3.951   7.632 -0.6217 -0.0687  0.2738
  123OSM   H13G13137   4.782   3.863   7.495 -0.1451  1.3747 -0.5203
  123OSM   C14F13138   4.716   3.741   7.671 -0.4280  0.1705  0.0065
  123OSM   H14F13139   4.771   3.654   7.628  2.1822  0.4538  2.4708
  123OSM   H14G13140   4.614   3.701   7.691 -0.4430  0.1347 -0.1334
  123OSM   C15F13141   4.797   3.771   7.800  0.7551  0.6520 -0.0554
  123OSM   H15F13142   4.877   3.845   7.776  1.7255 -0.5179 -0.5535
  123OSM   H15G13143   4.844   3.672   7.820 -0.2041 -0.0386 -1.1320
  123OSM   C16F13144   4.712   3.804   7.924 -0.0425  0.2470  0.3447
  123OSM   H16F13145   4.624   3.736   7.922  1.0382 -1.2241 -1.5353
  123OSM   H16G13146   4.661   3.899   7.897 -1.2806 -1.2270 -3.2170
  123OSM   C17F13147   4.798   3.794   8.047 -0.7932 -0.0491 -0.9478
  123OSM   H17F13148   4.887   3.859   8.034 -0.6644 -0.4890 -2.4391
  123OSM   H17G13149   4.836   3.690   8.060 -1.6392 -0.7828 -3.6248
  123OSM   C18F13150   4.729   3.814   8.181 -0.1432 -0.5119 -0.9364
  123OSM   H18F13151   4.804   3.783   8.257 -1.1894 -0.4902  0.1308
  123OSM   H18G13152   4.639   3.749   8.173  0.3915 -1.2601 -0.9921
  123OSM   H18H13153   4.697   3.919   8.193  0.0600 -0.6621  1.5089
  124OSM      N13154   6.190   0.773   5.839  0.0726  0.4703 -0.0015
  124OSM    C1513155   6.058   0.740   5.781  0.9508  0.0372  0.0140
  124OSM   H15A13156   5.975   0.802   5.811 -0.5912 -0.1166 -3.4636
  124OSM   H15B13157   6.013   0.643   5.797 -1.6349  0.4011 -3.8321
  124OSM   H15C13158   6.071   0.745   5.674 -0.7015 -1.7811 -0.3275
  124OSM    C1413159   6.285   0.669   5.795  0.5183  0.6574  0.0871
  124OSM   H14A13160   6.256   0.577   5.844 -0.7073  1.0606  0.1427
  124OSM   H14B13161   6.385   0.684   5.833  0.3266 -1.5717  1.6776
  124OSM   H14C13162   6.287   0.666   5.687 -1.3268 -1.2200  0.0455
  124OSM    C1313163   6.240   0.909   5.792  0.5876 -0.2524  0.0373
  124OSM   H13A13164   6.187   0.983   5.850  2.0460 -0.1267  1.2479
  124OSM   H13B13165   6.239   0.930   5.686  0.9216  2.3892  0.4948
  124OSM   H13C13166   6.342   0.923   5.823  0.2732 -1.0227  1.5102
  124OSM    C1213167   6.184   0.772   5.995 -0.2092 -0.2725  0.4304
  124OSM   H12A13168   6.278   0.813   6.028  0.2293 -1.6808  0.9999
  124OSM   H12B13169   6.170   0.671   6.030 -0.4812  0.7056  3.4174
  124OSM    C1113170   6.073   0.858   6.066  0.7415  0.6992  0.1678
  124OSM   H11A13171   6.055   0.807   6.163 -1.0884 -0.5665 -0.7657
  124OSM   H11B13172   5.979   0.834   6.011  0.2302  0.6255  1.0627
  124OSM      P13173   6.156   1.072   6.188 -0.1663  0.0365  0.0002
  124OSM    O1313174   6.222   1.199   6.143 -0.8163 -0.3194 -0.0354
  124OSM    O1413175   6.039   1.075   6.274  0.1631 -0.6729  0.1061
  124OSM    O1113176   6.259   0.959   6.246 -1.0030 -0.1797 -0.1235
  124OSM    O1213177   6.103   0.997   6.062 -0.3681  1.0411 -0.3417
  124OSM    C1S13178   6.343   0.999   6.359 -0.7392 -0.3311 -0.2726
  124OSM    H1S13179   6.351   1.109   6.368 -1.5221 -0.2718 -0.2408
  124OSM    H1T13180   6.446   0.966   6.335 -0.0580  0.1782  1.7618
  124OSM     NF13181   6.390   1.017   6.596  0.0839 -0.8915  0.5066
  124OSM    HNF13182   6.468   0.968   6.634  0.0421 -1.5613 -0.2539
  124OSM    C2S13183   6.310   0.948   6.501  0.9464  0.5206  0.5723
  124OSM    H2S13184   6.203   0.962   6.525 -0.0440 -0.3089 -2.8080
  124OSM    C3S13185   6.320   0.788   6.498 -0.0746  0.3975  0.4512
  124OSM    H3S13186   6.427   0.764   6.481 -0.5467 -1.3679 -0.3022
  124OSM     O313187   6.250   0.724   6.387 -0.8054 -0.5976 -0.1338
  124OSM    HO313188   6.220   0.801   6.338 -1.6027 -0.2089  0.9235
  124OSM    C4S13189   6.274   0.720   6.629  0.6247 -0.1001  0.2075
  124OSM    H4S13190   6.360   0.698   6.694  2.4706 -0.3919 -2.1765
  124OSM    C5S13191   6.148   0.696   6.667  0.5525  0.2458  0.5036
  124OSM    H5S13192   6.063   0.725   6.603  0.6999  1.4076  0.8136
  124OSM    C6S13193   6.111   0.639   6.802  0.2050  0.1027  0.3961
  124OSM    H6S13194   6.069   0.538   6.783  1.1329 -0.3538  0.6723
  124OSM    H6T13195   6.036   0.705   6.850  0.9707  0.7906  0.6693
  124OSM    C7S13196   6.235   0.616   6.901 -0.5895  0.5496 -0.3163
  124OSM    H7S13197   6.292   0.711   6.915  1.6866 -0.2942 -2.9007
  124OSM    H7T13198   6.312   0.546   6.863  0.3584  0.8782  0.9422
  124OSM    C8S13199   6.205   0.554   7.039 -0.0519  0.4985  0.3715
  124OSM    H8S13200   6.165   0.451   7.030 -1.8513  1.0080  1.9255
  124OSM    H8T13201   6.118   0.611   7.076 -0.4489 -0.4471  0.9130
  124OSM    C9S13202   6.318   0.557   7.139  0.3409 -0.2827 -0.3438
  124OSM    H9S13203   6.337   0.663   7.167 -0.4484 -0.5547  1.3460
  124OSM    H9T13204   6.413   0.521   7.094 -0.1515 -0.8943 -0.9184
  124OSM   C10S13205   6.300   0.462   7.264 -0.1841  0.2436 -0.8487
  124OSM   H10S13206   6.194   0.469   7.297 -0.4239 -0.5639 -1.4119
  124OSM   H10T13207   6.376   0.485   7.341  1.0454 -0.3100 -1.8564
  124OSM   C11S13208   6.317   0.314   7.224  0.7660 -0.5107 -0.6745
  124OSM   H11S13209   6.415   0.288   7.178 -0.4493 -2.4202 -2.3556
  124OSM   H11T13210   6.241   0.286   7.148 -0.3362 -1.3842  0.7017
  124OSM   C12S13211   6.276   0.230   7.349 -0.3413 -0.1539 -0.0419
  124OSM   H12S13212   6.329   0.255   7.444  0.4949 -0.9836 -0.2724
  124OSM   H12T13213   6.306   0.125   7.331 -2.5686 -0.9986  0.8651
  124OSM   C13S13214   6.129   0.218   7.377 -0.2267  0.3840 -0.3197
  124OSM   H13S13215   6.085   0.164   7.290  1.0085  1.7307 -1.8434
  124OSM   H13T13216   6.088   0.321   7.374 -0.8039  0.1388 -1.3022
  124OSM   C14S13217   6.102   0.160   7.519  0.1229 -0.1965  0.0233
  124OSM   H14S13218   6.137   0.237   7.591  0.3879  0.8663 -1.1897
  124OSM   H14T13219   6.170   0.074   7.535 -0.9353 -1.0317  0.1846
  124OSM   C15S13220   5.962   0.110   7.532  0.2042 -0.1944  0.0137
  124OSM   H15S13221   5.940   0.039   7.450  1.8009 -1.0845  0.3078
  124OSM   H15T13222   5.895   0.196   7.511  0.9388  0.7619  1.4136
  124OSM   C16S13223   5.928   0.063   7.676 -0.1441 -0.8101  0.3071
  124OSM   H16S13224   5.820   0.078   7.702  0.0603  0.6449  0.4365
  124OSM   H16T13225   5.995   0.125   7.740  0.2941 -0.7608 -0.1933
  124OSM   C17S13226   5.979  -0.077   7.694  0.2642  0.2386 -0.5401
  124OSM   H17S13227   6.083  -0.086   7.653 -0.0744 -1.9555 -1.0821
  124OSM   H17T13228   5.924  -0.149   7.629  0.6970  0.1399 -0.8074
  124OSM   C18S13229   5.972  -0.139   7.835  0.2744 -0.1194  0.1444
  124OSM   H18S13230   6.051  -0.097   7.900  0.9563  0.3796 -0.9713
  124OSM   H18T13231   5.974  -0.250   7.834  0.5141 -0.1155  0.0398
  124OSM   H18U13232   5.880  -0.116   7.892  0.3601 -2.2790  1.2543
  124OSM    C1F13233   6.388   1.147   6.607  0.4256 -0.2004  0.2228
  124OSM     OF13234   6.289   1.212   6.574 -0.1724  0.3764 -0.5687
  124OSM    C2F13235   6.513   1.207   6.660  0.3189  0.1328  0.0078
  124OSM    H2F13236   6.574   1.238   6.572 -0.2904 -0.1824 -0.5352
  124OSM    H2G13237   6.565   1.132   6.723 -1.3525 -1.9531 -0.9447
  124OSM    C3F13238   6.479   1.319   6.758  0.4969  0.2551  0.1657
  124OSM    H3F13239   6.438   1.294   6.859  0.4367  2.7572  0.8111
  124OSM    H3G13240   6.403   1.386   6.714 -0.4641 -0.4793  0.6588
  124OSM    C4F13241   6.617   1.385   6.797 -0.0084  0.8090  0.3878
  124OSM    H4F13242   6.654   1.441   6.709  0.2012  3.7294  2.2100
  124OSM    H4G13243   6.703   1.318   6.819 -0.8557 -0.2654  0.5677
  124OSM    C5F13244   6.611   1.480   6.921  0.2920 -0.4395  0.7450
  124OSM    H5F13245   6.551   1.567   6.886  2.8412  0.2928 -2.3176
  124OSM    H5G13246   6.715   1.519   6.930 -0.6321  2.4934 -0.0145
  124OSM    C6F13247   6.566   1.419   7.054  0.2379 -0.4831  0.0849
  124OSM    H6F13248   6.618   1.327   7.088  0.5066  0.5000  2.5735
  124OSM    H6G13249   6.462   1.384   7.037  1.0856 -3.5821  0.7443
  124OSM    C7F13250   6.579   1.514   7.173 -0.3976  0.1502  1.2820
  124OSM    H7F13251   6.554   1.615   7.134  0.0858 -0.1604  0.1234
  124OSM    H7G13252   6.684   1.514   7.208 -0.6182 -1.0464  1.9897
  124OSM    C8F13253   6.485   1.487   7.297  0.4447 -0.5637  0.5094
  124OSM    H8F13254   6.538   1.541   7.378 -0.1735  0.9821 -0.0860
  124OSM    H8G13255   6.471   1.377   7.310  0.2199 -0.7504 -1.0821
  124OSM    C9F13256   6.345   1.536   7.265  0.2129 -0.2972 -1.0402
  124OSM    H9F13257   6.285   1.471   7.199 -3.0992  1.1026  0.4111
  124OSM   C10F13258   6.277   1.624   7.340  0.5187  1.0243  0.5699
  124OSM   H10F13259   6.174   1.649   7.314 -0.6899 -2.0902  1.8987
  124OSM   C11F13260   6.332   1.693   7.466 -0.0759 -0.3146  0.0714
  124OSM   H11F13261   6.298   1.799   7.465  0.1395 -0.2244 -1.7794
  124OSM   H11G13262   6.441   1.714   7.466 -0.6225  2.9896 -0.3272
  124OSM   C12F13263   6.288   1.624   7.599 -0.1158 -0.3357  0.0782
  124OSM   H12F13264   6.316   1.516   7.601  1.6779  0.1048  0.8001
  124OSM   H12G13265   6.177   1.632   7.595 -0.2246 -0.8511  1.4220
  124OSM   C13F13266   6.351   1.701   7.713 -0.9427 -1.3220 -0.5771
  124OSM   H13F13267   6.320   1.807   7.717  1.6216 -0.4866 -0.9370
  124OSM   H13G13268   6.460   1.710   7.693 -0.1705 -1.9840  2.6242
  124OSM   C14F13269   6.328   1.643   7.854  0.3694  0.0596 -0.1789
  124OSM   H14F13270   6.403   1.565   7.878 -0.5775 -0.3972  1.4130
  124OSM   H14G13271   6.231   1.589   7.861  1.7035 -2.2783  2.2204
  124OSM   C15F13272   6.341   1.754   7.960  0.8975 -0.2223  0.4254
  124OSM   H15F13273   6.393   1.845   7.922  0.9030 -0.4389 -0.0880
  124OSM   H15G13274   6.392   1.716   8.051  2.5007  1.4846  0.2977
  124OSM   C16F13275   6.203   1.797   8.013 -0.1660 -0.0761 -0.6779
  124OSM   H16F13276   6.133   1.819   7.930  0.1805  2.0822 -0.4761
  124OSM   H16G13277   6.224   1.888   8.074  3.0009 -1.1432  0.0273
  124OSM   C17F13278   6.138   1.694   8.106 -0.5759  0.4775  0.6080
  124OSM   H17F13279   6.212   1.654   8.179  0.1530 -0.4409 -0.5935
  124OSM   H17G13280   6.109   1.611   8.038  0.7841 -1.4309  2.2517
  124OSM   C18F13281   6.011   1.749   8.175  0.3746 -0.3417  0.2292
  124OSM   H18F13282   5.956   1.676   8.238 -0.3639  0.8084  0.9518
  124OSM   H18G13283   5.934   1.795   8.109 -0.2098 -1.2130  0.2930
  124OSM   H18H13284   6.042   1.832   8.242  2.2203 -0.0624 -0.9206
  125OSM      N13285   5.669   3.457   5.961  0.4714  0.3305  0.4963
  125OSM    C1513286   5.659   3.534   5.839 -0.2870 -0.2718  0.4017
  125OSM   H15A13287   5.756   3.543   5.793 -0.3367  1.5165  0.5492
  125OSM   H15B13288   5.613   3.631   5.857 -1.2520 -0.9196  1.6137
  125OSM   H15C13289   5.594   3.486   5.768  0.4008 -0.7065  0.0577
  125OSM    C1413290   5.747   3.325   5.934  1.0221 -0.7195 -0.5499
  125OSM   H14A13291   5.710   3.268   5.850  3.2270 -1.3879 -1.1172
  125OSM   H14B13292   5.750   3.261   6.021  2.3675 -1.2347 -0.9578
  125OSM   H14C13293   5.849   3.355   5.917  0.0675  2.6407 -1.0901
  125OSM    C1313294   5.740   3.535   6.071 -0.1664 -0.1213  0.0504
  125OSM   H13A13295   5.694   3.631   6.089  0.3444  0.1278  0.0407
  125OSM   H13B13296   5.841   3.562   6.044  0.2521 -1.4702  0.2033
  125OSM   H13C13297   5.732   3.473   6.159 -0.5263 -2.6233 -1.6520
  125OSM    C1213298   5.529   3.416   6.011  0.1862 -0.3727 -0.0471
  125OSM   H12A13299   5.488   3.342   5.944 -0.1320 -2.5069  2.3802
  125OSM   H12B13300   5.466   3.503   5.994 -0.6181 -1.2982 -2.1336
  125OSM    C1113301   5.510   3.355   6.151 -0.0974  0.0671  0.2428
  125OSM   H11A13302   5.406   3.315   6.157  0.1128 -0.3651  1.2407
  125OSM   H11B13303   5.519   3.444   6.217  0.0601  0.2240  0.0122
  125OSM      P13304   5.687   3.238   6.303  0.3346  0.0557 -0.0221
  125OSM    O1313305   5.744   3.102   6.298  0.2416 -0.1623  0.4348
  125OSM    O1413306   5.776   3.354   6.305 -0.1572  0.0473  0.2006
  125OSM    O1113307   5.584   3.258   6.425 -0.1193  0.1538  0.0887
  125OSM    O1213308   5.603   3.250   6.168  0.0495  0.2917  0.0638
  125OSM    C1S13309   5.472   3.168   6.450  0.0696 -0.0733 -0.2440
  125OSM    H1S13310   5.506   3.062   6.456 -2.4884 -0.8935  4.1021
  125OSM    H1T13311   5.402   3.183   6.365 -1.1941  1.4577  0.9974
  125OSM     NF13312   5.327   3.088   6.628  0.1997  0.1986  0.3160
  125OSM    HNF13313   5.230   3.102   6.608  0.3205  0.3001 -0.2323
  125OSM    C2S13314   5.410   3.200   6.588  0.3142  0.1095 -0.2159
  125OSM    H2S13315   5.493   3.207   6.660  0.1847 -3.0384  0.4023
  125OSM    C3S13316   5.337   3.330   6.575  0.6963  0.2559 -0.2391
  125OSM    H3S13317   5.254   3.313   6.504 -0.1064  1.3357  0.4106
  125OSM     O313318   5.405   3.439   6.513 -0.0849  0.1875  0.1739
  125OSM    HO313319   5.470   3.395   6.457 -2.2543 -0.3475 -2.1064
  125OSM    C4S13320   5.284   3.383   6.708  0.7508 -0.0811  0.1753
  125OSM    H4S13321   5.186   3.338   6.730  0.8525 -0.5467 -0.3034
  125OSM    C5S13322   5.338   3.464   6.801  0.0315 -0.4052  0.1355
  125OSM    H5S13323   5.441   3.500   6.791 -0.7013  1.5391 -1.0024
  125OSM    C6S13324   5.258   3.509   6.923  0.4210 -0.3687 -0.0394
  125OSM    H6S13325   5.162   3.454   6.926 -0.5457  1.2978  1.4864
  125OSM    H6T13326   5.239   3.618   6.915  2.4109 -0.0648 -1.5262
  125OSM    C7S13327   5.327   3.497   7.056  0.8719 -0.0208 -0.9332
  125OSM    H7S13328   5.269   3.543   7.139  1.9610  1.2585 -0.8598
  125OSM    H7T13329   5.427   3.545   7.057  0.6599  0.4414  0.5055
  125OSM    C8S13330   5.355   3.352   7.100 -0.0061  0.3277 -0.7345
  125OSM    H8S13331   5.419   3.303   7.024  1.5659 -0.8751  1.2726
  125OSM    H8T13332   5.264   3.290   7.114  0.5603 -0.3223  0.1689
  125OSM    C9S13333   5.452   3.342   7.217 -0.1502  0.2890 -0.1226
  125OSM    H9S13334   5.411   3.410   7.294 -1.0865 -0.6647  0.2456
  125OSM    H9T13335   5.557   3.369   7.193 -0.0528  1.0330  1.0755
  125OSM   C10S13336   5.440   3.209   7.291 -0.1281 -0.6379  0.4123
  125OSM   H10S13337   5.446   3.124   7.220 -2.2790  0.6582 -1.4481
  125OSM   H10T13338   5.334   3.204   7.322  0.2000  1.5612  2.1574
  125OSM   C11S13339   5.540   3.180   7.405 -0.7308  0.0099  0.0507
  125OSM   H11S13340   5.549   3.267   7.474  0.7601 -1.4287  1.7567
  125OSM   H11T13341   5.645   3.169   7.372 -1.1583 -3.1821 -0.5228
  125OSM   C12S13342   5.500   3.057   7.492  1.5038  0.4976 -0.0173
  125OSM   H12S13343   5.464   2.982   7.418 -0.0332  0.8572  0.3261
  125OSM   H12T13344   5.402   3.075   7.541  1.2757  2.2031 -1.0310
  125OSM   C13S13345   5.595   3.013   7.597 -1.1836  0.3338  0.1712
  125OSM   H13S13346   5.694   3.007   7.549 -0.0536 -2.9678  2.5266
  125OSM   H13T13347   5.573   2.909   7.629 -0.9731  0.3516  0.3734
  125OSM   C14S13348   5.612   3.103   7.719  0.2834 -0.2084 -0.4401
  125OSM   H14S13349   5.510   3.114   7.763  0.7919 -0.7850  0.9007
  125OSM   H14T13350   5.623   3.207   7.683  0.0518  0.4175  1.2161
  125OSM   C15S13351   5.712   3.056   7.823 -0.4900  0.1473  0.1471
  125OSM   H15S13352   5.797   3.018   7.762  0.0798 -1.2059  1.7044
  125OSM   H15T13353   5.689   2.955   7.863 -0.4162 -1.1721 -2.8584
  125OSM   C16S13354   5.766   3.169   7.910  0.2004 -0.5072 -0.0817
  125OSM   H16S13355   5.808   3.255   7.854  0.1987 -1.0097 -0.8806
  125OSM   H16T13356   5.852   3.116   7.957 -1.6651 -4.8105 -1.0128
  125OSM   C17S13357   5.667   3.229   8.005 -0.0033 -0.1389 -0.4383
  125OSM   H17S13358   5.586   3.159   8.034 -1.1780  1.0906 -0.6577
  125OSM   H17T13359   5.610   3.303   7.945 -5.0639 -2.1394  1.3413
  125OSM   C18S13360   5.738   3.283   8.132  0.3417  0.5376 -0.3813
  125OSM   H18S13361   5.780   3.209   8.203  1.0203  1.6732  0.4324
  125OSM   H18T13362   5.673   3.353   8.189  1.6813  0.6984  1.0316
  125OSM   H18U13363   5.829   3.340   8.104  0.6002  0.1521 -0.3326
  125OSM    C1F13364   5.367   2.966   6.674  0.0738 -0.1622 -0.1973
  125OSM     OF13365   5.485   2.936   6.685 -0.0629 -0.1340  0.5815
  125OSM    C2F13366   5.260   2.868   6.723 -1.0133  0.2587 -0.7710
  125OSM    H2F13367   5.316   2.778   6.756 -1.2093  0.3362 -0.2094
  125OSM    H2G13368   5.194   2.841   6.638 -0.5514 -0.7786 -0.8037
  125OSM    C3F13369   5.175   2.951   6.830 -0.1489 -0.4435  0.2843
  125OSM    H3F13370   5.090   2.896   6.876 -0.3633  0.8840  1.5566
  125OSM    H3G13371   5.133   3.035   6.770  1.9373 -1.8584 -3.5018
  125OSM    C4F13372   5.259   3.002   6.951 -0.3216 -0.4869  0.4615
  125OSM    H4F13373   5.203   3.056   7.029  3.2335  2.2758  1.3678
  125OSM    H4G13374   5.336   3.069   6.908 -0.1481  0.1992  1.7790
  125OSM    C5F13375   5.339   2.893   7.027 -0.2718 -0.1372  0.7511
  125OSM    H5F13376   5.380   2.952   7.112 -2.7845 -0.0946  2.0194
  125OSM    H5G13377   5.408   2.841   6.957 -2.1053 -1.9937  0.2308
  125OSM    C6F13378   5.247   2.798   7.105 -0.7742 -0.1918  0.1263
  125OSM    H6F13379   5.182   2.748   7.031  0.2056  0.0506 -0.9261
  125OSM    H6G13380   5.172   2.844   7.172 -0.4231 -0.5229  0.7553
  125OSM    C7F13381   5.326   2.689   7.179  0.5314  0.2293 -0.5455
  125OSM    H7F13382   5.378   2.739   7.263  0.1750  0.4763 -0.4681
  125OSM    H7G13383   5.392   2.634   7.110  0.1976 -1.2790  0.2897
  125OSM    C8F13384   5.235   2.578   7.240  0.0698  0.0352 -0.0997
  125OSM    H8F13385   5.181   2.530   7.156  1.9562  0.5641 -1.6928
  125OSM    H8G13386   5.158   2.631   7.300  0.1188  0.9446 -0.8256
  125OSM    C9F13387   5.312   2.482   7.321 -0.2381  0.3710 -1.3611
  125OSM    H9F13388   5.363   2.400   7.268  1.6224  0.2898  0.4396
  125OSM   C10F13389   5.337   2.489   7.455 -1.3072 -0.6346  0.3773
  125OSM   H10F13390   5.405   2.416   7.503  0.7249  0.9692  0.0916
  125OSM   C11F13391   5.297   2.598   7.548  0.3610  0.4058  0.1608
  125OSM   H11F13392   5.214   2.550   7.603  2.4631 -0.0722  3.1997
  125OSM   H11G13393   5.255   2.683   7.491  1.4188  0.0372 -1.2175
  125OSM   C12F13394   5.403   2.633   7.655 -0.4098 -0.0256  0.0182
  125OSM   H12F13395   5.494   2.679   7.611 -1.2437  2.2591  0.5561
  125OSM   H12G13396   5.434   2.543   7.712  0.3684  0.9405  1.1722
  125OSM   C13F13397   5.344   2.731   7.752 -0.4155 -0.6273 -0.0110
  125OSM   H13F13398   5.249   2.690   7.794 -0.4650  0.9093  1.5374
  125OSM   H13G13399   5.329   2.826   7.695  0.3817 -0.8545 -0.6078
  125OSM   C14F13400   5.438   2.762   7.874  0.0326 -0.2361  0.7541
  125OSM   H14F13401   5.537   2.792   7.834 -1.3512  0.8388 -2.1291
  125OSM   H14G13402   5.444   2.667   7.931  0.4947  0.8646  2.6288
  125OSM   C15F13403   5.376   2.867   7.955  0.2909  0.0946 -0.1177
  125OSM   H15F13404   5.274   2.826   7.975  0.7426 -0.9831  0.0273
  125OSM   H15G13405   5.359   2.960   7.897  0.0020  0.5939  0.7465
  125OSM   C16F13406   5.420   2.881   8.100 -0.0155 -0.9301 -0.1223
  125OSM   H16F13407   5.528   2.902   8.093  0.5286 -3.1555  0.7413
  125OSM   H16G13408   5.411   2.786   8.157  0.8175 -0.9624 -0.0428
  125OSM   C17F13409   5.350   2.990   8.176 -0.8079 -0.5130  0.7704
  125OSM   H17F13410   5.253   2.958   8.220 -0.2420  0.3490  2.7280
  125OSM   H17G13411   5.323   3.072   8.106 -0.2375 -2.7762 -2.3555
  125OSM   C18F13412   5.444   3.042   8.287 -0.2300 -0.3730 -0.2855
  125OSM   H18F13413   5.404   3.121   8.354 -0.7004 -1.4456  0.7213
  125OSM   H18G13414   5.540   3.078   8.243 -0.8995 -0.3633 -1.7831
  125OSM   H18H13415   5.461   2.956   8.355  0.5944  0.6132  0.8003
  126OSM      N13416   3.069   2.581   6.572  0.3729 -1.0648 -0.3769
  126OSM    C1513417   3.017   2.486   6.476 -0.4966 -0.0344  0.0527
  126OSM   H15A13418   2.953   2.545   6.412 -0.0005  0.4397 -0.0142
  126OSM   H15B13419   2.958   2.418   6.536 -0.7703 -0.1540 -0.3479
  126OSM   H15C13420   3.090   2.427   6.423  0.6340  0.4281  1.0644
  126OSM    C1413421   2.953   2.635   6.657 -0.0921  0.7810 -0.6288
  126OSM   H14A13422   2.877   2.664   6.586  0.7953 -1.4306 -2.6404
  126OSM   H14B13423   2.972   2.719   6.722 -0.7483  0.0487  0.5409
  126OSM   H14C13424   2.908   2.561   6.722 -0.5931  0.9629 -0.7641
  126OSM    C1313425   3.160   2.513   6.668  0.3283 -0.9756  0.4374
  126OSM   H13A13426   3.197   2.581   6.743 -1.4303  2.1109 -1.3133
  126OSM   H13B13427   3.246   2.476   6.613  1.5194 -0.3628  1.8051
  126OSM   H13C13428   3.101   2.441   6.723 -1.1510 -1.6717 -1.9441
  126OSM    C1213429   3.142   2.695   6.498 -0.5773 -0.0070  0.0531
  126OSM   H12A13430   3.242   2.659   6.482 -0.1404 -0.2091  2.8146
  126OSM   H12B13431   3.155   2.786   6.555 -0.5745  0.5924 -0.8765
  126OSM    C1113432   3.076   2.751   6.371  0.1186  0.1456 -0.4425
  126OSM   H11A13433   3.086   2.679   6.287 -1.8508 -1.3183  0.4719
  126OSM   H11B13434   3.126   2.842   6.334  1.4225  0.0072  0.8589
  126OSM      P13435   2.901   2.916   6.467 -0.4197 -0.1416 -0.4350
  126OSM    O1313436   2.874   3.015   6.358 -0.0957 -0.1461 -0.2599
  126OSM    O1413437   2.791   2.892   6.564  0.3670 -0.0989  0.4507
  126OSM    O1113438   3.027   2.957   6.552 -0.9869  0.1731 -0.1969
  126OSM    O1213439   2.935   2.779   6.400  0.1140 -0.0196  0.0475
  126OSM    C1S13440   3.027   3.059   6.652 -0.3349  0.0767 -0.3415
  126OSM    H1S13441   3.002   3.016   6.752  1.2777 -1.4806 -0.5605
  126OSM    H1T13442   2.964   3.144   6.618  1.3170  1.8521  0.8102
  126OSM     NF13443   3.170   3.232   6.781 -0.7923 -0.0409 -0.0275
  126OSM    HNF13444   3.151   3.327   6.754  1.0569  1.1839  2.5999
  126OSM    C2S13445   3.161   3.129   6.674  0.2007  0.2631  0.2831
  126OSM    H2S13446   3.236   3.051   6.700  0.6003  0.9880  1.4126
  126OSM    C3S13447   3.201   3.198   6.534  0.0628  0.3627  0.5078
  126OSM    H3S13448   3.123   3.272   6.507  0.6313  1.6155  2.1312
  126OSM     O313449   3.206   3.105   6.430  0.3160  0.1325  0.5267
  126OSM    HO313450   3.161   3.024   6.454 -1.1096  1.0128  0.9280
  126OSM    C4S13451   3.330   3.270   6.551  0.1904 -0.4432  0.1643
  126OSM    H4S13452   3.328   3.352   6.625  0.3688 -2.1691  2.1874
  126OSM    C5S13453   3.452   3.252   6.492 -0.4205 -0.3765 -0.7158
  126OSM    H5S13454   3.467   3.167   6.425  1.3028 -0.9469  0.3298
  126OSM    C6S13455   3.562   3.349   6.524 -0.1916  0.4007 -0.3277
  126OSM    H6S13456   3.574   3.399   6.426  0.6636 -1.5186 -1.2654
  126OSM    H6T13457   3.659   3.295   6.529 -0.8648 -0.9378 -1.1283
  126OSM    C7S13458   3.553   3.451   6.638 -0.0039 -0.3879 -0.5644
  126OSM    H7S13459   3.457   3.507   6.639  1.3342  2.1058  1.0500
  126OSM    H7T13460   3.636   3.524   6.626  0.1057 -0.4103  0.0138
  126OSM    C8S13461   3.592   3.390   6.772 -0.6399 -0.2376 -0.6975
  126OSM    H8S13462   3.683   3.326   6.760 -0.5009 -0.3129  0.6835
  126OSM    H8T13463   3.515   3.321   6.812  1.1180 -0.8316  1.8638
  126OSM    C9S13464   3.605   3.494   6.885  0.4008  0.4699 -0.2613
  126OSM    H9S13465   3.511   3.552   6.896 -0.5074 -1.1691  1.1822
  126OSM    H9T13466   3.692   3.560   6.867  1.7467 -1.3831 -0.9265
  126OSM   C10S13467   3.644   3.430   7.022  0.4910 -0.1695  0.0657
  126OSM   H10S13468   3.742   3.381   7.004  0.4185  0.7699 -3.7038
  126OSM   H10T13469   3.568   3.353   7.045  1.1552 -1.3425 -1.4881
  126OSM   C11S13470   3.666   3.536   7.134  0.3954 -0.7199  0.0810
  126OSM   H11S13471   3.577   3.599   7.155  0.7477 -0.1659 -0.0746
  126OSM   H11T13472   3.743   3.605   7.095  1.1568 -0.3901  2.0711
  126OSM   C12S13473   3.705   3.468   7.264  0.3557 -0.6559 -1.0631
  126OSM   H12S13474   3.789   3.397   7.248 -0.2330 -1.5569 -0.3139
  126OSM   H12T13475   3.611   3.415   7.290 -0.0664  0.4424 -0.2826
  126OSM   C13S13476   3.739   3.563   7.384  0.3792 -0.2381 -0.1221
  126OSM   H13S13477   3.660   3.641   7.385  1.6548  1.1028 -0.5867
  126OSM   H13T13478   3.837   3.603   7.352  0.3726 -0.4863 -0.4638
  126OSM   C14S13479   3.747   3.477   7.510  0.5974  0.0050 -0.0905
  126OSM   H14S13480   3.814   3.393   7.482 -0.1503 -0.1047 -1.7066
  126OSM   H14T13481   3.654   3.418   7.523  1.0932 -0.7959 -0.1143
  126OSM   C15S13482   3.788   3.546   7.647  0.3565 -0.3171  0.4418
  126OSM   H15S13483   3.706   3.620   7.665  0.7566  0.4096 -0.5915
  126OSM   H15T13484   3.876   3.609   7.620 -1.4611  0.6650 -4.3165
  126OSM   C16S13485   3.798   3.457   7.771 -0.4343  0.6540  0.4776
  126OSM   H16S13486   3.898   3.408   7.770 -0.8747 -0.2875 -1.2136
  126OSM   H16T13487   3.725   3.375   7.752 -0.9721  1.4652 -1.1010
  126OSM   C17S13488   3.757   3.524   7.903  0.0951  0.3491 -0.1428
  126OSM   H17S13489   3.742   3.452   7.986 -2.1756  1.2813  0.3455
  126OSM   H17T13490   3.665   3.586   7.907  0.7687  1.3329  0.8397
  126OSM   C18S13491   3.869   3.619   7.954  0.1582  0.2200 -0.1685
  126OSM   H18S13492   3.895   3.694   7.876  2.4865  1.2759  1.4738
  126OSM   H18T13493   3.958   3.558   7.982 -0.0180 -1.1908 -2.4055
  126OSM   H18U13494   3.841   3.679   8.043  0.9002  2.7008 -1.5133
  126OSM    C1F13495   3.166   3.192   6.912  0.4274 -0.8147  0.0823
  126OSM     OF13496   3.167   3.068   6.936 -0.1419 -0.1049 -0.0495
  126OSM    C2F13497   3.145   3.300   7.011 -0.7285  0.1583  0.2216
  126OSM    H2F13498   3.095   3.256   7.100 -1.5928  1.5706  0.4710
  126OSM    H2G13499   3.088   3.387   6.971  1.3282  0.4820 -2.2152
  126OSM    C3F13500   3.274   3.363   7.064 -0.2949 -1.1966  0.1936
  126OSM    H3F13501   3.327   3.393   6.972  1.5571  1.6268  2.0097
  126OSM    H3G13502   3.343   3.299   7.123 -0.1199 -0.0153  1.3328
  126OSM    C4F13503   3.237   3.495   7.144 -0.1578  0.4300 -0.0505
  126OSM    H4F13504   3.159   3.549   7.085 -1.2782  0.0024  0.9917
  126OSM    H4G13505   3.325   3.562   7.140 -0.1760  0.4049 -1.6007
  126OSM    C5F13506   3.192   3.472   7.284 -0.0005  0.0466  0.0254
  126OSM    H5F13507   3.109   3.398   7.279 -1.2767  1.4562 -0.2720
  126OSM    H5G13508   3.158   3.565   7.333  0.9722  0.7052 -0.5035
  126OSM    C6F13509   3.306   3.421   7.378 -0.0563  0.0427  0.1016
  126OSM    H6F13510   3.394   3.489   7.386 -0.1532 -0.0598  3.7854
  126OSM    H6G13511   3.356   3.326   7.348  1.7573 -0.5142  4.2447
  126OSM    C7F13512   3.241   3.400   7.514 -0.5736  0.0926 -0.5621
  126OSM    H7F13513   3.154   3.332   7.495  1.0639 -1.8274 -1.6135
  126OSM    H7G13514   3.203   3.496   7.555  0.9786  1.4072 -2.0451
  126OSM    C8F13515   3.339   3.351   7.627  0.7680 -0.2184  0.5203
  126OSM    H8F13516   3.404   3.439   7.646  0.1254  0.2803  0.4589
  126OSM    H8G13517   3.411   3.283   7.576 -0.1480 -1.5545  0.9761
  126OSM    C9F13518   3.281   3.288   7.755  0.8370 -0.0298 -0.4782
  126OSM    H9F13519   3.214   3.202   7.738  0.3139  0.4509 -0.8761
  126OSM   C10F13520   3.279   3.345   7.876 -1.0083 -0.0161  0.0017
  126OSM   H10F13521   3.245   3.284   7.962  1.4940 -0.2267  0.9284
  126OSM   C11F13522   3.345   3.481   7.902  0.4475 -0.0236 -0.8804
  126OSM   H11F13523   3.268   3.558   7.879  0.6630 -0.0594 -1.7428
  126OSM   H11G13524   3.432   3.505   7.838  1.8370  0.6329  1.1692
  126OSM   C12F13525   3.401   3.491   8.044  0.2305  0.2249  0.6733
  126OSM   H12F13526   3.487   3.420   8.047 -0.3493 -0.7448 -2.4636
  126OSM   H12G13527   3.332   3.461   8.126 -1.1153 -2.1426 -1.2135
  126OSM   C13F13528   3.446   3.630   8.083  0.6927  0.1997 -0.7815
  126OSM   H13F13529   3.350   3.683   8.100  0.0467 -1.2868  0.3404
  126OSM   H13G13530   3.507   3.681   8.005  1.5019  0.9128  0.2825
  126OSM   C14F13531   3.533   3.626   8.213  0.3697  0.1744  0.6382
  126OSM   H14F13532   3.625   3.564   8.206  1.1053  1.3783 -0.7519
  126OSM   H14G13533   3.473   3.578   8.294  0.5205 -0.0005  0.6448
  126OSM   C15F13534   3.584   3.765   8.252 -0.2669  0.0491  0.2532
  126OSM   H15F13535   3.498   3.836   8.250 -2.3138 -2.3309 -0.3154
  126OSM   H15G13536   3.669   3.810   8.196 -0.3115  1.2237  1.0731
  126OSM   C16F13537   3.635   3.775   8.400  0.0984 -0.6899  0.7250
  126OSM   H16F13538   3.544   3.737   8.451 -1.7361 -1.5060 -2.8373
  126OSM   H16G13539   3.653   3.882   8.424  0.7322 -0.2235 -1.5633
  126OSM   C17F13540   3.752   3.685   8.433  0.5650 -0.0895 -0.6317
  126OSM   H17F13541   3.837   3.709   8.366  0.7364  2.6890  0.4300
  126OSM   H17G13542   3.723   3.578   8.435 -1.2356  0.3663  0.5948
  126OSM   C18F13543   3.798   3.726   8.568  0.0278  0.0039 -0.5541
  126OSM   H18F13544   3.831   3.832   8.566 -0.1262  0.1845  2.1263
  126OSM   H18G13545   3.883   3.667   8.607  2.0113  2.1988 -1.3610
  126OSM   H18H13546   3.715   3.709   8.641 -1.2115  0.8707 -1.7003
  127OSM      N13547   3.133   1.728   5.999 -0.0316 -0.2148  0.8565
  127OSM    C1513548   3.013   1.812   6.036  0.0262 -0.0708 -0.3038
  127OSM   H15A13549   3.039   1.916   6.048 -0.3727 -0.0364  0.3789
  127OSM   H15B13550   2.961   1.788   6.128  1.1188  0.6748  0.5312
  127OSM   H15C13551   2.946   1.807   5.951 -0.9620 -2.5827  0.5332
  127OSM    C1413552   3.089   1.599   5.941 -0.4353  0.4099 -0.4756
  127OSM   H14A13553   3.048   1.536   6.019 -0.2811  2.8664  1.7223
  127OSM   H14B13554   3.176   1.553   5.898  1.1125  1.3933  1.4253
  127OSM   H14C13555   3.013   1.625   5.869 -2.0327  2.0705  1.6431
  127OSM    C1313556   3.215   1.802   5.897 -0.0605 -0.0399 -0.1407
  127OSM   H13A13557   3.151   1.817   5.811 -3.4264  0.7222  2.2637
  127OSM   H13B13558   3.314   1.764   5.880  0.3008  1.2009 -0.9539
  127OSM   H13C13559   3.234   1.894   5.950 -2.7492  0.5448 -0.0268
  127OSM    C1213560   3.216   1.710   6.127  0.2620 -0.4376 -0.1441
  127OSM   H12A13561   3.316   1.676   6.103  2.0148  2.4766  2.1834
  127OSM   H12B13562   3.179   1.630   6.190 -0.9106 -0.6312 -1.0697
  127OSM    C1113563   3.246   1.841   6.209 -0.8476  0.3087  0.3874
  127OSM   H11A13564   3.260   1.816   6.317  0.5890 -0.8523 -0.0386
  127OSM   H11B13565   3.168   1.920   6.206 -1.1547  0.0164  0.4852
  127OSM      P13566   3.508   1.836   6.181 -0.2945  0.0829  0.1443
  127OSM    O1313567   3.509   1.701   6.120 -0.3044 -0.0036 -0.4997
  127OSM    O1413568   3.611   1.937   6.138  0.2163  0.0372 -1.0612
  127OSM    O1113569   3.509   1.821   6.335 -0.1629  0.3025 -0.3195
  127OSM    O1213570   3.369   1.891   6.148 -0.2246 -0.2595 -0.0269
  127OSM    C1S13571   3.486   1.913   6.440  0.3787 -0.1963  0.2576
  127OSM    H1S13572   3.403   1.986   6.427  0.2946  0.0319  1.8406
  127OSM    H1T13573   3.576   1.976   6.455  0.4041 -0.3401  0.7299
  127OSM     NF13574   3.475   1.952   6.681  0.2157  0.2583  0.2789
  127OSM    HNF13575   3.559   1.939   6.734 -0.6318  2.6359  2.3872
  127OSM    C2S13576   3.461   1.849   6.579  0.4267 -0.2496 -0.1306
  127OSM    H2S13577   3.357   1.812   6.578  0.7715 -1.2663  0.2942
  127OSM    C3S13578   3.545   1.731   6.603 -0.2672  0.0533  0.5881
  127OSM    H3S13579   3.653   1.755   6.611 -0.1213 -0.9064  1.5859
  127OSM     O313580   3.538   1.623   6.509 -0.1406  0.4640  0.2403
  127OSM    HO313581   3.505   1.651   6.423 -2.1971 -1.4607  0.3085
  127OSM    C4S13582   3.500   1.678   6.743 -0.0654  0.3747  0.0945
  127OSM    H4S13583   3.552   1.729   6.825  0.0656  1.2430 -0.5102
  127OSM    C5S13584   3.411   1.579   6.769  0.0036 -0.5315  0.1491
  127OSM    H5S13585   3.379   1.516   6.685  1.4103 -2.1496  0.7847
  127OSM    C6S13586   3.368   1.544   6.905 -0.0293  0.2483 -0.3514
  127OSM    H6S13587   3.362   1.434   6.920 -0.4148  0.5170  1.7089
  127OSM    H6T13588   3.269   1.591   6.921  0.5205  1.6458 -0.8093
  127OSM    C7S13589   3.450   1.600   7.018  0.3358 -0.2886  0.5264
  127OSM    H7S13590   3.451   1.711   7.024 -3.1621 -0.1813  1.4125
  127OSM    H7T13591   3.549   1.550   7.013 -0.1615 -1.1798 -1.8805
  127OSM    C8S13592   3.396   1.555   7.157 -0.3801 -0.9502  1.4722
  127OSM    H8S13593   3.386   1.444   7.157 -4.4445 -0.7208 -0.0525
  127OSM    H8T13594   3.303   1.610   7.179 -0.6262 -0.4188 -0.6466
  127OSM    C9S13595   3.499   1.595   7.270 -0.2695 -0.4053 -0.1109
  127OSM    H9S13596   3.511   1.705   7.268 -1.2705 -0.2409  1.5381
  127OSM    H9T13597   3.594   1.548   7.237 -1.7984 -2.7967 -1.3924
  127OSM   C10S13598   3.454   1.550   7.406  0.4445  0.3849 -0.2416
  127OSM   H10S13599   3.467   1.440   7.409  2.2912  0.5497 -0.8582
  127OSM   H10T13600   3.348   1.581   7.418  0.9881  1.8378  1.1308
  127OSM   C11S13601   3.532   1.623   7.524  0.0440  0.3340  0.0427
  127OSM   H11S13602   3.515   1.733   7.520  2.5431  0.7880  0.5401
  127OSM   H11T13603   3.635   1.591   7.501 -0.1437  0.8718 -1.6673
  127OSM   C12S13604   3.486   1.566   7.659  0.7435 -0.1453 -0.0183
  127OSM   H12S13605   3.482   1.455   7.654  0.8025 -0.4339  3.4608
  127OSM   H12T13606   3.392   1.617   7.686 -0.7265 -2.5003 -0.3932
  127OSM   C13S13607   3.570   1.597   7.776 -0.0065 -0.2796  0.2819
  127OSM   H13S13608   3.571   1.707   7.795 -1.6910 -0.3570  0.9063
  127OSM   H13T13609   3.676   1.570   7.756  0.2470 -1.8665  3.2147
  127OSM   C14S13610   3.532   1.524   7.908  0.2425  0.1322  0.2552
  127OSM   H14S13611   3.541   1.413   7.903  0.0720  0.0742  1.0190
  127OSM   H14T13612   3.423   1.547   7.903  0.6116  1.7107 -1.6329
  127OSM   C15S13613   3.576   1.597   8.036 -0.0502  0.0468  0.3164
  127OSM   H15S13614   3.491   1.572   8.103  0.0523 -1.0469  0.0695
  127OSM   H15T13615   3.593   1.705   8.016 -1.4662  0.1908 -0.2772
  127OSM   C16S13616   3.701   1.528   8.076 -0.0341  0.3186 -0.6546
  127OSM   H16S13617   3.782   1.526   8.001  2.2876 -3.6484  1.6326
  127OSM   H16T13618   3.675   1.422   8.094 -1.0971  0.6695 -0.0314
  127OSM   C17S13619   3.770   1.579   8.201 -0.2626 -0.0348  0.8517
  127OSM   H17S13620   3.708   1.554   8.289  0.5195  1.2550  1.8007
  127OSM   H17T13621   3.766   1.687   8.177  0.5877 -0.5702 -2.2169
  127OSM   C18S13622   3.910   1.516   8.214  0.2896 -0.3714  0.2033
  127OSM   H18S13623   3.971   1.572   8.288  1.0682  0.1392 -0.7968
  127OSM   H18T13624   3.963   1.525   8.117 -0.6123 -0.9231 -0.3554
  127OSM   H18U13625   3.915   1.408   8.242  1.4906 -0.1808  0.8159
  127OSM    C1F13626   3.389   2.054   6.702 -0.1242 -0.2267  0.2203
  127OSM     OF13627   3.289   2.073   6.631  0.0118  0.1080 -0.1763
  127OSM    C2F13628   3.426   2.163   6.800 -0.6832  0.0295 -0.0210
  127OSM    H2F13629   3.390   2.257   6.754 -0.6030  0.5386  0.9389
  127OSM    H2G13630   3.535   2.171   6.817 -0.8867 -1.2456  2.1673
  127OSM    C3F13631   3.354   2.150   6.928  0.4042 -0.4672 -0.4579
  127OSM    H3F13632   3.377   2.053   6.978  2.2465  0.5351  0.7713
  127OSM    H3G13633   3.244   2.156   6.913  0.2221 -1.6811  0.2102
  127OSM    C4F13634   3.378   2.265   7.035  0.4395  0.9940 -0.1542
  127OSM    H4F13635   3.298   2.247   7.110 -0.8565 -0.2518 -1.7478
  127OSM    H4G13636   3.353   2.361   6.984 -0.0360  1.8533  1.6259
  127OSM    C5F13637   3.512   2.263   7.102 -0.1207 -0.8772 -0.6011
  127OSM    H5F13638   3.587   2.287   7.024  0.1037 -0.1261 -0.1571
  127OSM    H5G13639   3.518   2.161   7.148  2.5191 -0.3288  0.4784
  127OSM    C6F13640   3.526   2.371   7.217 -0.2009  0.0961 -0.5117
  127OSM    H6F13641   3.526   2.473   7.174 -1.9756  0.1421 -0.4761
  127OSM    H6G13642   3.632   2.369   7.251  0.7644  0.1487 -3.2500
  127OSM    C7F13643   3.421   2.368   7.329  0.3673  0.2628 -0.3291
  127OSM    H7F13644   3.420   2.263   7.364 -0.4016  0.5538  0.5635
  127OSM    H7G13645   3.331   2.389   7.267  1.1828  0.0946 -1.6237
  127OSM    C8F13646   3.439   2.467   7.440 -1.1105  0.5637  0.8652
  127OSM    H8F13647   3.340   2.491   7.485 -1.6745 -0.8922  0.4324
  127OSM    H8G13648   3.484   2.553   7.386  1.7811 -1.1476  0.3531
  127OSM    C9F13649   3.537   2.415   7.541 -0.1306 -0.4943 -0.4902
  127OSM    H9F13650   3.623   2.358   7.502  1.6438  2.4325 -1.2280
  127OSM   C10F13651   3.542   2.439   7.673 -0.3945 -0.6695  0.1794
  127OSM   H10F13652   3.632   2.404   7.725 -1.2107 -1.5490  1.0341
  127OSM   C11F13653   3.447   2.524   7.759  0.0608  0.7951  0.3542
  127OSM   H11F13654   3.364   2.560   7.694 -0.1727 -0.1841  0.0930
  127OSM   H11G13655   3.494   2.620   7.787  1.8640  0.7218 -2.0412
  127OSM   C12F13656   3.383   2.469   7.882  0.4893  0.6285  0.7502
  127OSM   H12F13657   3.462   2.453   7.959 -0.1473 -0.8968  1.1306
  127OSM   H12G13658   3.334   2.372   7.859  0.3490  0.6565  0.9330
  127OSM   C13F13659   3.281   2.566   7.943 -0.4271  0.1866 -0.4668
  127OSM   H13F13660   3.198   2.588   7.872 -0.4148 -0.8045 -0.8036
  127OSM   H13G13661   3.338   2.661   7.957 -1.8904  1.1708 -0.9317
  127OSM   C14F13662   3.212   2.540   8.080 -0.0598 -0.0438 -0.1811
  127OSM   H14F13663   3.176   2.436   8.066  1.0737 -0.5406  0.5123
  127OSM   H14G13664   3.124   2.608   8.085 -0.2886 -0.3774  0.3733
  127OSM   C15F13665   3.307   2.551   8.195 -0.5327 -0.3276 -0.5412
  127OSM   H15F13666   3.248   2.566   8.288 -1.2177 -1.6286 -0.7376
  127OSM   H15G13667   3.378   2.632   8.167 -1.0137 -0.5543 -2.6168
  127OSM   C16F13668   3.380   2.418   8.223 -0.7184 -0.1006  0.5803
  127OSM   H16F13669   3.483   2.419   8.182 -0.0991 -1.0648  2.0371
  127OSM   H16G13670   3.327   2.332   8.177  2.8221 -1.7056 -0.8851
  127OSM   C17F13671   3.401   2.389   8.376 -0.0957 -0.3975  0.6634
  127OSM   H17F13672   3.305   2.375   8.431 -0.0927  1.2394  1.1135
  127OSM   H17G13673   3.454   2.474   8.424 -1.4819 -0.3836  2.2773
  127OSM   C18F13674   3.479   2.259   8.393  0.5488  0.4285 -0.2799
  127OSM   H18F13675   3.564   2.259   8.323  2.0241  0.7115  1.4416
  127OSM   H18G13676   3.409   2.174   8.375  0.1787  0.6932 -0.1183
  127OSM   H18H13677   3.524   2.251   8.494 -1.0537 -2.5605  0.3152
  128OSM      N13678   6.515   4.133   5.925  0.8060  0.0798 -0.0728
  128OSM    C1513679   6.429   4.013   5.891  0.3590 -0.4086 -0.1481
  128OSM   H15A13680   6.387   4.026   5.793 -0.7040 -1.2891  0.1739
  128OSM   H15B13681   6.349   4.027   5.962  0.2274  1.9520 -0.6683
  128OSM   H15C13682   6.485   3.922   5.907  0.8993 -0.1284 -0.3952
  128OSM    C1413683   6.583   4.111   6.059 -0.6230 -0.0343  0.3291
  128OSM   H14A13684   6.640   4.202   6.075 -0.7437 -0.1210  1.3616
  128OSM   H14B13685   6.649   4.026   6.058 -3.4677 -2.4260  1.7915
  128OSM   H14C13686   6.507   4.106   6.135 -1.0334  1.5744  0.0673
  128OSM    C1313687   6.626   4.154   5.825 -0.1721 -0.4602  0.0881
  128OSM   H13A13688   6.679   4.060   5.831 -1.7508 -1.3890  0.1295
  128OSM   H13B13689   6.679   4.243   5.855 -1.3062  0.0526  0.6095
  128OSM   H13C13690   6.585   4.172   5.727 -0.6943 -0.7620  0.2436
  128OSM    C1213691   6.421   4.257   5.936  0.2485  0.3047  0.1623
  128OSM   H12A13692   6.488   4.339   5.960 -0.5537  0.1373  3.4666
  128OSM   H12B13693   6.356   4.256   6.022 -2.1771 -0.1040 -1.5543
  128OSM    C1113694   6.334   4.309   5.816 -0.8982  0.4189  0.4534
  128OSM   H11A13695   6.407   4.315   5.733 -1.5616  0.6203 -0.1199
  128OSM   H11B13696   6.292   4.410   5.835  0.3167  0.7789  1.3150
  128OSM      P13697   6.072   4.252   5.811 -0.4857  0.4632 -0.0950
  128OSM    O1313698   6.037   4.354   5.710  0.5227 -0.9110 -0.2736
  128OSM    O1413699   5.991   4.127   5.805  0.1321 -0.0263  0.0828
  128OSM    O1113700   6.066   4.319   5.951 -0.4770  0.0401  0.0973
  128OSM    O1213701   6.228   4.213   5.783  0.7632  0.2895 -0.2874
  128OSM    C1S13702   6.091   4.228   6.059  0.8753 -0.2696  0.2785
  128OSM    H1S13703   6.191   4.183   6.047  0.6094 -0.9643  0.6253
  128OSM    H1T13704   6.019   4.144   6.054  0.4720  0.1389 -1.3672
  128OSM     NF13705   6.154   4.208   6.288  0.2742  0.2870 -0.5858
  128OSM    HNF13706   6.099   4.173   6.364 -0.2485 -2.2833 -2.0473
  128OSM    C2S13707   6.088   4.299   6.198 -0.0886  0.3191  0.7169
  128OSM    H2S13708   6.150   4.388   6.177 -0.2972  0.9319  2.4973
  128OSM    C3S13709   5.942   4.338   6.238 -0.3881 -0.2438  0.0854
  128OSM    H3S13710   5.880   4.247   6.254 -0.4517 -0.0837  0.7450
  128OSM     O313711   5.874   4.409   6.131 -0.1148 -0.3166 -0.1663
  128OSM    HO313712   5.932   4.390   6.056  2.8849 -2.4258  2.4222
  128OSM    C4S13713   5.942   4.420   6.367 -0.6917  0.8905 -0.1023
  128OSM    H4S13714   5.952   4.353   6.454  3.6905  0.0274 -1.0579
  128OSM    C5S13715   5.934   4.553   6.398 -0.0225  0.2144 -1.0479
  128OSM    H5S13716   5.929   4.624   6.314  3.3982 -1.2732 -2.7237
  128OSM    C6S13717   5.933   4.602   6.544 -0.2715 -0.0050 -0.0046
  128OSM    H6S13718   5.832   4.646   6.551 -1.2598 -1.6685 -2.4953
  128OSM    H6T13719   6.008   4.684   6.553  0.3809 -0.5379 -0.4977
  128OSM    C7S13720   5.956   4.498   6.661 -0.5472 -0.3415 -0.0450
  128OSM    H7S13721   6.061   4.465   6.650  0.0639  1.4991 -0.0996
  128OSM    H7T13722   5.879   4.418   6.652  0.9296 -1.6582 -1.8244
  128OSM    C8S13723   5.942   4.556   6.801  0.5784 -0.0709 -0.1357
  128OSM    H8S13724   5.844   4.609   6.803  0.6273  0.0233 -0.2385
  128OSM    H8T13725   6.010   4.640   6.828  1.7967 -1.5036  1.4862
  128OSM    C9S13726   5.958   4.452   6.910  0.5355 -0.5868  0.7067
  128OSM    H9S13727   6.063   4.415   6.908  1.1698  0.9067  3.1464
  128OSM    H9T13728   5.897   4.364   6.881 -2.6611  1.7115 -0.0797
  128OSM   C10S13729   5.921   4.496   7.052 -0.5265  0.0035 -0.0283
  128OSM   H10S13730   5.826   4.555   7.053  0.2847  1.6068 -3.4217
  128OSM   H10T13731   5.995   4.566   7.097 -0.9691  1.6640 -1.7651
  128OSM   C11S13732   5.912   4.375   7.146  0.2613  0.1632  0.3059
  128OSM   H11S13733   6.008   4.319   7.140  1.2220  1.7770  0.2074
  128OSM   H11T13734   5.830   4.315   7.101  2.3269 -1.6942 -1.2096
  128OSM   C12S13735   5.889   4.413   7.290 -0.0583 -1.1520 -0.6980
  128OSM   H12S13736   5.789   4.457   7.308  0.1850 -1.1123  0.6690
  128OSM   H12T13737   5.965   4.489   7.320 -0.3258 -2.0558  2.7026
  128OSM   C13S13738   5.894   4.294   7.395 -0.2421 -0.0123  0.4980
  128OSM   H13S13739   5.992   4.240   7.397 -0.9345 -1.3031  1.2307
  128OSM   H13T13740   5.815   4.225   7.359  0.5093 -2.5966  3.3782
  128OSM   C14S13741   5.865   4.338   7.540  0.3542  0.5843 -0.0174
  128OSM   H14S13742   5.755   4.350   7.544  0.3444  0.2035  1.7945
  128OSM   H14T13743   5.914   4.436   7.559  1.0569  0.5983 -1.7071
  128OSM   C15S13744   5.901   4.235   7.642  0.4351  0.4978  0.0923
  128OSM   H15S13745   6.008   4.214   7.621 -0.1719 -2.9676 -0.0957
  128OSM   H15T13746   5.839   4.146   7.617 -0.6632  1.7274 -1.8090
  128OSM   C16S13747   5.888   4.287   7.784 -0.3479  0.5424  0.4223
  128OSM   H16S13748   5.796   4.348   7.788 -0.3095  0.6800 -0.6764
  128OSM   H16T13749   5.973   4.356   7.805 -0.0214 -0.0864  1.2566
  128OSM   C17S13750   5.896   4.177   7.890  0.2242 -0.2578  0.3318
  128OSM   H17S13751   5.983   4.111   7.867 -0.9770 -0.8963 -3.0574
  128OSM   H17T13752   5.806   4.116   7.864 -0.9854  0.5842  2.3797
  128OSM   C18S13753   5.898   4.216   8.036 -0.5112  0.1690  0.0545
  128OSM   H18S13754   5.848   4.312   8.060  5.1362  3.4706  0.4473
  128OSM   H18T13755   5.999   4.252   8.064 -0.3129 -0.0649 -0.3355
  128OSM   H18U13756   5.867   4.139   8.110  2.0673 -0.3075  0.7660
  128OSM    C1F13757   6.284   4.178   6.282  0.4305 -0.1459  0.3595
  128OSM     OF13758   6.356   4.234   6.208 -0.0807  0.3445  0.7367
  128OSM    C2F13759   6.328   4.052   6.354  0.3087  0.0207 -0.5190
  128OSM    H2F13760   6.383   3.987   6.283  1.6893 -0.0205  0.5562
  128OSM    H2G13761   6.240   3.992   6.387  0.2652  0.0044 -0.6629
  128OSM    C3F13762   6.418   4.075   6.476  0.0849 -0.3553 -0.0210
  128OSM    H3F13763   6.384   4.143   6.556 -0.6510  0.1330 -0.7318
  128OSM    H3G13764   6.511   4.128   6.444  0.8226 -1.2044  0.6671
  128OSM    C4F13765   6.458   3.943   6.544 -1.0568  0.9293  0.4758
  128OSM    H4F13766   6.502   3.868   6.475 -0.1468  0.4782  1.5129
  128OSM    H4G13767   6.375   3.892   6.597  0.2670  1.3382  3.1482
  128OSM    C5F13768   6.565   3.974   6.648 -0.2912 -0.5172 -0.1516
  128OSM    H5F13769   6.533   4.069   6.697 -2.2286 -0.9992 -0.3838
  128OSM    H5G13770   6.654   3.992   6.584  0.9111 -0.8366  1.3748
  128OSM    C6F13771   6.600   3.869   6.747  0.2093  0.3919  0.5459
  128OSM    H6F13772   6.708   3.841   6.747  0.3151  0.7728 -0.7719
  128OSM    H6G13773   6.549   3.777   6.713  0.1451  0.6767 -0.1400
  128OSM    C7F13774   6.552   3.893   6.897  0.1458 -0.3010  0.0042
  128OSM    H7F13775   6.442   3.903   6.893  0.2399  0.3905 -2.2307
  128OSM    H7G13776   6.614   3.972   6.945 -0.4555 -0.5546  1.2328
  128OSM    C8F13777   6.574   3.768   6.986  0.0398  0.0264  0.6129
  128OSM    H8F13778   6.534   3.672   6.948  2.1321 -0.9825  0.8250
  128OSM    H8G13779   6.527   3.799   7.081 -2.0288 -0.2287 -0.2773
  128OSM    C9F13780   6.725   3.732   7.000  0.8815  0.2711 -0.6119
  128OSM    H9F13781   6.774   3.681   6.916  2.3843 -1.1556  1.0444
  128OSM   C10F13782   6.790   3.730   7.118 -0.4365  0.8348 -0.3572
  128OSM   H10F13783   6.893   3.691   7.117 -1.0119 -0.7481 -0.8515
  128OSM   C11F13784   6.742   3.782   7.254 -0.5054  0.5086  0.2399
  128OSM   H11F13785   6.663   3.860   7.246 -1.4259 -0.4345  0.0168
  128OSM   H11G13786   6.837   3.811   7.304 -0.2267  1.0106 -0.5550
  128OSM   C12F13787   6.691   3.660   7.337 -0.3129  0.0114  0.4824
  128OSM   H12F13788   6.770   3.585   7.358  0.2499  0.8388  1.3670
  128OSM   H12G13789   6.613   3.603   7.282  1.5473 -0.6590 -1.5623
  128OSM   C13F13790   6.636   3.697   7.474  0.3676  0.6259 -0.1059
  128OSM   H13F13791   6.556   3.774   7.475 -0.2407 -0.0009  0.2738
  128OSM   H13G13792   6.719   3.742   7.533  0.1388  1.3481 -0.3326
  128OSM   C14F13793   6.592   3.574   7.554  0.2932 -0.2373 -0.0323
  128OSM   H14F13794   6.672   3.498   7.564 -0.6057 -1.1303  0.6522
  128OSM   H14G13795   6.507   3.530   7.497  0.3291  0.0825 -0.3359
  128OSM   C15F13796   6.533   3.602   7.695  0.6888 -0.3033 -0.1675
  128OSM   H15F13797   6.490   3.509   7.738  2.0448 -0.2770  1.3699
  128OSM   H15G13798   6.459   3.684   7.693 -0.0760 -0.9927 -1.4387
  128OSM   C16F13799   6.645   3.641   7.792 -0.0938  0.4212 -0.0127
  128OSM   H16F13800   6.697   3.732   7.755 -0.4782  1.3913  1.6925
  128OSM   H16G13801   6.724   3.564   7.801 -0.4407  0.0805  0.1503
  128OSM   C17F13802   6.594   3.669   7.934 -0.0136 -0.3731 -0.4884
  128OSM   H17F13803   6.548   3.770   7.938 -0.5865 -0.6565  1.8395
  128OSM   H17G13804   6.674   3.674   8.012 -1.8005 -1.5132  1.5352
  128OSM   C18F13805   6.514   3.560   8.003  0.1616  0.1605 -0.4309
  128OSM   H18F13806   6.480   3.591   8.104 -0.8699 -3.5448  0.4819
  128OSM   H18G13807   6.568   3.464   8.018  0.0191  0.1203 -0.1726
  128OSM   H18H13808   6.425   3.540   7.941  1.3791  0.6062 -2.4139
  129OSM      N13809   3.387   0.411   5.996  0.4084  0.1614 -0.3104
  129OSM    C1513810   3.526   0.419   6.056  0.4775  0.1194 -0.1238
  129OSM   H15A13811   3.596   0.358   6.002  1.2659 -0.4422  1.4687
  129OSM   H15B13812   3.537   0.400   6.162  1.2971  0.3447 -0.1615
  129OSM   H15C13813   3.560   0.521   6.043  1.3990 -0.4632 -2.9718
  129OSM    C1413814   3.338   0.275   6.004  0.1047 -0.7891 -1.1662
  129OSM   H14A13815   3.244   0.261   5.953  0.8830 -0.9484 -2.6152
  129OSM   H14B13816   3.320   0.244   6.106  3.1585 -0.9861 -0.5964
  129OSM   H14C13817   3.398   0.198   5.958  1.1798 -1.6610  1.4956
  129OSM    C1313818   3.296   0.499   6.068  0.1344 -0.4158  0.3246
  129OSM   H13A13819   3.194   0.480   6.038 -0.6855  1.2921  1.8020
  129OSM   H13B13820   3.322   0.598   6.034  1.3773 -0.7739  0.1753
  129OSM   H13C13821   3.296   0.496   6.176  2.6293 -1.1938  0.3617
  129OSM    C1213822   3.397   0.459   5.851 -0.0031  0.5979  0.0237
  129OSM   H12A13823   3.316   0.419   5.792  0.3263 -1.0300  0.6061
  129OSM   H12B13824   3.481   0.408   5.807 -0.0911 -0.8804  1.4573
  129OSM    C1113825   3.421   0.611   5.819  0.6587  0.0053 -0.1007
  129OSM   H11A13826   3.327   0.663   5.847 -0.5845 -2.0491 -0.2240
  129OSM   H11B13827   3.415   0.627   5.709 -1.1880  3.3462  0.3443
  129OSM      P13828   3.545   0.787   5.962  0.0505  0.1805  0.5845
  129OSM    O1313829   3.688   0.804   5.987 -0.0167 -0.2096 -0.2704
  129OSM    O1413830   3.474   0.905   5.900  0.5296  0.3400  0.0105
  129OSM    O1113831   3.464   0.747   6.096  0.1945  0.5765 -0.6416
  129OSM    O1213832   3.539   0.659   5.879 -0.2131 -0.5951 -0.3126
  129OSM    C1S13833   3.433   0.870   6.181 -0.5308  0.4786 -0.3999
  129OSM    H1S13834   3.342   0.922   6.142  0.3331  2.2845 -0.1196
  129OSM    H1T13835   3.515   0.945   6.182 -0.2502  0.1794 -0.5352
  129OSM     NF13836   3.383   0.955   6.405  0.0773  0.0524  0.3427
  129OSM    HNF13837   3.453   1.014   6.444  0.6755 -0.3979 -0.0289
  129OSM    C2S13838   3.428   0.839   6.336 -0.0678 -0.1078  0.3725
  129OSM    H2S13839   3.352   0.758   6.347 -1.0065  0.6522 -0.3553
  129OSM    C3S13840   3.564   0.785   6.383  0.4703  0.7425  0.9395
  129OSM    H3S13841   3.624   0.879   6.386 -0.9151  1.6800  0.1639
  129OSM     O313842   3.620   0.683   6.293  0.0651 -0.7853 -0.2589
  129OSM    HO313843   3.570   0.701   6.213 -0.1858  2.4589  0.4955
  129OSM    C4S13844   3.566   0.725   6.518 -0.3935  0.4641 -0.8760
  129OSM    H4S13845   3.517   0.627   6.523 -0.7723  0.7036  0.5304
  129OSM    C5S13846   3.629   0.767   6.632  0.1409  0.2773 -0.7839
  129OSM    H5S13847   3.672   0.868   6.627 -2.5036  1.4337 -2.0401
  129OSM    C6S13848   3.625   0.689   6.764  0.0682 -0.1972  0.4069
  129OSM    H6S13849   3.724   0.647   6.793  0.4043  1.0183  1.0759
  129OSM    H6T13850   3.563   0.597   6.767  0.0290 -0.1352  2.2105
  129OSM    C7S13851   3.583   0.781   6.885 -0.3340 -0.8488  1.1063
  129OSM    H7S13852   3.490   0.840   6.874  1.1978  1.5935  0.3383
  129OSM    H7T13853   3.659   0.859   6.906 -0.8407 -0.4537  1.5024
  129OSM    C8S13854   3.569   0.685   7.004  0.2706 -0.1206 -0.4694
  129OSM    H8S13855   3.661   0.623   7.012  1.2654  1.5811  4.4365
  129OSM    H8T13856   3.488   0.609   6.996  1.2009 -1.2017 -0.0178
  129OSM    C9S13857   3.556   0.746   7.143 -0.1129  0.0574  0.3160
  129OSM    H9S13858   3.470   0.817   7.143 -3.6072 -3.7266 -0.4653
  129OSM    H9T13859   3.652   0.797   7.163 -0.3761  0.6433  0.1231
  129OSM   C10S13860   3.522   0.654   7.254 -0.0256  0.3522  0.6666
  129OSM   H10S13861   3.597   0.572   7.260 -0.6005 -0.4178 -1.7862
  129OSM   H10T13862   3.424   0.601   7.240 -0.5302  1.2068  0.8998
  129OSM   C11S13863   3.520   0.724   7.390 -0.0915  0.2152 -0.9069
  129OSM   H11S13864   3.473   0.824   7.383  0.2366  0.5353  0.8865
  129OSM   H11T13865   3.621   0.741   7.432 -0.6525  3.3171 -0.5996
  129OSM   C12S13866   3.430   0.653   7.496  0.8195  1.0644  0.3219
  129OSM   H12S13867   3.439   0.543   7.480 -1.2655  1.1586 -2.1805
  129OSM   H12T13868   3.330   0.673   7.451  0.3391  1.5174  1.5563
  129OSM   C13S13869   3.439   0.704   7.645  0.3715 -0.0600  0.3285
  129OSM   H13S13870   3.432   0.815   7.647 -0.4709 -0.0857 -0.4238
  129OSM   H13T13871   3.536   0.673   7.688  0.7961  0.2925 -0.3646
  129OSM   C14S13872   3.320   0.653   7.733 -0.2967 -0.1759 -0.6272
  129OSM   H14S13873   3.302   0.544   7.739  0.7797 -0.2979  1.3676
  129OSM   H14T13874   3.227   0.688   7.684  0.2895  0.9836 -0.9547
  129OSM   C15S13875   3.336   0.719   7.870  0.5773  0.4745  0.9391
  129OSM   H15S13876   3.345   0.829   7.855 -0.9647  0.5035  0.0299
  129OSM   H15T13877   3.440   0.703   7.907  1.5743 -1.0017 -2.1820
  129OSM   C16S13878   3.230   0.667   7.964 -0.0575 -0.0423 -0.4061
  129OSM   H16S13879   3.239   0.558   7.985  1.3777  0.1667  0.1918
  129OSM   H16T13880   3.128   0.693   7.930 -1.0652 -2.7388  0.2842
  129OSM   C17S13881   3.233   0.729   8.108 -0.5821 -0.7040  1.0992
  129OSM   H17S13882   3.157   0.679   8.171 -1.5126  1.7108  2.0013
  129OSM   H17T13883   3.207   0.837   8.107 -0.1368 -0.5942  0.3164
  129OSM   C18S13884   3.362   0.716   8.182  0.4797 -0.1688  0.4500
  129OSM   H18S13885   3.352   0.766   8.281 -1.2184 -1.2574  0.8835
  129OSM   H18T13886   3.437   0.771   8.123  0.4343  1.6872  2.0346
  129OSM   H18U13887   3.402   0.612   8.184 -0.4902 -0.5479  1.0626
  129OSM    C1F13888   3.257   0.992   6.396 -0.4059  0.8769 -1.0967
  129OSM     OF13889   3.177   0.944   6.321  1.0801  0.2604  0.3019
  129OSM    C2F13890   3.226   1.111   6.482  1.0062 -0.0503 -0.3036
  129OSM    H2F13891   3.173   1.189   6.423 -0.3781 -1.3371 -0.8366
  129OSM    H2G13892   3.320   1.164   6.511 -0.4873  2.0853  0.9230
  129OSM    C3F13893   3.149   1.076   6.608 -0.6269 -0.3443 -0.0128
  129OSM    H3F13894   3.069   1.001   6.594 -2.1508  1.1391  0.4556
  129OSM    H3G13895   3.098   1.167   6.647 -1.9165 -1.2017  0.3900
  129OSM    C4F13896   3.232   1.031   6.729 -0.3062  0.2792  0.1052
  129OSM    H4F13897   3.325   1.090   6.742  0.4077 -0.4689 -1.3632
  129OSM    H4G13898   3.276   0.932   6.706  0.4528  0.9495 -1.5326
  129OSM    C5F13899   3.157   1.033   6.863  0.3060  0.0212  0.5440
  129OSM    H5F13900   3.078   0.956   6.857 -0.2848  0.4991  1.7918
  129OSM    H5G13901   3.104   1.131   6.869 -0.3825  0.1395 -3.8570
  129OSM    C6F13902   3.238   1.006   6.983  0.2042  0.6121  0.5554
  129OSM    H6F13903   3.309   1.090   6.999 -0.5535  1.2876  0.4111
  129OSM    H6G13904   3.292   0.910   6.965 -2.2381 -0.5551 -1.0773
  129OSM    C7F13905   3.150   0.979   7.103 -0.5723 -0.2347 -0.2902
  129OSM    H7F13906   3.080   0.901   7.066 -1.8543  0.9040 -0.3412
  129OSM    H7G13907   3.094   1.072   7.121 -1.7142 -0.5551 -1.9530
  129OSM    C8F13908   3.228   0.931   7.228 -0.1630 -0.1912  0.4219
  129OSM    H8F13909   3.305   1.004   7.260 -0.3073 -0.0505  0.4483
  129OSM    H8G13910   3.278   0.835   7.202  1.6485  0.1756  2.3170
  129OSM    C9F13911   3.137   0.898   7.339  0.5125  0.3302  0.0334
  129OSM    H9F13912   3.053   0.841   7.297  1.5946 -0.8868 -0.5517
  129OSM   C10F13913   3.141   0.943   7.464 -0.6325 -0.2666 -0.1219
  129OSM   H10F13914   3.082   0.888   7.540  0.2218 -1.0341  0.0113
  129OSM   C11F13915   3.253   1.028   7.526  0.6949 -0.8215 -0.1529
  129OSM   H11F13916   3.268   1.120   7.465 -2.4902  1.1477  1.7037
  129OSM   H11G13917   3.346   0.975   7.555  0.6180 -1.1034 -0.4203
  129OSM   C12F13918   3.209   1.083   7.667 -0.3610  0.4829 -0.4592
  129OSM   H12F13919   3.194   0.995   7.734  0.1693 -0.6059 -1.7281
  129OSM   H12G13920   3.115   1.143   7.665 -2.3195 -2.3189  0.7162
  129OSM   C13F13921   3.315   1.176   7.728  0.3202 -0.4616 -0.0508
  129OSM   H13F13922   3.310   1.266   7.662 -3.9350 -0.2369  0.2864
  129OSM   H13G13923   3.418   1.137   7.715  1.2722  1.5866  0.8453
  129OSM   C14F13924   3.274   1.239   7.867  0.1942  0.5833 -0.1000
  129OSM   H14F13925   3.169   1.274   7.865 -0.8841 -2.1381  2.2029
  129OSM   H14G13926   3.349   1.317   7.895  1.1287 -1.1087  2.3995
  129OSM   C15F13927   3.263   1.136   7.981  0.1294  0.2071 -0.5169
  129OSM   H15F13928   3.352   1.070   7.975 -0.3449 -0.3332 -1.9001
  129OSM   H15G13929   3.172   1.079   7.953  0.7215 -0.8050 -0.4162
  129OSM   C16F13930   3.244   1.194   8.120 -0.4278 -0.0167 -0.0375
  129OSM   H16F13931   3.177   1.282   8.109  0.9644  0.9713 -0.9274
  129OSM   H16G13932   3.340   1.241   8.150 -0.9213  0.4393  0.8761
  129OSM   C17F13933   3.201   1.085   8.222 -0.0976 -0.0859 -0.0052
  129OSM   H17F13934   3.281   1.009   8.233 -2.2890 -2.2517  2.7226
  129OSM   H17G13935   3.108   1.034   8.187 -0.6831  1.6448 -1.0403
  129OSM   C18F13936   3.174   1.145   8.363  0.2593  0.4564 -0.0782
  129OSM   H18F13937   3.239   1.234   8.375  0.2781  0.4427 -0.0776
  129OSM   H18G13938   3.198   1.072   8.443  1.1473  0.1124 -0.6295
  129OSM   H18H13939   3.072   1.187   8.374  0.4169  0.5890  0.9055
  130OSM      N13940   0.240   5.165   5.939  0.6778  0.3269 -0.3498
  130OSM    C1513941   0.240   5.310   5.902  0.3832  0.4253 -0.4827
  130OSM   H15A13942   0.140   5.339   5.872 -0.2368 -0.1992  0.8835
  130OSM   H15B13943   0.319   5.337   5.833  1.1400 -1.0059 -0.2196
  130OSM   H15C13944   0.271   5.360   5.992  0.5291 -0.7506  0.1409
  130OSM    C1413945   0.199   5.080   5.829 -0.2098 -0.3503  0.1018
  130OSM   H14A13946   0.101   5.102   5.791 -0.5795 -0.3145  1.0437
  130OSM   H14B13947   0.210   4.975   5.851  0.5833 -0.3742 -0.3673
  130OSM   H14C13948   0.267   5.106   5.749  0.0669  1.9086  0.9852
  130OSM    C1313949   0.379   5.126   5.990 -0.1202  0.1895 -0.1251
  130OSM   H13A13950   0.450   5.153   5.914  0.6262  0.7804  0.7537
  130OSM   H13B13951   0.393   5.021   6.009  2.2307  0.5985  0.7072
  130OSM   H13C13952   0.410   5.178   6.079 -1.2870  0.8826 -0.1052
  130OSM    C1213953   0.142   5.147   6.052  0.1817  0.6650 -0.3484
  130OSM   H12A13954   0.043   5.180   6.024  0.5298  2.2399  0.1754
  130OSM   H12B13955   0.163   5.222   6.126 -0.4309  0.0351  0.4928
  130OSM    C1113956   0.131   5.007   6.124 -0.3934 -0.5896 -0.2757
  130OSM   H11A13957   0.063   5.019   6.211 -0.2156  0.4645 -0.2728
  130OSM   H11B13958   0.233   4.986   6.163 -0.0990  0.0929 -0.6558
  130OSM      P13959   0.147   4.760   6.022 -0.0761 -0.0708  0.0232
  130OSM    O1313960   0.059   4.697   5.920 -0.2791 -0.4915  0.2385
  130OSM    O1413961   0.290   4.778   5.982 -0.0006 -0.2325  0.0148
  130OSM    O1113962   0.132   4.695   6.165  0.0774  0.0492 -0.1052
  130OSM    O1213963   0.084   4.902   6.041  0.9024 -0.2430 -0.4315
  130OSM    C1S13964   0.001   4.707   6.230 -0.0041  0.2805  0.0912
  130OSM    H1S13965  -0.068   4.627   6.196  1.2660 -0.0111 -1.9676
  130OSM    H1T13966  -0.043   4.808   6.214  1.7572  0.8127 -1.7213
  130OSM     NF13967  -0.126   4.709   6.444 -0.5008 -0.5392  0.2835
  130OSM    HNF13968  -0.152   4.801   6.473  2.9700  0.6333  0.0859
  130OSM    C2S13969   0.011   4.688   6.386  0.4793 -0.0032 -0.0969
  130OSM    H2S13970   0.051   4.587   6.407  1.9502  1.0297  2.5897
  130OSM    C3S13971   0.126   4.781   6.447  0.2107  0.2264  0.6481
  130OSM    H3S13972   0.094   4.887   6.433 -1.8745 -0.6769 -2.8183
  130OSM     O313973   0.252   4.776   6.383 -0.4393 -0.2920  0.2982
  130OSM    HO313974   0.228   4.746   6.295  0.6997  1.2109 -0.5672
  130OSM    C4S13975   0.146   4.769   6.601  0.3490 -0.0707  0.0001
  130OSM    H4S13976   0.069   4.821   6.661  0.0975 -0.6795  0.2160
  130OSM    C5S13977   0.239   4.697   6.669 -0.0861 -0.1053 -0.4198
  130OSM    H5S13978   0.300   4.631   6.606 -1.1535 -0.2834 -1.2815
  130OSM    C6S13979   0.270   4.697   6.817  0.4479 -0.1418 -0.6736
  130OSM    H6S13980   0.333   4.777   6.861 -0.6659  0.0247  0.7086
  130OSM    H6T13981   0.333   4.607   6.833 -1.3869 -1.1997  1.0854
  130OSM    C7S13982   0.140   4.665   6.895  0.6371 -0.8046 -0.5038
  130OSM    H7S13983   0.088   4.571   6.866  0.0821 -1.0876  1.2532
  130OSM    H7T13984   0.070   4.749   6.874  0.2306 -0.0915  3.0399
  130OSM    C8S13985   0.171   4.675   7.050  0.5845  0.8106  0.0920
  130OSM    H8S13986   0.243   4.758   7.064  3.6163 -0.9628 -3.2328
  130OSM    H8T13987   0.242   4.591   7.067  0.3505  0.2316 -1.6297
  130OSM    C9S13988   0.046   4.655   7.139  0.3350  0.6147 -0.1769
  130OSM    H9S13989  -0.001   4.555   7.129  2.6996 -1.0468  3.3809
  130OSM    H9T13990  -0.030   4.730   7.107  0.5399  1.6247  1.5697
  130OSM   C10S13991   0.071   4.684   7.285 -0.2594 -0.3191  0.4737
  130OSM   H10S13992   0.119   4.784   7.288  0.8054 -0.8356  1.1108
  130OSM   H10T13993   0.142   4.615   7.334  0.2021  0.2200  0.5753
  130OSM   C11S13994  -0.059   4.694   7.359  0.0750  0.3482  0.1255
  130OSM   H11S13995  -0.108   4.594   7.354 -2.3498  1.4248  1.1407
  130OSM   H11T13996  -0.128   4.768   7.314  0.5629  2.2635  2.3612
  130OSM   C12S13997  -0.036   4.731   7.504  0.6002  0.6104 -0.0914
  130OSM   H12S13998  -0.017   4.839   7.521  0.5624  0.3083  2.1156
  130OSM   H12T13999   0.058   4.685   7.543 -0.7966 -0.1456  2.6570
  130OSM   C13S14000  -0.141   4.681   7.612 -0.3412  0.4281  0.4645
  130OSM   H13S14001  -0.131   4.572   7.629 -2.3524  0.4075  1.7917
  130OSM   H13T14002  -0.243   4.719   7.588  0.9480  3.0562 -1.4575
  130OSM   C14S14003  -0.102   4.736   7.753  0.7340 -0.2489 -0.0063
  130OSM   H14S14004  -0.192   4.708   7.812  0.2523  2.5223  0.7389
  130OSM   H14T14005  -0.086   4.846   7.757  0.0325 -0.1651  0.7648
  130OSM   C15S14006   0.019   4.668   7.813  0.7540  0.5983 -0.0137
  130OSM   H15S14007   0.117   4.702   7.773  0.8306  1.1049  0.5861
  130OSM   H15T14008   0.025   4.560   7.789 -2.8037  0.1737  0.5401
  130OSM   C16S14009   0.026   4.690   7.964  0.0003 -0.3014  0.2373
  130OSM   H16S14010  -0.005   4.795   7.982  0.2439  0.1504 -1.6962
  130OSM   H16T14011   0.133   4.669   7.985  0.5636  1.6171 -0.4388
  130OSM   C17S14012  -0.052   4.587   8.049 -0.0552  1.0012  0.7274
  130OSM   H17S14013  -0.022   4.482   8.029  0.0648  0.9798  1.0143
  130OSM   H17T14014  -0.161   4.594   8.031 -0.0877 -0.9983 -0.0832
  130OSM   C18S14015  -0.047   4.622   8.195  0.1388 -0.3108 -0.7904
  130OSM   H18S14016  -0.065   4.730   8.210  0.1255 -0.6091  1.7597
  130OSM   H18T14017   0.053   4.604   8.239 -0.4461 -0.1915  0.6328
  130OSM   H18U14018  -0.120   4.557   8.249 -1.1805  0.3911 -1.6769
  130OSM    C1F14019  -0.215   4.610   6.429  1.0338  0.7779 -0.6028
  130OSM     OF14020  -0.182   4.502   6.378  0.6345 -0.1081 -0.6661
  130OSM    C2F14021  -0.359   4.642   6.443  0.4355 -0.3989  0.4336
  130OSM    H2F14022  -0.395   4.688   6.350  0.1186  1.0870  1.2623
  130OSM    H2G14023  -0.370   4.710   6.531  1.1503 -0.8053  0.8501
  130OSM    C3F14024  -0.450   4.518   6.473 -0.0862  0.3663  0.4077
  130OSM    H3F14025  -0.454   4.443   6.390 -1.1680  0.6150  0.2298
  130OSM    H3G14026  -0.548   4.566   6.492 -0.8707 -1.8541  2.3963
  130OSM    C4F14027  -0.416   4.435   6.597  0.1551  0.6880  0.1980
  130OSM    H4F14028  -0.331   4.371   6.564 -1.3733 -0.1940 -2.2595
  130OSM    H4G14029  -0.494   4.364   6.630  0.9149 -0.6580 -0.8182
  130OSM    C5F14030  -0.383   4.514   6.725 -0.6393  0.1990 -0.6906
  130OSM    H5F14031  -0.318   4.596   6.686 -0.0278 -0.7699 -1.7585
  130OSM    H5G14032  -0.336   4.442   6.795  2.6028  0.0013 -2.8339
  130OSM    C6F14033  -0.503   4.585   6.785 -0.4295 -0.2703  0.2068
  130OSM    H6F14034  -0.585   4.510   6.783 -1.6057  0.9497  0.7611
  130OSM    H6G14035  -0.530   4.665   6.712 -0.7394  1.5223  2.1961
  130OSM    C7F14036  -0.499   4.658   6.914  0.2537  0.5609  0.0052
  130OSM    H7F14037  -0.591   4.716   6.938 -0.0550  0.0153  0.1654
  130OSM    H7G14038  -0.427   4.740   6.900 -0.8281  1.4574 -0.4479
  130OSM    C8F14039  -0.476   4.565   7.038 -0.0966 -0.7862 -0.0727
  130OSM    H8F14040  -0.387   4.504   7.009  0.4075  0.3871 -1.0913
  130OSM    H8G14041  -0.570   4.506   7.034 -1.3219  1.0593  0.3358
  130OSM    C9F14042  -0.448   4.647   7.165 -0.6515 -0.5706  0.6728
  130OSM    H9F14043  -0.398   4.744   7.150  0.6596 -0.7367  3.4335
  130OSM   C10F14044  -0.463   4.606   7.294  0.0304  0.4522  0.8049
  130OSM   H10F14045  -0.424   4.671   7.374 -2.1233  2.1370  0.5746
  130OSM   C11F14046  -0.519   4.473   7.331  0.4644  0.1613  0.5774
  130OSM   H11F14047  -0.443   4.393   7.324 -1.2955 -1.5107 -0.1928
  130OSM   H11G14048  -0.600   4.439   7.263  1.2252 -1.8365  0.6184
  130OSM   C12F14049  -0.579   4.464   7.476 -0.8453 -0.3722 -0.1847
  130OSM   H12F14050  -0.668   4.398   7.483 -1.4643  0.5422  0.9066
  130OSM   H12G14051  -0.618   4.562   7.511 -2.1100 -0.9735  0.1578
  130OSM   C13F14052  -0.468   4.419   7.582  0.3328 -0.1454  0.2971
  130OSM   H13F14053  -0.372   4.460   7.544 -0.6172  0.6825 -1.3594
  130OSM   H13G14054  -0.457   4.310   7.599  3.1630  0.2732  1.5945
  130OSM   C14F14055  -0.497   4.467   7.730 -0.2201 -0.1689  0.3182
  130OSM   H14F14056  -0.603   4.473   7.761 -0.7602 -1.5641 -1.1103
  130OSM   H14G14057  -0.451   4.567   7.742 -1.8576  0.3993  2.4984
  130OSM   C15F14058  -0.435   4.375   7.844 -0.4336 -0.6569 -0.1413
  130OSM   H15F14059  -0.324   4.381   7.837 -0.4156  1.0766  0.9679
  130OSM   H15G14060  -0.464   4.272   7.816 -1.6586 -0.2351 -0.5027
  130OSM   C16F14061  -0.482   4.409   7.983 -0.2424 -0.0686  0.1177
  130OSM   H16F14062  -0.593   4.404   7.971 -0.2337  0.8150 -0.4516
  130OSM   H16G14063  -0.450   4.511   8.012 -0.9927  0.3372 -0.4339
  130OSM   C17F14064  -0.451   4.315   8.096 -0.1193  0.6793 -0.4047
  130OSM   H17F14065  -0.464   4.211   8.058 -2.7311 -0.4469  3.0125
  130OSM   H17G14066  -0.529   4.325   8.174  0.1422  0.6488 -0.1356
  130OSM   C18F14067  -0.318   4.337   8.165  0.4544  0.3498  0.1063
  130OSM   H18F14068  -0.230   4.289   8.118  1.2747  1.5418  0.4024
  130OSM   H18G14069  -0.325   4.306   8.271 -0.1208  0.1056  0.0034
  130OSM   H18H14070  -0.291   4.444   8.160  4.6109 -0.5741 -0.8791
  131OSM      N14071   0.203   0.655   5.980 -0.3641  0.4972 -0.2982
  131OSM    C1514072   0.336   0.591   5.999 -0.4664 -0.5108  0.2493
  131OSM   H15A14073   0.366   0.578   6.102  1.1127 -0.5931 -0.2054
  131OSM   H15B14074   0.416   0.662   5.984  0.8879 -1.7978  1.0545
  131OSM   H15C14075   0.344   0.501   5.941  1.0564 -2.5665  3.4031
  131OSM    C1414076   0.183   0.732   6.100 -0.4693 -0.0885  0.4109
  131OSM   H14A14077   0.177   0.680   6.195  2.1579  1.7894  1.7201
  131OSM   H14B14078   0.086   0.779   6.092 -0.0965  0.6527  0.1468
  131OSM   H14C14079   0.249   0.816   6.109 -0.8978  0.2665  0.2950
  131OSM    C1314080   0.212   0.737   5.855 -0.2770  0.1261  0.0859
  131OSM   H13A14081   0.225   0.676   5.767 -0.0570 -0.3832  0.4678
  131OSM   H13B14082   0.301   0.797   5.868 -0.4738  0.1140  1.7587
  131OSM   H13C14083   0.125   0.800   5.838 -0.6133  0.1843  1.7764
  131OSM    C1214084   0.093   0.555   5.965  0.4399  0.4904  0.2368
  131OSM   H12A14085   0.003   0.611   5.946 -0.8151 -1.5202 -0.1627
  131OSM   H12B14086   0.079   0.502   6.058  1.5709  0.2757  0.3021
  131OSM    C1114087   0.103   0.439   5.860  0.0227 -0.1032 -0.2388
  131OSM   H11A14088   0.087   0.477   5.756  0.9780  0.1206 -0.3123
  131OSM   H11B14089   0.007   0.383   5.866  0.1393 -0.6587 -2.5985
  131OSM      P14090   0.202   0.239   5.996  0.2981 -0.0404 -0.0104
  131OSM    O1314091   0.123   0.131   5.938  0.1798  0.4534 -0.3719
  131OSM    O1414092   0.340   0.206   6.040 -0.8584  0.2673  0.2458
  131OSM    O1114093   0.117   0.305   6.119 -0.1285 -0.3093  0.5866
  131OSM    O1214094   0.220   0.363   5.885  0.2666  0.1144  0.6446
  131OSM    C1S14095   0.151   0.234   6.242  0.4224 -0.0154  0.4774
  131OSM    H1S14096   0.260   0.243   6.262  0.9795  0.8135 -2.5336
  131OSM    H1T14097   0.133   0.124   6.234 -1.2940  0.3489 -1.4141
  131OSM     NF14098   0.120   0.232   6.490 -0.1937  0.6759  0.1284
  131OSM    HNF14099   0.057   0.167   6.532  0.6280 -0.1079  0.1500
  131OSM    C2S14100   0.078   0.292   6.366  0.3881 -0.2682 -0.5242
  131OSM    H2S14101   0.098   0.401   6.370 -2.8377  0.4999 -2.1550
  131OSM    C3S14102  -0.077   0.278   6.343 -0.0077  0.1539  0.3079
  131OSM    H3S14103  -0.093   0.171   6.316  1.7077  0.2850 -1.4545
  131OSM     O314104  -0.120   0.354   6.221  0.0732 -0.5294 -0.2601
  131OSM    HO314105  -0.039   0.363   6.170  0.8896 -2.4539  0.5722
  131OSM    C4S14106  -0.161   0.320   6.465  0.4237 -0.2365  0.9083
  131OSM    H4S14107  -0.189   0.227   6.518 -0.5912 -0.1550  0.5362
  131OSM    C5S14108  -0.185   0.441   6.524 -0.3438  0.6691  0.0433
  131OSM    H5S14109  -0.133   0.533   6.496  1.0200 -0.8007 -2.7016
  131OSM    C6S14110  -0.260   0.459   6.656  0.3720  0.2750 -0.0533
  131OSM    H6S14111  -0.354   0.400   6.647 -1.5942  2.4513  3.7941
  131OSM    H6T14112  -0.294   0.562   6.676  1.3457  0.9043 -1.5066
  131OSM    C7S14113  -0.169   0.433   6.789  0.8000  0.0918 -0.7189
  131OSM    H7S14114  -0.251   0.455   6.861 -0.8849  0.3494 -2.6297
  131OSM    H7T14115  -0.085   0.504   6.800  2.8243 -2.3836  0.9995
  131OSM    C8S14116  -0.124   0.286   6.796 -0.0003 -0.2326  0.8657
  131OSM    H8S14117  -0.038   0.271   6.728 -0.6889 -2.6184  0.4339
  131OSM    H8T14118  -0.207   0.219   6.766  1.7194 -1.5021 -1.3699
  131OSM    C9S14119  -0.086   0.249   6.937 -0.1496 -0.8471  0.2918
  131OSM    H9S14120  -0.171   0.294   6.992  0.2710  2.1635 -1.3171
  131OSM    H9T14121  -0.001   0.313   6.971 -0.2541 -0.1838 -0.6754
  131OSM   C10S14122  -0.053   0.099   6.959 -0.1639 -0.1637  0.5004
  131OSM   H10S14123   0.020   0.074   6.878 -1.4466  1.2497 -1.1980
  131OSM   H10T14124  -0.144   0.037   6.944  0.0137 -0.2270 -0.4176
  131OSM   C11S14125  -0.004   0.072   7.099 -0.7439  0.5675 -0.1563
  131OSM   H11S14126   0.095   0.119   7.116 -0.0461 -1.2865  1.2145
  131OSM   H11T14127   0.030  -0.033   7.115  2.4614  1.5132  0.0381
  131OSM   C12S14128  -0.097   0.102   7.215 -0.5540 -0.3977  0.0877
  131OSM   H12S14129  -0.201   0.069   7.192 -0.4961 -0.0967 -0.6363
  131OSM   H12T14130  -0.102   0.211   7.239 -1.2406 -0.1088 -1.2427
  131OSM   C13S14131  -0.057   0.035   7.340 -0.1648 -0.3705  0.4073
  131OSM   H13S14132   0.045   0.075   7.362 -0.0212 -1.1357  1.2112
  131OSM   H13T14133  -0.054  -0.074   7.320  1.4650 -0.1511 -0.7825
  131OSM   C14S14134  -0.135   0.068   7.470  0.3153 -0.4805 -0.5820
  131OSM   H14S14135  -0.122  -0.012   7.546 -1.4030  0.6657  1.0107
  131OSM   H14T14136  -0.245   0.068   7.459  0.2481 -0.3025  0.0547
  131OSM   C15S14137  -0.082   0.190   7.541 -0.3647  0.7049 -0.0177
  131OSM   H15S14138  -0.095   0.277   7.474 -3.0698  1.0182  0.7892
  131OSM   H15T14139   0.025   0.159   7.545 -0.0113  1.6487 -1.3629
  131OSM   C16S14140  -0.147   0.235   7.672  0.3044  0.6481  0.2471
  131OSM   H16S14141  -0.088   0.324   7.704  0.8471  0.6170 -0.6519
  131OSM   H16T14142  -0.131   0.161   7.754  3.9882  0.7775 -0.1897
  131OSM   C17S14143  -0.294   0.277   7.641  0.1848 -1.3727 -0.3753
  131OSM   H17S14144  -0.347   0.182   7.615 -0.8241 -0.6695 -0.9473
  131OSM   H17T14145  -0.285   0.338   7.549  2.0196 -1.8263 -0.5304
  131OSM   C18S14146  -0.369   0.349   7.755 -0.1349  0.6688  0.0053
  131OSM   H18S14147  -0.475   0.376   7.737 -0.2031  1.3217  1.2536
  131OSM   H18T14148  -0.309   0.438   7.784  0.4551  0.0627  0.7125
  131OSM   H18U14149  -0.371   0.277   7.840  0.9614 -0.8519 -1.1999
  131OSM    C1F14150   0.241   0.260   6.541 -0.6744  0.2423 -0.0084
  131OSM     OF14151   0.321   0.340   6.499 -1.0204  0.0247  0.3899
  131OSM    C2F14152   0.273   0.189   6.673 -0.0083 -0.5727  0.4248
  131OSM    H2F14153   0.249   0.084   6.644  2.8687 -1.2173 -0.0276
  131OSM    H2G14154   0.222   0.242   6.756  1.5303 -0.2873  1.2270
  131OSM    C3F14155   0.421   0.190   6.714 -0.9799  1.0122 -0.4621
  131OSM    H3F14156   0.459   0.294   6.728 -0.4309  0.8394 -0.6493
  131OSM    H3G14157   0.480   0.151   6.628 -2.3009  1.5831 -1.6500
  131OSM    C4F14158   0.442   0.124   6.856 -0.0795  0.3860  0.4150
  131OSM    H4F14159   0.548   0.092   6.870 -0.2746  0.4588  2.3273
  131OSM    H4G14160   0.380   0.033   6.868  1.2999 -0.8447 -1.3487
  131OSM    C5F14161   0.412   0.218   6.975 -0.3348  0.5386 -0.8738
  131OSM    H5F14162   0.311   0.254   6.948 -1.0591 -0.4852  0.3154
  131OSM    H5G14163   0.477   0.305   6.996  0.6192 -0.4661  0.6270
  131OSM    C6F14164   0.391   0.129   7.107  0.2782 -0.7387  0.5583
  131OSM    H6F14165   0.487   0.088   7.145  1.1301 -0.0696 -0.8006
  131OSM    H6G14166   0.317   0.052   7.075 -2.1249  2.9228 -3.9268
  131OSM    C7F14167   0.322   0.210   7.225  0.2666 -0.0844 -0.0280
  131OSM    H7F14168   0.283   0.152   7.310  1.3052  1.0395  1.2643
  131OSM    H7G14169   0.243   0.275   7.182  0.6755  0.8279  0.5625
  131OSM    C8F14170   0.432   0.294   7.298  0.7225 -0.0553  0.5136
  131OSM    H8F14171   0.459   0.369   7.221 -0.8044 -0.4899 -0.5037
  131OSM    H8G14172   0.530   0.253   7.329  1.8126  2.0717  0.0325
  131OSM    C9F14173   0.358   0.369   7.409  0.0112  0.3213 -0.3752
  131OSM    H9F14174   0.310   0.465   7.381  1.3610  0.7563 -1.2897
  131OSM   C10F14175   0.341   0.330   7.540 -0.0236  0.4327  0.7991
  131OSM   H10F14176   0.306   0.397   7.620  0.4278 -0.4222  1.7315
  131OSM   C11F14177   0.389   0.204   7.597 -0.3033  0.0050 -0.1243
  131OSM   H11F14178   0.499   0.191   7.583  0.4182  4.0548  0.6958
  131OSM   H11G14179   0.336   0.129   7.535 -0.3054 -1.0774  1.1377
  131OSM   C12F14180   0.368   0.183   7.745 -0.0054 -0.0343 -0.3543
  131OSM   H12F14181   0.258   0.192   7.761  0.3391  2.4941  1.0972
  131OSM   H12G14182   0.409   0.267   7.805 -2.6493  2.0704 -1.2482
  131OSM   C13F14183   0.415   0.050   7.805  0.5103 -0.7771 -0.3612
  131OSM   H13F14184   0.524   0.052   7.826  0.8296  0.9409 -1.9525
  131OSM   H13G14185   0.394  -0.021   7.723 -1.1018 -1.0151  0.2105
  131OSM   C14F14186   0.342   0.011   7.935  0.8234 -0.3932 -0.1120
  131OSM   H14F14187   0.233   0.009   7.915  0.3392 -1.0576  2.2918
  131OSM   H14G14188   0.368   0.100   7.996  2.4057  1.0380 -2.6923
  131OSM   C15F14189   0.388  -0.122   7.998 -0.7087 -0.3460  0.1280
  131OSM   H15F14190   0.498  -0.110   7.991 -0.9456  1.8848 -0.5828
  131OSM   H15G14191   0.366  -0.217   7.944 -1.0560 -0.0116 -0.3286
  131OSM   C16F14192   0.348  -0.118   8.151 -0.3944 -0.8474  0.2096
  131OSM   H16F14193   0.242  -0.089   8.165  0.4322  1.7420  1.7723
  131OSM   H16G14194   0.398  -0.028   8.192 -0.3842 -1.0304  0.6009
  131OSM   C17F14195   0.391  -0.239   8.236 -0.0559 -0.1343 -0.8334
  131OSM   H17F14196   0.499  -0.265   8.233 -0.4232 -2.0617  0.2466
  131OSM   H17G14197   0.348  -0.321   8.174 -1.0204 -0.3349  0.0811
  131OSM   C18F14198   0.321  -0.237   8.375 -0.2024 -0.1982 -0.0666
  131OSM   H18F14199   0.355  -0.150   8.435  0.7777 -0.0019 -0.8936
  131OSM   H18G14200   0.336  -0.338   8.419 -1.2185  0.2431  1.3768
  131OSM   H18H14201   0.212  -0.225   8.356 -1.0941 -2.7027  2.7455
  132OSM      N14202   6.606   1.374   6.170 -0.1694 -0.0132 -0.1450
  132OSM    C1514203   6.530   1.434   6.294 -0.2657 -0.4548 -0.3488
  132OSM   H15A14204   6.459   1.507   6.257  1.0406  1.1277  0.1407
  132OSM   H15B14205   6.584   1.500   6.360 -1.3925 -0.8424  0.9962
  132OSM   H15C14206   6.487   1.357   6.356 -0.1818 -1.2340 -1.2287
  132OSM    C1414207   6.531   1.257   6.119  0.0857  1.2035 -0.3008
  132OSM   H14A14208   6.569   1.223   6.024 -0.6177 -0.5519 -0.0026
  132OSM   H14B14209   6.427   1.270   6.093 -0.6786 -2.6334  0.2673
  132OSM   H14C14210   6.536   1.173   6.186 -2.7621  1.3550  0.2115
  132OSM    C1314211   6.612   1.475   6.051 -0.7636  0.3141  0.1363
  132OSM   H13A14212   6.616   1.415   5.962 -1.3631  1.2619 -0.5319
  132OSM   H13B14213   6.692   1.548   6.052  1.6803 -2.1171 -1.6250
  132OSM   H13C14214   6.520   1.530   6.044 -1.3046 -0.6579 -0.5964
  132OSM    C1214215   6.750   1.336   6.215  0.2448 -0.0833  0.3842
  132OSM   H12A14216   6.804   1.427   6.240 -0.4528  0.6070 -0.5499
  132OSM   H12B14217   6.801   1.304   6.126 -0.8380 -1.1552  0.1282
  132OSM    C1114218   6.787   1.234   6.328  0.1393 -0.1863 -0.5814
  132OSM   H11A14219   6.767   1.286   6.424  1.5172 -1.1774  0.2703
  132OSM   H11B14220   6.897   1.218   6.325  0.0581 -1.4497  1.3104
  132OSM      P14221   6.785   0.990   6.234 -0.3078 -0.0120  0.2268
  132OSM    O1314222   6.693   0.946   6.127 -0.0841 -0.4992 -0.2854
  132OSM    O1414223   6.921   1.019   6.196 -0.3176 -0.7284  0.1384
  132OSM    O1114224   6.785   0.884   6.345 -0.3492  0.4574  0.1528
  132OSM    O1214225   6.721   1.112   6.311 -0.4180 -0.0003 -0.1272
  132OSM    C1S14226   6.780   0.916   6.489 -0.0494  0.0358  0.5416
  132OSM    H1S14227   6.678   0.957   6.510  0.0271  1.3126 -1.3328
  132OSM    H1T14228   6.847   1.002   6.510  0.8010 -0.0877 -1.4636
  132OSM     NF14229   6.815   0.833   6.713  0.0675  0.1814  0.4201
  132OSM    HNF14230   6.897   0.870   6.758  0.1316  1.0790 -0.4120
  132OSM    C2S14231   6.819   0.795   6.570  0.4539 -0.5929  1.1876
  132OSM    H2S14232   6.735   0.725   6.549 -2.3431  2.7980  0.0182
  132OSM    C3S14233   6.960   0.737   6.519 -0.0222  0.3890  0.0911
  132OSM    H3S14234   7.025   0.826   6.503  0.0334  0.4045  0.3961
  132OSM     O314235   6.950   0.669   6.395  0.4479  0.0023 -0.3791
  132OSM    HO314236   6.862   0.684   6.361  0.3489 -0.8284 -0.5173
  132OSM    C4S14237   7.016   0.645   6.623 -0.5526  0.2413 -0.3083
  132OSM    H4S14238   6.981   0.540   6.621 -0.7199  0.3012 -0.6681
  132OSM    C5S14239   7.118   0.687   6.703  0.0090  0.3878 -0.9494
  132OSM    H5S14240   7.161   0.787   6.682 -0.6657  1.0025  0.5095
  132OSM    C6S14241   7.191   0.593   6.806 -0.0700 -0.8041 -0.4104
  132OSM    H6S14242   7.299   0.612   6.788  0.1636  0.4563  1.9436
  132OSM    H6T14243   7.166   0.486   6.787 -1.2372 -0.4224 -1.1397
  132OSM    C7S14244   7.161   0.615   6.954 -1.0464 -0.2123  0.2689
  132OSM    H7S14245   7.195   0.714   6.992 -1.7015  1.6647 -3.4820
  132OSM    H7T14246   7.222   0.537   7.003  0.2710  0.3665 -0.4108
  132OSM    C8S14247   7.019   0.602   6.996  0.1935  0.3739  0.1240
  132OSM    H8S14248   6.956   0.529   6.941  1.8753 -0.7993 -0.3283
  132OSM    H8T14249   6.977   0.701   6.965 -0.3147 -0.4800 -2.1122
  132OSM    C9S14250   6.997   0.597   7.149  0.1029 -0.1033  0.7228
  132OSM    H9S14251   7.063   0.669   7.201  3.0170 -1.6442 -0.6130
  132OSM    H9T14252   7.014   0.494   7.185  1.8475 -0.2158 -0.2751
  132OSM   C10S14253   6.843   0.605   7.172 -0.0735 -0.2767 -0.0696
  132OSM   H10S14254   6.790   0.534   7.105 -1.6170  0.2462  0.5458
  132OSM   H10T14255   6.823   0.714   7.155  1.0363 -0.0070  0.2815
  132OSM   C11S14256   6.805   0.568   7.317  0.2001  0.1218  0.4372
  132OSM   H11S14257   6.832   0.461   7.329 -0.8060 -0.1000  0.8054
  132OSM   H11T14258   6.694   0.574   7.326  0.0978  0.8482 -0.9906
  132OSM   C12S14259   6.876   0.650   7.422  0.3362  0.0305 -0.9648
  132OSM   H12S14260   6.843   0.756   7.419  2.2826  0.7068  0.0300
  132OSM   H12T14261   6.986   0.650   7.409  0.1842  0.4879 -2.3214
  132OSM   C13S14262   6.839   0.603   7.570 -0.2921 -0.0553 -0.0270
  132OSM   H13S14263   6.860   0.494   7.569 -0.0042 -0.0095  0.7715
  132OSM   H13T14264   6.733   0.621   7.597 -0.0347 -0.1581  1.0732
  132OSM   C14S14265   6.926   0.673   7.680  0.0860 -0.0887 -0.1549
  132OSM   H14S14266   6.915   0.781   7.656 -2.5472 -0.5037 -1.0923
  132OSM   H14T14267   7.032   0.643   7.667  0.0409  0.3832 -1.8585
  132OSM   C15S14268   6.888   0.630   7.825  0.5725 -0.4345  0.2984
  132OSM   H15S14269   6.954   0.677   7.902 -0.7224  0.3853  0.9395
  132OSM   H15T14270   6.900   0.520   7.826  0.1072 -0.4931 -0.1399
  132OSM   C16S14271   6.748   0.669   7.871  0.0243 -0.5309 -0.1175
  132OSM   H16S14272   6.680   0.606   7.808  1.8736 -0.4385 -2.3647
  132OSM   H16T14273   6.726   0.776   7.850  3.7489  0.4352  0.1602
  132OSM   C17S14274   6.719   0.651   8.019  0.1331  0.2829  0.7058
  132OSM   H17S14275   6.799   0.693   8.083 -1.6826  1.3963  2.3744
  132OSM   H17T14276   6.725   0.544   8.046 -0.8076  0.5064  1.8894
  132OSM   C18S14277   6.584   0.704   8.070  0.1352  0.1690  0.1246
  132OSM   H18S14278   6.563   0.801   8.020  1.1469  2.0770  3.1462
  132OSM   H18T14279   6.603   0.727   8.177 -0.9974 -1.3594  0.6966
  132OSM   H18U14280   6.498   0.636   8.052  0.4780 -0.5148  1.0087
  132OSM    C1F14281   6.702   0.859   6.775 -0.4182 -0.4744  0.7300
  132OSM     OF14282   6.591   0.833   6.728  0.0378 -0.2877  0.4686
  132OSM    C2F14283   6.712   0.939   6.906 -0.1017  0.7349  0.7230
  132OSM    H2F14284   6.757   1.038   6.882  0.3808  0.9598  2.4656
  132OSM    H2G14285   6.783   0.872   6.958 -0.0231  0.4810  0.2964
  132OSM    C3F14286   6.582   0.948   6.987  0.0052 -0.8007  0.8172
  132OSM    H3F14287   6.535   0.851   7.014 -2.7741  0.2104 -0.1069
  132OSM    H3G14288   6.512   0.992   6.913  1.7054  1.7467  0.5862
  132OSM    C4F14289   6.593   1.044   7.103 -0.0797  0.3553  0.5749
  132OSM    H4F14290   6.492   1.090   7.108 -0.4858 -0.4027 -0.2409
  132OSM    H4G14291   6.660   1.122   7.060 -0.7886  1.5412  1.5460
  132OSM    C5F14292   6.663   0.991   7.228 -0.0270 -0.1493 -0.1578
  132OSM    H5F14293   6.763   0.949   7.206 -0.0512 -0.1147 -0.3356
  132OSM    H5G14294   6.603   0.902   7.258 -0.0089 -0.4663 -1.0305
  132OSM    C6F14295   6.664   1.083   7.356 -0.5879  0.9307  0.3381
  132OSM    H6F14296   6.564   1.120   7.388 -0.8544 -0.3188  1.0042
  132OSM    H6G14297   6.732   1.165   7.324  1.0971  0.5836  2.7878
  132OSM    C7F14298   6.716   1.027   7.488 -0.3543  0.1443 -0.4991
  132OSM    H7F14299   6.803   0.959   7.478 -0.4106 -0.1569  0.8352
  132OSM    H7G14300   6.637   0.975   7.546  1.2913 -2.3136 -0.2917
  132OSM    C8F14301   6.770   1.145   7.583 -0.0586  0.5965 -0.6531
  132OSM    H8F14302   6.860   1.192   7.538 -1.8854  3.5248 -1.5350
  132OSM    H8G14303   6.800   1.109   7.683 -0.1126 -0.5460 -1.0333
  132OSM    C9F14304   6.669   1.263   7.590  0.1820  0.8931  0.4178
  132OSM    H9F14305   6.699   1.349   7.528  0.8831 -1.0862 -2.1568
  132OSM   C10F14306   6.553   1.271   7.662  0.1084  0.0500  0.0071
  132OSM   H10F14307   6.494   1.363   7.658  1.0616  0.6358 -2.3880
  132OSM   C11F14308   6.498   1.151   7.738 -0.1189  0.1144 -0.6493
  132OSM   H11F14309   6.548   1.054   7.716 -1.1550 -0.3353 -1.1081
  132OSM   H11G14310   6.389   1.149   7.716  0.0639  0.1494 -1.6369
  132OSM   C12F14311   6.520   1.161   7.891  0.4456  0.7371  0.1444
  132OSM   H12F14312   6.628   1.175   7.909  1.4637 -3.2689 -1.7084
  132OSM   H12G14313   6.508   1.059   7.933 -2.6308  0.1088 -1.8652
  132OSM   C13F14314   6.430   1.267   7.957  0.2368  0.1225  0.2731
  132OSM   H13F14315   6.461   1.369   7.924  0.6830  0.6531  2.2087
  132OSM   H13G14316   6.462   1.270   8.063 -0.5258  0.5455  0.4964
  132OSM   C14F14317   6.279   1.246   7.956 -0.3685 -0.0463  0.7507
  132OSM   H14F14318   6.260   1.137   7.966  1.9102 -0.3377  2.6984
  132OSM   H14G14319   6.233   1.283   7.861  1.0371 -0.0847  0.0220
  132OSM   C15F14320   6.215   1.312   8.082  0.1247  0.6862  0.2119
  132OSM   H15F14321   6.199   1.420   8.061 -1.4552  0.2290 -1.1549
  132OSM   H15G14322   6.270   1.287   8.175 -2.3811 -2.1022  1.0981
  132OSM   C16F14323   6.081   1.244   8.116 -0.7249  0.6490  0.4659
  132OSM   H16F14324   6.032   1.288   8.205 -2.7067  3.1714 -1.6931
  132OSM   H16G14325   6.102   1.136   8.136  0.8638  1.2407  2.2964
  132OSM   C17F14326   5.979   1.258   8.000 -0.0847 -0.2584  0.1871
  132OSM   H17F14327   6.017   1.206   7.910 -0.4699 -1.7248  0.8238
  132OSM   H17G14328   5.952   1.363   7.974  2.0193 -0.1326 -1.7776
  132OSM   C18F14329   5.850   1.187   8.037  0.3428  0.4842 -0.0318
  132OSM   H18F14330   5.758   1.226   7.988 -1.7224 -1.4644  2.0329
  132OSM   H18G14331   5.824   1.199   8.144 -0.2505 -0.2713 -0.0773
  132OSM   H18H14332   5.858   1.079   8.010 -1.7016  0.2178  0.2428
  133OSM      N14333   1.133   6.567   6.104  0.2321 -0.5082  0.1488
  133OSM    C1514334   1.264   6.617   6.162  0.0074  0.8477  0.0433
  133OSM   H15A14335   1.247   6.687   6.242 -1.3773  1.0989 -0.4356
  133OSM   H15B14336   1.332   6.659   6.089 -0.4676 -3.0871 -3.0436
  133OSM   H15C14337   1.312   6.528   6.200 -1.5731 -0.8470 -1.6838
  133OSM    C1414338   1.154   6.442   6.018  0.5214 -0.2465 -0.0446
  133OSM   H14A14339   1.210   6.366   6.071 -0.3475 -0.7735  0.1328
  133OSM   H14B14340   1.190   6.462   5.918 -0.9440  1.3403 -0.2954
  133OSM   H14C14341   1.055   6.401   6.003  0.3574  0.8039 -2.0764
  133OSM    C1314342   1.046   6.524   6.214  0.0156  0.4341 -0.1351
  133OSM   H13A14343   1.082   6.440   6.273 -1.4223  0.3384  0.6554
  133OSM   H13B14344   0.945   6.508   6.178  0.8530  0.7929 -2.7764
  133OSM   H13C14345   1.028   6.610   6.277 -1.6095  1.3086 -1.7161
  133OSM    C1214346   1.064   6.674   6.023  0.2618 -0.0547 -0.2977
  133OSM   H12A14347   0.962   6.648   5.998  0.4187 -0.3142 -0.6662
  133OSM   H12B14348   1.111   6.681   5.927  0.3170 -1.1823 -0.3686
  133OSM    C1114349   1.065   6.806   6.098 -0.5777  0.7075  0.8980
  133OSM   H11A14350   1.160   6.855   6.069 -0.2054 -0.6354 -0.2140
  133OSM   H11B14351   1.059   6.793   6.209  1.0375  2.4442  1.2451
  133OSM      P14352   0.809   6.852   6.074 -0.3237 -0.3232 -0.3055
  133OSM    O1314353   0.724   6.971   6.051  0.3336  0.1363 -0.4521
  133OSM    O1414354   0.770   6.728   6.013 -0.3952  0.0416 -0.0114
  133OSM    O1114355   0.805   6.814   6.230  0.0684 -0.0118 -0.1026
  133OSM    O1214356   0.957   6.882   6.054  0.0299 -0.4205  1.3542
  133OSM    C1S14357   0.832   6.924   6.323 -0.0169  0.3474  0.4521
  133OSM    H1S14358   0.758   7.004   6.301  0.6819  0.8282 -0.2040
  133OSM    H1T14359   0.938   6.956   6.313 -0.0671  0.9655  1.7598
  133OSM     NF14360   0.842   6.989   6.560  0.1638  0.3099  0.3447
  133OSM    HNF14361   0.925   6.974   6.615  0.1661 -1.1763 -0.0030
  133OSM    C2S14362   0.802   6.879   6.473 -0.1407  0.9001 -0.8995
  133OSM    H2S14363   0.692   6.864   6.480  0.1570 -0.7403  1.9568
  133OSM    C3S14364   0.866   6.739   6.513 -0.2960  0.2572  0.0845
  133OSM    H3S14365   0.975   6.737   6.496 -0.0748  2.5848  0.8086
  133OSM     O314366   0.828   6.633   6.427 -0.2908  0.4040  0.0717
  133OSM    HO314367   0.818   6.672   6.340 -0.7834 -0.0258 -0.0759
  133OSM    C4S14368   0.836   6.712   6.662  0.0390 -0.3943  0.2967
  133OSM    H4S14369   0.923   6.741   6.722  0.6115 -0.1653 -0.6166
  133OSM    C5S14370   0.725   6.661   6.719 -0.3756 -0.7524 -0.1463
  133OSM    H5S14371   0.638   6.658   6.652 -0.5355  0.9629 -0.0701
  133OSM    C6S14372   0.703   6.646   6.868 -0.2413 -0.5172 -0.5589
  133OSM    H6S14373   0.744   6.548   6.899 -1.5272 -0.1983  2.5262
  133OSM    H6T14374   0.597   6.651   6.902  0.4730 -1.0493  1.9071
  133OSM    C7S14375   0.783   6.742   6.957  0.7562 -1.1413  0.4341
  133OSM    H7S14376   0.769   6.849   6.929  2.1439 -0.9840  0.2372
  133OSM    H7T14377   0.893   6.725   6.946  1.0821  0.1094  1.4142
  133OSM    C8S14378   0.749   6.715   7.101 -0.4581 -0.4570 -0.6545
  133OSM    H8S14379   0.793   6.617   7.133 -1.8677 -0.3408  1.9127
  133OSM    H8T14380   0.639   6.715   7.112 -0.3230 -1.9379  1.1903
  133OSM    C9S14381   0.820   6.823   7.187 -0.6231 -0.4928 -0.7987
  133OSM    H9S14382   0.772   6.919   7.162 -0.5067 -0.4409 -0.8249
  133OSM    H9T14383   0.926   6.841   7.159 -1.1126  1.5873 -1.4580
  133OSM   C10S14384   0.802   6.795   7.337  0.0178  0.6598  0.1603
  133OSM   H10S14385   0.827   6.689   7.357 -2.4942  0.0854  0.6134
  133OSM   H10T14386   0.692   6.802   7.354  0.2013  0.1586  1.6507
  133OSM   C11S14387   0.872   6.899   7.425 -0.2258  0.1392 -0.7176
  133OSM   H11S14388   0.853   7.002   7.387 -2.5612 -0.2363 -0.7188
  133OSM   H11T14389   0.978   6.866   7.413  0.5357  1.7211  1.0689
  133OSM   C12S14390   0.845   6.873   7.572  0.8578 -0.2936 -0.4803
  133OSM   H12S14391   0.861   6.765   7.596 -1.0072 -0.3864  0.5147
  133OSM   H12T14392   0.737   6.884   7.594  0.8644  0.1854 -0.6710
  133OSM   C13S14393   0.919   6.974   7.657  0.2014  0.1224 -0.2203
  133OSM   H13S14394   0.884   7.074   7.622  0.2112 -0.2648 -1.3826
  133OSM   H13T14395   1.029   6.959   7.650  0.1391 -0.0069 -1.0382
  133OSM   C14S14396   0.881   6.954   7.804  0.0142 -0.1335 -0.5562
  133OSM   H14S14397   0.771   6.946   7.811 -0.0796  1.9873  2.3728
  133OSM   H14T14398   0.919   7.037   7.868 -1.4225 -0.7397  1.1785
  133OSM   C15S14399   0.947   6.836   7.872  0.3769  0.3081  0.0802
  133OSM   H15S14400   1.058   6.838   7.867  0.5081  0.9244  2.2974
  133OSM   H15T14401   0.926   6.739   7.822 -0.7742  0.1395  0.8461
  133OSM   C16S14402   0.910   6.815   8.023 -0.9054  0.3434  0.4455
  133OSM   H16S14403   0.970   6.879   8.091  2.0268 -0.7777 -0.9381
  133OSM   H16T14404   0.946   6.716   8.055  0.0562  1.2367  2.2288
  133OSM   C17S14405   0.761   6.828   8.042 -0.2034  0.1022 -0.0663
  133OSM   H17S14406   0.711   6.765   7.965 -0.5527  0.7934 -0.4127
  133OSM   H17T14407   0.725   6.931   8.019  0.0977  0.2559  0.1403
  133OSM   C18S14408   0.714   6.794   8.187  0.1346 -0.4402  0.1564
  133OSM   H18S14409   0.606   6.821   8.196  0.1583 -0.1760 -0.3399
  133OSM   H18T14410   0.773   6.861   8.253  0.8167  0.0260 -0.8984
  133OSM   H18U14411   0.735   6.687   8.207  0.3806 -0.6642 -1.2131
  133OSM    C1F14412   0.773   7.100   6.568 -0.3665  0.5758 -0.2670
  133OSM     OF14413   0.670   7.120   6.506  0.0101  0.4753  0.6257
  133OSM    C2F14414   0.823   7.196   6.666 -0.4381 -0.8393  0.2344
  133OSM    H2F14415   0.910   7.253   6.625 -0.5584  0.4835  1.6982
  133OSM    H2G14416   0.861   7.163   6.765 -0.3723 -0.9393  0.1764
  133OSM    C3F14417   0.730   7.314   6.699  0.5933  0.4024 -0.2315
  133OSM    H3F14418   0.623   7.283   6.705  0.3869  1.3811  2.8381
  133OSM    H3G14419   0.749   7.388   6.619 -0.4661 -1.6306 -2.5033
  133OSM    C4F14420   0.777   7.384   6.827  0.3971 -0.2373 -1.0421
  133OSM    H4F14421   0.738   7.487   6.841  0.3548 -0.3170 -0.5765
  133OSM    H4G14422   0.887   7.395   6.830  0.3029  0.4325  0.9044
  133OSM    C5F14423   0.749   7.300   6.956 -0.2817  0.1059  0.1791
  133OSM    H5F14424   0.813   7.209   6.961 -2.2970 -1.4386 -0.4572
  133OSM    H5G14425   0.645   7.259   6.952  0.3909 -1.7091  0.4268
  133OSM    C6F14426   0.762   7.382   7.084  0.7976 -0.1826 -0.1009
  133OSM    H6F14427   0.691   7.466   7.073 -0.1167 -1.1599 -2.0538
  133OSM    H6G14428   0.866   7.422   7.089  1.5632 -2.1069  0.5598
  133OSM    C7F14429   0.749   7.299   7.213 -0.4775  0.2613  0.6099
  133OSM    H7F14430   0.828   7.221   7.210 -1.5864 -0.9241  0.8911
  133OSM    H7G14431   0.651   7.245   7.212 -0.5199  0.2979  1.5971
  133OSM    C8F14432   0.750   7.379   7.347  0.4746 -0.2449  0.3516
  133OSM    H8F14433   0.835   7.451   7.341  0.2472  0.0761  0.9672
  133OSM    H8G14434   0.761   7.305   7.430  0.1693 -2.3005 -1.3352
  133OSM    C9F14435   0.627   7.460   7.376  0.4452  0.8257  1.0233
  133OSM    H9F14436   0.596   7.521   7.290 -1.6173  2.2282  2.6552
  133OSM   C10F14437   0.564   7.460   7.492  0.3849 -0.2270  0.7287
  133OSM   H10F14438   0.469   7.513   7.504  0.5682  0.0505  0.9738
  133OSM   C11F14439   0.604   7.371   7.613 -0.4597 -0.0602 -0.5885
  133OSM   H11F14440   0.711   7.344   7.615 -0.9092 -1.9780  1.2630
  133OSM   H11G14441   0.550   7.275   7.628  1.8612 -1.2891  0.4230
  133OSM   C12F14442   0.584   7.441   7.755  0.9784 -0.2278 -0.1474
  133OSM   H12F14443   0.478   7.455   7.784  0.6239 -0.7385 -1.1150
  133OSM   H12G14444   0.634   7.540   7.752  1.6618 -0.5626  0.0854
  133OSM   C13F14445   0.647   7.349   7.858  0.1643 -0.0916  0.0739
  133OSM   H13F14446   0.754   7.343   7.829 -0.4309 -0.2908 -2.3017
  133OSM   H13G14447   0.604   7.247   7.857  0.2386 -0.1633 -2.3568
  133OSM   C14F14448   0.642   7.407   7.999  0.5317 -0.0478 -0.4790
  133OSM   H14F14449   0.703   7.500   8.001 -1.1885  1.1308  0.0956
  133OSM   H14G14450   0.697   7.340   8.068  0.5540 -2.0516 -2.3289
  133OSM   C15F14451   0.502   7.428   8.064  0.6405 -0.2225 -0.6853
  133OSM   H15F14452   0.438   7.505   8.016  1.5850  0.2261 -1.2614
  133OSM   H15G14453   0.513   7.464   8.168  0.6826  0.0996 -0.8002
  133OSM   C16F14454   0.413   7.297   8.081 -0.6133 -0.8549 -0.1738
  133OSM   H16F14455   0.471   7.221   8.137 -0.0403 -1.5291 -1.6444
  133OSM   H16G14456   0.388   7.254   7.982  0.3363 -0.4016 -0.6211
  133OSM   C17F14457   0.290   7.326   8.164  0.3323 -0.7682  0.1325
  133OSM   H17F14458   0.229   7.408   8.120  0.5022 -0.7899 -0.1426
  133OSM   H17G14459   0.325   7.360   8.263  3.2803 -2.8394 -0.0799
  133OSM   C18F14460   0.209   7.193   8.192 -0.2672 -1.0807  1.2100
  133OSM   H18F14461   0.113   7.225   8.237  0.4499  1.3197  1.1917
  133OSM   H18G14462   0.268   7.129   8.262  0.8202  0.4151  1.7146
  133OSM   H18H14463   0.200   7.138   8.096 -1.9220 -1.7478  1.7008
  134OSM      N14464   1.553   3.129   6.228 -1.2277 -0.0141 -0.5664
  134OSM    C1514465   1.580   3.017   6.133 -0.9086  0.6108 -0.5679
  134OSM   H15A14466   1.661   3.037   6.064  0.5970  2.5160  1.5951
  134OSM   H15B14467   1.492   3.000   6.074  0.0381  0.4912 -1.9841
  134OSM   H15C14468   1.608   2.926   6.185 -0.6464  0.5631 -0.7930
  134OSM    C1414469   1.505   3.254   6.158 -0.2433  0.0336 -0.0548
  134OSM   H14A14470   1.402   3.245   6.128  0.1196 -0.7158 -1.1427
  134OSM   H14B14471   1.544   3.257   6.057  0.1286 -0.4021  0.0749
  134OSM   H14C14472   1.531   3.347   6.207  0.4839 -0.8352  1.2542
  134OSM    C1314473   1.441   3.089   6.324  0.8448 -0.6586  0.5041
  134OSM   H13A14474   1.461   2.995   6.374  0.2994 -0.5965  0.8519
  134OSM   H13B14475   1.352   3.078   6.264  1.0144 -2.1585  0.4851
  134OSM   H13C14476   1.421   3.176   6.386 -0.7782  0.4400 -1.4347
  134OSM    C1214477   1.671   3.158   6.313  0.0307 -0.8337  0.0032
  134OSM   H12A14478   1.755   3.180   6.249  1.2056 -1.6991  1.1964
  134OSM   H12B14479   1.694   3.062   6.356  0.8138 -0.9919 -0.7545
  134OSM    C1114480   1.658   3.263   6.428  0.3026  0.5178  0.3347
  134OSM   H11A14481   1.750   3.263   6.491  0.6426 -2.3766 -0.0367
  134OSM   H11B14482   1.573   3.235   6.494 -0.6355 -2.5389 -1.9505
  134OSM      P14483   1.739   3.498   6.337  0.1385 -0.7729  0.2833
  134OSM    O1314484   1.833   3.435   6.240 -0.4443 -0.6397 -0.2862
  134OSM    O1414485   1.670   3.628   6.302 -0.2134 -0.3361  0.0339
  134OSM    O1114486   1.817   3.508   6.472 -0.1184 -0.0281 -0.0330
  134OSM    O1214487   1.623   3.399   6.381 -0.1534  0.5297  0.0771
  134OSM    C1S14488   1.752   3.562   6.589  0.3590  0.5052 -0.6427
  134OSM    H1S14489   1.656   3.511   6.610  1.7253 -1.3486  1.5780
  134OSM    H1T14490   1.735   3.671   6.578  1.2345  0.7330  0.1386
  134OSM     NF14491   1.754   3.618   6.814  0.0089  0.6847  1.6151
  134OSM    HNF14492   1.768   3.716   6.823 -2.4668  1.5418 -1.9681
  134OSM    C2S14493   1.829   3.546   6.720 -0.5835  0.7313  0.4322
  134OSM    H2S14494   1.837   3.439   6.752 -1.7640  1.0180  1.8423
  134OSM    C3S14495   1.979   3.595   6.700  0.2242  0.4998  0.5339
  134OSM    H3S14496   1.972   3.694   6.649  0.3076  0.9159  1.3201
  134OSM     O314497   2.047   3.509   6.609  0.7417 -0.0507 -0.1654
  134OSM    HO314498   1.972   3.496   6.550 -2.2029  2.5480  2.6110
  134OSM    C4S14499   2.054   3.608   6.832  0.3906  0.1515 -0.5620
  134OSM    H4S14500   2.044   3.707   6.878 -1.8953 -0.8394  1.2508
  134OSM    C5S14501   2.135   3.515   6.891 -0.2367 -0.5568  0.7137
  134OSM    H5S14502   2.146   3.416   6.844  1.8273 -0.4277  0.8409
  134OSM    C6S14503   2.214   3.535   7.014  1.4014  0.0222 -0.7283
  134OSM    H6S14504   2.254   3.638   7.015  0.8917  0.2491  1.8366
  134OSM    H6T14505   2.293   3.458   7.025  0.4243 -0.7099  1.6439
  134OSM    C7S14506   2.114   3.526   7.138 -0.5896 -0.3082 -0.5718
  134OSM    H7S14507   2.072   3.423   7.135 -1.6881  0.0365  1.4259
  134OSM    H7T14508   2.025   3.591   7.124 -1.1001 -1.4710 -3.5647
  134OSM    C8S14509   2.185   3.536   7.264  0.7536 -0.6324 -0.5004
  134OSM    H8S14510   2.245   3.628   7.247 -1.8922  0.7857 -2.9026
  134OSM    H8T14511   2.252   3.449   7.281 -1.2660 -2.6130 -2.1632
  134OSM    C9S14512   2.093   3.553   7.386 -0.1583  0.2655 -0.0361
  134OSM    H9S14513   2.018   3.471   7.398 -0.8764  1.0667  1.2238
  134OSM    H9T14514   2.035   3.642   7.353 -0.0080 -0.6256 -2.9939
  134OSM   C10S14515   2.163   3.579   7.522 -0.1579 -0.1319  0.1583
  134OSM   H10S14516   2.206   3.681   7.518  0.8178 -0.5536 -0.9254
  134OSM   H10T14517   2.246   3.506   7.536 -1.3041 -1.5568 -0.1632
  134OSM   C11S14518   2.065   3.575   7.638 -0.0797  0.3218  0.3810
  134OSM   H11S14519   2.120   3.609   7.728  0.8550  0.6734 -0.2988
  134OSM   H11T14520   2.031   3.470   7.653  0.5458  0.1829  0.8811
  134OSM   C12S14521   1.947   3.669   7.619 -0.2263 -0.3719  0.8035
  134OSM   H12S14522   1.870   3.623   7.554 -0.9202  2.2847 -0.3789
  134OSM   H12T14523   1.971   3.755   7.553 -2.7835  0.5851  0.9904
  134OSM   C13S14524   1.892   3.720   7.753  0.2634  0.2677 -0.3243
  134OSM   H13S14525   1.822   3.806   7.750  1.2338  1.2956  2.5589
  134OSM   H13T14526   1.974   3.774   7.805 -0.0721  1.1605 -0.7200
  134OSM   C14S14527   1.829   3.609   7.833 -0.2786 -0.3270 -0.0604
  134OSM   H14S14528   1.898   3.523   7.843 -0.7601 -0.6912  0.1833
  134OSM   H14T14529   1.749   3.579   7.762  0.8207  0.5914 -1.7614
  134OSM   C15S14530   1.779   3.648   7.973  0.0416 -0.2141 -0.3741
  134OSM   H15S14531   1.729   3.561   8.022 -0.6978  1.0939  1.3121
  134OSM   H15T14532   1.707   3.729   7.954  1.7875  1.2056 -1.2762
  134OSM   C16S14533   1.882   3.699   8.077  0.1190 -0.0449 -0.1058
  134OSM   H16S14534   1.930   3.793   8.045  0.7503 -0.2072  0.3440
  134OSM   H16T14535   1.961   3.620   8.081 -0.2865 -0.3989  2.2420
  134OSM   C17S14536   1.813   3.722   8.214 -0.4327 -0.4674 -0.8237
  134OSM   H17S14537   1.753   3.630   8.231 -1.3266  0.5449  2.0938
  134OSM   H17T14538   1.742   3.807   8.212  0.2076  0.0635 -2.1351
  134OSM   C18S14539   1.914   3.725   8.332  0.4920 -1.2689 -0.0899
  134OSM   H18S14540   1.961   3.825   8.339 -0.1413 -1.0626  1.7659
  134OSM   H18T14541   1.985   3.640   8.319  1.4261 -0.3952 -0.9150
  134OSM   H18U14542   1.850   3.719   8.422  1.7449 -1.0330  0.8459
  134OSM    C1F14543   1.657   3.555   6.883 -0.1433 -0.2696  0.0115
  134OSM     OF14544   1.607   3.455   6.830 -0.0215 -0.3530  0.3712
  134OSM    C2F14545   1.599   3.617   7.006 -0.0219  0.2336 -0.0812
  134OSM    H2F14546   1.549   3.714   6.984  0.9340  0.7791  0.1081
  134OSM    H2G14547   1.685   3.639   7.073 -0.7994 -1.7925  1.7167
  134OSM    C3F14548   1.527   3.507   7.093 -0.2613  0.3621  0.3413
  134OSM    H3F14549   1.587   3.414   7.086 -0.5667  0.2145 -0.4486
  134OSM    H3G14550   1.432   3.471   7.047  0.0686 -2.6930  1.8087
  134OSM    C4F14551   1.492   3.545   7.245  0.6210  0.3358  0.2329
  134OSM    H4F14552   1.436   3.456   7.280  0.7780  0.3014  0.3982
  134OSM    H4G14553   1.414   3.623   7.237  0.9487  0.5105 -1.8462
  134OSM    C5F14554   1.610   3.565   7.329 -0.1811  0.0671 -0.1817
  134OSM    H5F14555   1.668   3.654   7.295  0.5815 -0.4200 -0.1968
  134OSM    H5G14556   1.691   3.489   7.328  1.1932  1.4808 -0.8161
  134OSM    C6F14557   1.566   3.590   7.478 -0.2751 -0.7598  0.0014
  134OSM    H6F14558   1.655   3.593   7.543  0.3249 -0.7212 -0.8040
  134OSM    H6G14559   1.501   3.504   7.506 -0.0075 -0.7144  0.7792
  134OSM    C7F14560   1.479   3.720   7.512 -1.2257 -0.0088  0.4138
  134OSM    H7F14561   1.377   3.715   7.469 -0.9310  1.6634 -0.5880
  134OSM    H7G14562   1.530   3.806   7.462 -0.8980  0.3254  1.2932
  134OSM    C8F14563   1.477   3.755   7.663 -0.5022 -0.3986  0.5021
  134OSM    H8F14564   1.460   3.864   7.667  0.8379 -0.1191 -0.8044
  134OSM    H8G14565   1.579   3.748   7.706 -1.0237 -0.8189  1.7402
  134OSM    C9F14566   1.377   3.672   7.733 -0.0546 -0.2847  0.4172
  134OSM    H9F14567   1.388   3.563   7.724 -2.7208 -0.9008  3.1150
  134OSM   C10F14568   1.265   3.718   7.790  0.0838 -0.4293  0.0701
  134OSM   H10F14569   1.199   3.653   7.849 -1.7233  2.9493  1.9996
  134OSM   C11F14570   1.213   3.863   7.792  0.2660  0.2951  0.2189
  134OSM   H11F14571   1.111   3.862   7.750  0.2865 -0.4625  0.1821
  134OSM   H11G14572   1.271   3.925   7.719  1.2781 -0.8962 -0.0356
  134OSM   C12F14573   1.226   3.944   7.928 -0.2553  0.0496  0.4810
  134OSM   H12F14574   1.155   3.896   8.000 -0.2070 -2.0147 -0.7870
  134OSM   H12G14575   1.195   4.047   7.898 -2.6692 -0.5941  0.5571
  134OSM   C13F14576   1.365   3.932   7.983 -0.1644 -1.2356 -0.1454
  134OSM   H13F14577   1.438   3.946   7.900 -1.0273 -0.7617 -0.8410
  134OSM   H13G14578   1.376   3.832   8.029 -0.3808 -1.0755  0.2657
  134OSM   C14F14579   1.407   4.045   8.080 -0.1445  0.1801  0.2426
  134OSM   H14F14580   1.411   4.136   8.016 -0.6407 -0.4013 -0.6255
  134OSM   H14G14581   1.511   4.023   8.111 -0.4468 -1.8122 -0.0226
  134OSM   C15F14582   1.320   4.038   8.202 -0.0999  0.0156  0.5020
  134OSM   H15F14583   1.337   3.940   8.250  0.8306 -1.3585 -2.4289
  134OSM   H15G14584   1.211   4.048   8.185 -0.0295  1.5584  0.7679
  134OSM   C16F14585   1.347   4.154   8.301 -0.8053 -0.0388 -0.0542
  134OSM   H16F14586   1.328   4.251   8.252  1.2817  1.5291  2.0225
  134OSM   H16G14587   1.453   4.137   8.330 -0.7577 -0.4197 -0.4275
  134OSM   C17F14588   1.257   4.149   8.425  0.5118  0.8024  0.7100
  134OSM   H17F14589   1.289   4.066   8.492  2.0852  1.3410  0.6632
  134OSM   H17G14590   1.155   4.124   8.389 -0.1508  2.4040  1.3674
  134OSM   C18F14591   1.249   4.276   8.503  0.3279  0.2956 -0.0783
  134OSM   H18F14592   1.347   4.316   8.538 -0.6832  1.9705  1.0273
  134OSM   H18G14593   1.194   4.253   8.597  1.0737 -3.1456 -0.3382
  134OSM   H18H14594   1.200   4.357   8.444  1.5307  0.7492 -0.4895
  135OSM      N14595   0.870   2.868   6.162 -0.1176  0.1571 -0.3448
  135OSM    C1514596   0.798   2.743   6.120 -0.3169  0.3625  0.3381
  135OSM   H15A14597   0.712   2.775   6.064 -0.4616  0.4067  0.5853
  135OSM   H15B14598   0.764   2.694   6.210 -1.9394  0.8617  0.0187
  135OSM   H15C14599   0.863   2.686   6.055  0.1637  1.0022  0.2492
  135OSM    C1414600   0.908   2.943   6.036  0.7547 -0.2022  0.4531
  135OSM   H14A14601   0.979   2.883   5.980  2.0063  0.0513  1.7129
  135OSM   H14B14602   0.946   3.039   6.066 -0.2334 -0.3839  2.4306
  135OSM   H14C14603   0.823   2.962   5.973  1.2319  0.3141 -0.0439
  135OSM    C1314604   0.782   2.961   6.236 -0.4847  0.4203 -1.0209
  135OSM   H13A14605   0.760   2.934   6.338 -2.5409  1.2245 -1.1970
  135OSM   H13B14606   0.688   2.977   6.185 -1.8437  1.1702  1.5295
  135OSM   H13C14607   0.819   3.062   6.235 -1.6971  0.9310  0.7777
  135OSM    C1214608   0.981   2.839   6.252  0.1431 -0.0464 -0.2075
  135OSM   H12A14609   1.067   2.799   6.200  0.9553  1.9260 -0.4645
  135OSM   H12B14610   0.943   2.755   6.309 -0.9704 -0.6118 -1.7324
  135OSM    C1114611   1.042   2.954   6.342 -0.3265 -0.6183  0.4684
  135OSM   H11A14612   1.131   2.914   6.396 -0.7529 -3.7456 -0.8988
  135OSM   H11B14613   0.966   2.988   6.416 -0.1221  0.9582 -0.0136
  135OSM      P14614   1.076   3.213   6.283 -0.0940 -0.1303 -0.3391
  135OSM    O1314615   1.166   3.273   6.187 -0.5812 -0.0253 -0.0597
  135OSM    O1414616   0.934   3.255   6.279 -0.0271 -0.4241 -0.1412
  135OSM    O1114617   1.132   3.217   6.430 -0.0922 -0.3259  0.1807
  135OSM    O1214618   1.084   3.057   6.255 -0.0107 -0.4481 -0.0444
  135OSM    C1S14619   1.226   3.325   6.472  0.1710 -0.5254  0.4897
  135OSM    H1S14620   1.179   3.421   6.443 -1.6717 -2.0595 -2.1031
  135OSM    H1T14621   1.314   3.328   6.404  0.0178  1.2888  0.3254
  135OSM     NF14622   1.344   3.444   6.650 -0.2734 -0.0066  0.5230
  135OSM    HNF14623   1.429   3.411   6.692 -0.6246 -1.1383  0.3816
  135OSM    C2S14624   1.259   3.330   6.620  0.0090  0.9629 -0.1849
  135OSM    H2S14625   1.163   3.349   6.673  0.5350  2.7925  0.1634
  135OSM    C3S14626   1.312   3.189   6.668 -0.0683  0.3092 -0.4014
  135OSM    H3S14627   1.414   3.179   6.625  0.5080 -2.4585  1.3803
  135OSM     O314628   1.253   3.072   6.611 -0.2535  0.7180 -0.3813
  135OSM    HO314629   1.193   3.095   6.540  0.5666 -1.9209 -2.0585
  135OSM    C4S14630   1.313   3.176   6.822 -0.3696  0.5886  0.6537
  135OSM    H4S14631   1.397   3.227   6.872  2.4456 -2.0674 -0.9909
  135OSM    C5S14632   1.212   3.126   6.902 -0.0692 -0.3728  0.2765
  135OSM    H5S14633   1.113   3.102   6.859 -0.9423  1.6232  1.0586
  135OSM    C6S14634   1.210   3.118   7.045 -0.3969 -0.8653  0.0457
  135OSM    H6S14635   1.160   3.021   7.067 -0.0371 -1.0534  0.0541
  135OSM    H6T14636   1.146   3.200   7.083  0.0463 -1.7684  3.0828
  135OSM    C7S14637   1.350   3.136   7.118  0.0531 -0.0960  0.1763
  135OSM    H7S14638   1.417   3.214   7.075  0.3475 -0.7897 -0.6393
  135OSM    H7T14639   1.402   3.038   7.128 -0.0552 -0.2479 -0.6898
  135OSM    C8S14640   1.329   3.178   7.268 -0.6008  0.1435 -0.0728
  135OSM    H8S14641   1.239   3.130   7.314 -1.3468  0.0078 -1.6053
  135OSM    H8T14642   1.290   3.281   7.277 -3.3024 -0.7904 -0.0919
  135OSM    C9S14643   1.454   3.166   7.358  0.4555 -0.6422  0.2799
  135OSM    H9S14644   1.535   3.221   7.307 -0.5836  0.8428  0.1611
  135OSM    H9T14645   1.491   3.061   7.354  0.8970 -0.4647 -0.7498
  135OSM   C10S14646   1.420   3.212   7.492  0.8001 -0.6729  0.2845
  135OSM   H10S14647   1.333   3.152   7.525 -0.3831 -0.2210 -1.8409
  135OSM   H10T14648   1.387   3.318   7.499  0.3955 -0.7579 -0.2797
  135OSM   C11S14649   1.541   3.203   7.579 -0.4079  0.2423 -0.7700
  135OSM   H11S14650   1.621   3.272   7.545 -0.1065  0.4124  0.2427
  135OSM   H11T14651   1.597   3.107   7.573 -0.9384 -0.2572  1.3282
  135OSM   C12S14652   1.526   3.221   7.736  0.2217  0.5991 -0.3151
  135OSM   H12S14653   1.485   3.133   7.789  1.1315  0.3143 -0.0826
  135OSM   H12T14654   1.456   3.307   7.741  1.5796  1.6931  0.8270
  135OSM   C13S14655   1.647   3.273   7.808 -0.0961 -0.1723 -0.2897
  135OSM   H13S14656   1.688   3.373   7.781  0.9156 -0.5605 -0.2505
  135OSM   H13T14657   1.741   3.219   7.782  0.5357  2.7375 -5.2338
  135OSM   C14S14658   1.621   3.259   7.962  0.4088 -0.2914  0.0729
  135OSM   H14S14659   1.715   3.272   8.020  3.1952 -1.2077 -3.8193
  135OSM   H14T14660   1.593   3.154   7.985  0.6193 -0.2777  0.3989
  135OSM   C15S14661   1.509   3.353   8.004  0.7425 -0.7780  0.8290
  135OSM   H15S14662   1.413   3.301   7.981  0.6533  0.3660 -1.7694
  135OSM   H15T14663   1.510   3.447   7.945 -0.6154  0.4409  2.6470
  135OSM   C16S14664   1.508   3.383   8.158 -0.5935  0.5324 -0.4433
  135OSM   H16S14665   1.589   3.455   8.184  0.2033 -0.3443 -0.4018
  135OSM   H16T14666   1.519   3.290   8.218 -3.1791 -0.4869 -1.4266
  135OSM   C17S14667   1.375   3.452   8.192 -0.3743 -0.4879 -0.4419
  135OSM   H17S14668   1.365   3.469   8.301 -0.4300 -1.1857 -0.3334
  135OSM   H17T14669   1.290   3.386   8.164  0.5131 -2.2214  0.7744
  135OSM   C18S14670   1.368   3.598   8.141  0.2776 -0.3239 -0.0683
  135OSM   H18S14671   1.404   3.669   8.218 -0.1446 -0.8436  0.6113
  135OSM   H18T14672   1.261   3.614   8.115  0.6789  2.4382 -0.3545
  135OSM   H18U14673   1.426   3.621   8.049 -0.9195  1.9914 -0.3125
  135OSM    C1F14674   1.302   3.574   6.631 -0.6829  0.7253  0.5443
  135OSM     OF14675   1.186   3.593   6.600 -0.3040  0.4018 -0.7712
  135OSM    C2F14676   1.393   3.689   6.666 -0.7763  0.8540 -0.2706
  135OSM    H2F14677   1.451   3.728   6.579 -0.7405  0.5988 -0.3622
  135OSM    H2G14678   1.468   3.657   6.741 -1.1640  0.4547 -0.0486
  135OSM    C3F14679   1.328   3.810   6.734 -0.2826  0.8656 -0.2206
  135OSM    H3F14680   1.284   3.771   6.828 -0.4161  0.2178 -0.5509
  135OSM    H3G14681   1.254   3.852   6.662 -0.0836  0.6324 -0.5656
  135OSM    C4F14682   1.418   3.922   6.781  0.2813 -0.0701 -0.5424
  135OSM    H4F14683   1.435   3.983   6.690 -2.1053 -0.0758 -1.0728
  135OSM    H4G14684   1.512   3.882   6.824  0.1027  0.4539  0.3711
  135OSM    C5F14685   1.355   4.018   6.891 -0.0515  0.1906  0.1509
  135OSM    H5F14686   1.267   4.074   6.854  0.0509  0.4646  0.3229
  135OSM    H5G14687   1.435   4.092   6.913  1.3038 -1.6003  1.6899
  135OSM    C6F14688   1.312   3.954   7.023 -0.1282  0.4711 -0.1982
  135OSM    H6F14689   1.388   3.879   7.056  0.7422  1.0861 -0.7770
  135OSM    H6G14690   1.210   3.915   7.006 -0.0156  0.6943 -1.4991
  135OSM    C7F14691   1.303   4.062   7.130  0.3380 -0.3346 -0.5547
  135OSM    H7F14692   1.269   4.164   7.103 -0.1324 -0.4261 -0.3254
  135OSM    H7G14693   1.403   4.097   7.161 -0.1493  0.9058 -0.3511
  135OSM    C8F14694   1.227   4.007   7.251  0.1738  0.1107 -0.1572
  135OSM    H8F14695   1.240   3.897   7.245 -1.3488 -0.0542 -0.9663
  135OSM    H8G14696   1.119   4.028   7.231  0.2500  0.8404  0.1370
  135OSM    C9F14697   1.267   4.036   7.389 -0.3415 -0.1430 -0.4653
  135OSM    H9F14698   1.353   3.982   7.433 -0.2091  0.8715  0.5620
  135OSM   C10F14699   1.198   4.110   7.479  0.4107 -0.7590  0.7646
  135OSM   H10F14700   1.251   4.131   7.573  0.7475  1.0892  0.1902
  135OSM   C11F14701   1.077   4.196   7.444  0.3903  0.5780 -1.0769
  135OSM   H11F14702   1.009   4.149   7.369  0.0005  0.7652 -0.8437
  135OSM   H11G14703   1.117   4.292   7.404  1.6336  1.0340  1.1401
  135OSM   C12F14704   0.995   4.240   7.566 -0.2936  0.4967 -1.0288
  135OSM   H12F14705   1.061   4.281   7.646  0.2328 -1.7676 -0.2189
  135OSM   H12G14706   0.949   4.154   7.620  1.4932 -0.3459 -0.7752
  135OSM   C13F14707   0.884   4.346   7.535 -0.1004  0.0004  0.3104
  135OSM   H13F14708   0.829   4.324   7.441  0.4632  0.6572 -0.1873
  135OSM   H13G14709   0.943   4.435   7.504 -1.2824  0.8067  0.3266
  135OSM   C14F14710   0.806   4.393   7.660 -0.4040  0.2785 -0.8293
  135OSM   H14F14711   0.883   4.429   7.732 -1.1061  2.0362 -0.9263
  135OSM   H14G14712   0.754   4.301   7.696  1.1297  0.1323  1.1887
  135OSM   C15F14713   0.698   4.506   7.637 -0.7227 -0.2925 -0.1007
  135OSM   H15F14714   0.658   4.491   7.534  0.5455  3.8786 -1.4346
  135OSM   H15G14715   0.763   4.597   7.635 -0.9964 -0.0717  0.7584
  135OSM   C16F14716   0.597   4.524   7.751 -0.5003  0.0559 -0.4673
  135OSM   H16F14717   0.531   4.613   7.758 -0.7205  0.0060 -1.7138
  135OSM   H16G14718   0.663   4.540   7.839 -0.6939 -1.9613  0.0925
  135OSM   C17F14719   0.513   4.399   7.785 -1.1620  0.1497  0.3252
  135OSM   H17F14720   0.534   4.386   7.893  1.2119  1.5026  0.1015
  135OSM   H17G14721   0.552   4.305   7.739  0.0794  0.6056  0.4136
  135OSM   C18F14722   0.366   4.409   7.776 -0.3573 -0.0115  0.4093
  135OSM   H18F14723   0.334   4.432   7.672  1.9646 -2.3368 -0.9483
  135OSM   H18G14724   0.326   4.485   7.845  0.4800 -0.1384  1.0485
  135OSM   H18H14725   0.320   4.316   7.816  0.5670 -0.9777 -0.6741
  136OSM      N14726   5.559   5.857   5.954  0.0725  0.7296 -0.2388
  136OSM    C1514727   5.621   5.721   5.957  0.4817  0.1642 -0.1945
  136OSM   H15A14728   5.707   5.730   5.892  0.9669  1.2654  0.5766
  136OSM   H15B14729   5.545   5.649   5.927  1.0715  0.2983 -2.1233
  136OSM   H15C14730   5.666   5.698   6.052  0.4897  1.4029  0.1148
  136OSM    C1414731   5.507   5.883   5.817  0.0125 -0.6939 -0.0214
  136OSM   H14A14732   5.481   5.788   5.772 -0.2221 -0.7871  0.3058
  136OSM   H14B14733   5.576   5.926   5.746  0.9266 -2.4120 -0.2121
  136OSM   H14C14734   5.416   5.940   5.821  0.4230  0.0063 -0.4285
  136OSM    C1314735   5.438   5.859   6.058  0.2411 -0.2354  0.3130
  136OSM   H13A14736   5.382   5.949   6.037  1.2574  0.4546  0.5224
  136OSM   H13B14737   5.475   5.853   6.159 -0.0082  0.6954  0.4700
  136OSM   H13C14738   5.368   5.777   6.049 -0.6573 -0.0149  3.8881
  136OSM    C1214739   5.656   5.965   5.990 -0.2394 -0.5257  0.0325
  136OSM   H12A14740   5.613   6.064   5.991 -0.6033 -0.5862  3.4378
  136OSM   H12B14741   5.730   5.972   5.913 -1.9987 -1.2801 -1.8159
  136OSM    C1114742   5.728   5.947   6.135 -0.2103 -0.9544  0.5817
  136OSM   H11A14743   5.648   5.935   6.211 -0.4619 -2.4463  0.1055
  136OSM   H11B14744   5.781   6.041   6.161 -0.3093 -1.2306  1.8442
  136OSM      P14745   5.965   5.842   6.096  0.0057 -0.1254 -0.2083
  136OSM    O1314746   5.969   5.832   5.954  0.2658 -0.0807  0.5520
  136OSM    O1414747   6.033   5.962   6.159 -0.4487  0.0586  0.0897
  136OSM    O1114748   6.024   5.711   6.147  0.6181 -0.2829 -0.6433
  136OSM    O1214749   5.819   5.836   6.139 -0.1069 -0.7576 -0.1266
  136OSM    C1S14750   6.041   5.686   6.291  0.4523 -0.2421  1.0541
  136OSM    H1S14751   6.067   5.776   6.351 -0.9294  0.3742  0.7789
  136OSM    H1T14752   6.121   5.610   6.303  0.1024 -1.0808 -1.3457
  136OSM     NF14753   5.935   5.598   6.501  0.4803 -0.0059  0.5623
  136OSM    HNF14754   5.959   5.507   6.535  5.5973  0.5036 -0.7799
  136OSM    C2S14755   5.919   5.605   6.354 -0.0515  0.1550 -0.1636
  136OSM    H2S14756   5.830   5.670   6.337 -0.0858  0.4075  0.8830
  136OSM    C3S14757   5.888   5.472   6.287  0.4776  0.0686  0.3120
  136OSM    H3S14758   5.978   5.409   6.302 -0.0467 -0.4265  1.5947
  136OSM     O314759   5.863   5.481   6.147 -0.5159  0.3148  0.0440
  136OSM    HO314760   5.895   5.570   6.132  1.2251 -0.1788  0.6245
  136OSM    C4S14761   5.777   5.407   6.366 -0.1779  0.8837  0.4255
  136OSM    H4S14762   5.813   5.322   6.424  1.3969 -0.9151 -2.8959
  136OSM    C5S14763   5.644   5.437   6.365 -0.0228 -0.4817  0.2565
  136OSM    H5S14764   5.612   5.512   6.291 -0.3688 -1.4356 -0.5798
  136OSM    C6S14765   5.529   5.372   6.441  0.6912  0.4267  0.4829
  136OSM    H6S14766   5.504   5.274   6.396  0.7200  0.6123  0.0651
  136OSM    H6T14767   5.433   5.427   6.443  0.0737 -0.3884 -2.3191
  136OSM    C7S14768   5.579   5.340   6.582  0.2452  0.4510  0.7257
  136OSM    H7S14769   5.652   5.257   6.574 -0.3084 -0.0131  0.3520
  136OSM    H7T14770   5.496   5.278   6.623  1.3722 -0.8132  1.1579
  136OSM    C8S14771   5.616   5.458   6.671 -0.4118  0.1490 -0.4524
  136OSM    H8S14772   5.521   5.506   6.702 -0.6525 -0.1870 -0.6653
  136OSM    H8T14773   5.660   5.534   6.603 -1.6050 -0.7421 -2.2854
  136OSM    C9S14774   5.711   5.409   6.786 -0.7989  0.1322 -0.0324
  136OSM    H9S14775   5.738   5.493   6.854 -0.3876  0.1416 -0.2008
  136OSM    H9T14776   5.811   5.382   6.745  0.1047  0.6858  1.7194
  136OSM   C10S14777   5.660   5.291   6.875  0.3128  0.3893 -0.0552
  136OSM   H10S14778   5.637   5.189   6.838 -0.1995  0.4201  0.1738
  136OSM   H10T14779   5.562   5.324   6.914  0.6376  1.4387 -0.1025
  136OSM   C11S14780   5.759   5.267   6.995  0.0111  0.2688 -0.6090
  136OSM   H11S14781   5.825   5.355   7.010  0.7988 -0.1652 -1.3967
  136OSM   H11T14782   5.812   5.178   6.955 -0.0270  0.5015 -1.1932
  136OSM   C12S14783   5.691   5.233   7.128 -0.0677 -0.0552 -0.3356
  136OSM   H12S14784   5.637   5.136   7.122 -2.0689  0.9846  0.0830
  136OSM   H12T14785   5.623   5.313   7.162  2.7332  1.9316  0.9659
  136OSM   C13S14786   5.797   5.219   7.236 -0.5502 -0.3313 -0.4314
  136OSM   H13S14787   5.881   5.290   7.216 -0.3749  0.3302  2.2367
  136OSM   H13T14788   5.839   5.117   7.223  1.1273  0.3773 -0.9348
  136OSM   C14S14789   5.744   5.229   7.380 -0.2115 -0.0629  0.4504
  136OSM   H14S14790   5.685   5.323   7.387  1.2656  1.2620 -2.9770
  136OSM   H14T14791   5.830   5.229   7.450 -0.4830 -1.2607  0.8041
  136OSM   C15S14792   5.664   5.109   7.423  0.5059 -0.3608 -0.6854
  136OSM   H15S14793   5.736   5.024   7.428 -0.3410 -1.1467 -1.4985
  136OSM   H15T14794   5.584   5.078   7.352 -0.0375  0.6286 -0.5216
  136OSM   C16S14795   5.598   5.125   7.558  0.0907 -0.1381  0.4399
  136OSM   H16S14796   5.547   5.032   7.591  0.9468 -0.7796 -0.0118
  136OSM   H16T14797   5.511   5.194   7.551 -0.9301 -1.4206 -0.0317
  136OSM   C17S14798   5.696   5.169   7.665  0.1067  0.0207  0.1581
  136OSM   H17S14799   5.742   5.270   7.652  2.0268 -0.8679 -0.3014
  136OSM   H17T14800   5.771   5.088   7.659 -0.4560 -0.3820 -2.7705
  136OSM   C18S14801   5.620   5.179   7.796 -0.5335  0.1267 -0.3962
  136OSM   H18S14802   5.683   5.211   7.881 -2.8098  0.3383  1.3183
  136OSM   H18T14803   5.594   5.078   7.834  0.0058  0.1619  0.0710
  136OSM   H18U14804   5.529   5.243   7.794 -1.2692 -0.8922 -0.9810
  136OSM    C1F14805   5.944   5.699   6.581  0.0264 -0.0403  0.3452
  136OSM     OF14806   5.924   5.813   6.543  0.3822  0.5567  0.4614
  136OSM    C2F14807   5.971   5.665   6.726 -0.1630 -0.9565 -0.7353
  136OSM    H2F14808   6.024   5.567   6.726  1.2599 -0.2210 -1.6909
  136OSM    H2G14809   5.873   5.655   6.777 -0.2782  1.0585 -0.4795
  136OSM    C3F14810   6.053   5.784   6.783  0.6473 -0.9302  0.5118
  136OSM    H3F14811   5.992   5.877   6.780 -2.4197 -2.8141  0.0419
  136OSM    H3G14812   6.141   5.808   6.719 -1.0788  2.0883 -0.9120
  136OSM    C4F14813   6.082   5.758   6.928 -0.3425  0.3980 -0.5570
  136OSM    H4F14814   6.109   5.653   6.955 -0.9094 -0.2020 -2.2091
  136OSM    H4G14815   5.987   5.775   6.982 -0.2852 -0.5121 -0.1399
  136OSM    C5F14816   6.173   5.862   6.999  0.0638 -0.1941  0.0175
  136OSM    H5F14817   6.137   5.965   6.979 -0.4000 -0.4734 -0.5893
  136OSM    H5G14818   6.273   5.851   6.951 -0.5922 -2.8139 -0.9349
  136OSM    C6F14819   6.185   5.859   7.152 -0.0472  0.0987 -0.3572
  136OSM    H6F14820   6.208   5.755   7.186 -1.4054 -0.2100 -0.3297
  136OSM    H6G14821   6.085   5.886   7.194 -1.4120 -0.0415 -3.2771
  136OSM    C7F14822   6.280   5.957   7.225  0.2605  0.5736 -0.3461
  136OSM    H7F14823   6.259   6.058   7.185 -0.4737 -0.0888 -1.7345
  136OSM    H7G14824   6.386   5.937   7.200 -0.0324 -0.9970 -0.4492
  136OSM    C8F14825   6.270   5.964   7.380  0.1802 -0.0996  0.5122
  136OSM    H8F14826   6.294   5.867   7.427  2.9881  0.2792  0.0119
  136OSM    H8G14827   6.163   5.985   7.404 -0.0507  0.3744 -0.8488
  136OSM    C9F14828   6.347   6.073   7.451 -0.4625 -0.7242 -0.2220
  136OSM    H9F14829   6.453   6.072   7.422 -0.9091  1.8029 -2.2479
  136OSM   C10F14830   6.306   6.165   7.539  0.2174  0.1075  0.3184
  136OSM   H10F14831   6.370   6.253   7.557 -1.0215  1.4539 -1.5056
  136OSM   C11F14832   6.158   6.195   7.576  0.4849 -0.1822  0.1533
  136OSM   H11F14833   6.088   6.138   7.513  0.2452  0.3499 -0.0699
  136OSM   H11G14834   6.133   6.299   7.546 -1.2029 -1.1226 -1.8975
  136OSM   C12F14835   6.113   6.175   7.727 -0.3793  0.2643  0.0499
  136OSM   H12F14836   6.151   6.080   7.771  0.6185  1.9709  3.2555
  136OSM   H12G14837   6.003   6.182   7.715 -0.1760  0.0302 -2.3935
  136OSM   C13F14838   6.162   6.274   7.833 -0.0173 -0.1901  0.6714
  136OSM   H13F14839   6.108   6.369   7.820  2.2527  1.1521  0.4843
  136OSM   H13G14840   6.272   6.289   7.822 -0.2533  1.2824  0.1341
  136OSM   C14F14841   6.148   6.215   7.978  0.0217  0.9797 -0.1156
  136OSM   H14F14842   6.231   6.145   8.001  0.9750  2.7633  2.3289
  136OSM   H14G14843   6.053   6.156   7.977 -0.0395  1.0799 -0.4783
  136OSM   C15F14844   6.140   6.335   8.071 -0.3111 -0.1219 -0.1539
  136OSM   H15F14845   6.047   6.390   8.046 -1.3553 -1.3042  0.9575
  136OSM   H15G14846   6.229   6.400   8.055 -0.2577  0.1997  1.3259
  136OSM   C16F14847   6.130   6.297   8.219  1.0917  0.0208 -0.0171
  136OSM   H16F14848   6.039   6.234   8.219 -0.3431  1.9758 -1.6046
  136OSM   H16G14849   6.114   6.388   8.280  1.0517 -0.3093  0.4713
  136OSM   C17F14850   6.262   6.227   8.267 -0.6475 -0.1622  0.4557
  136OSM   H17F14851   6.342   6.304   8.263  1.0637 -1.8583  0.7886
  136OSM   H17G14852   6.279   6.144   8.195 -0.5347 -1.2125  1.6651
  136OSM   C18F14853   6.262   6.182   8.411 -0.0247  0.4623  0.0281
  136OSM   H18F14854   6.337   6.102   8.430  0.7515  1.0613 -0.3983
  136OSM   H18G14855   6.163   6.148   8.448  0.4597  0.6976  1.6271
  136OSM   H18H14856   6.295   6.262   8.482 -3.1350  1.5426  0.4046
  137OSM      N14857   1.816   2.390   6.235 -0.0850  0.0063  0.7316
  137OSM    C1514858   1.865   2.491   6.134  0.4584  0.2754 -0.3555
  137OSM   H15A14859   1.848   2.447   6.037  0.5363 -2.9150  0.9483
  137OSM   H15B14860   1.972   2.500   6.143  0.3419  1.0152  0.4414
  137OSM   H15C14861   1.816   2.584   6.159 -1.1920 -1.1085  1.9855
  137OSM    C1414862   1.671   2.374   6.214  0.2601 -0.5400 -0.2677
  137OSM   H14A14863   1.633   2.314   6.295  0.8846 -0.2714  0.2331
  137OSM   H14B14864   1.646   2.340   6.114  1.1627 -0.0665 -0.6680
  137OSM   H14C14865   1.616   2.467   6.216 -2.3508 -1.9784 -0.4288
  137OSM    C1314866   1.882   2.260   6.209  0.0364  0.0673  0.3873
  137OSM   H13A14867   1.834   2.176   6.256 -1.4523 -0.0344 -1.1897
  137OSM   H13B14868   1.986   2.266   6.237  0.4915  2.8803 -1.4746
  137OSM   H13C14869   1.873   2.226   6.106 -0.9939  0.3720  0.3606
  137OSM    C1214870   1.843   2.428   6.377 -0.1304  0.0332  0.8482
  137OSM   H12A14871   1.951   2.432   6.386 -0.0601 -1.3085  0.8519
  137OSM   H12B14872   1.805   2.348   6.439 -0.6897  0.2013  0.7282
  137OSM    C1114873   1.779   2.557   6.432  0.3970 -0.1257  1.1314
  137OSM   H11A14874   1.841   2.645   6.408  0.8561 -0.2035  1.9921
  137OSM   H11B14875   1.807   2.558   6.540  2.1792 -0.9602  0.7179
  137OSM      P14876   1.582   2.710   6.348  0.1686 -0.2066  0.0332
  137OSM    O1314877   1.672   2.753   6.235  0.3297  0.4715  0.3115
  137OSM    O1414878   1.439   2.684   6.336  0.4284 -0.4815  0.3832
  137OSM    O1114879   1.608   2.823   6.458 -0.2739  0.7627 -0.2297
  137OSM    O1214880   1.639   2.583   6.414 -0.3402  0.7763  0.2040
  137OSM    C1S14881   1.536   2.819   6.577  0.3366 -0.0379 -0.1425
  137OSM    H1S14882   1.490   2.718   6.591  2.4843 -1.0096  0.2119
  137OSM    H1T14883   1.459   2.895   6.553  1.0096  0.1691 -1.7982
  137OSM     NF14884   1.543   2.837   6.822  0.0792  0.0870 -0.2877
  137OSM    HNF14885   1.502   2.923   6.852 -2.2956 -1.1158  0.1840
  137OSM    C2S14886   1.623   2.847   6.702  0.0673  0.6300 -0.3696
  137OSM    H2S14887   1.707   2.773   6.704  1.4664  2.1465 -0.7699
  137OSM    C3S14888   1.696   2.982   6.678 -0.1130  0.3964 -0.3654
  137OSM    H3S14889   1.623   3.061   6.647  1.4462  2.2546  0.4695
  137OSM     O314890   1.790   2.974   6.573 -0.0430 -0.4570  0.5047
  137OSM    HO314891   1.763   2.902   6.516 -0.5963  0.5174 -0.4873
  137OSM    C4S14892   1.780   3.038   6.793  0.5448 -0.1758 -0.2950
  137OSM    H4S14893   1.880   2.993   6.800 -0.5985 -2.6853  2.3436
  137OSM    C5S14894   1.756   3.138   6.879 -0.0347 -0.2469  0.1019
  137OSM    H5S14895   1.676   3.211   6.861  0.9951  0.7164 -0.7411
  137OSM    C6S14896   1.839   3.196   6.983 -0.9471 -0.2084 -0.1365
  137OSM    H6S14897   1.800   3.299   6.996 -0.4157 -0.0179 -0.0494
  137OSM    H6T14898   1.941   3.199   6.939 -0.1811 -2.3232  1.3617
  137OSM    C7S14899   1.834   3.113   7.115 -0.2611 -0.2839 -0.3567
  137OSM    H7S14900   1.902   3.027   7.103  0.7468  0.4616 -0.1820
  137OSM    H7T14901   1.732   3.071   7.125 -0.6303  0.9255  1.6520
  137OSM    C8S14902   1.872   3.205   7.239  0.4794  0.0265  0.1038
  137OSM    H8S14903   1.795   3.286   7.247 -0.3513 -0.4557 -2.2464
  137OSM    H8T14904   1.966   3.257   7.209  0.5148  0.5444  1.0621
  137OSM    C9S14905   1.874   3.135   7.377  0.1614  0.3098 -0.0212
  137OSM    H9S14906   1.922   3.035   7.379 -1.7560 -0.6590  0.0392
  137OSM    H9T14907   1.770   3.118   7.413  0.5080  1.4193  1.6303
  137OSM   C10S14908   1.950   3.208   7.491 -0.1025  0.0062  0.5427
  137OSM   H10S14909   1.890   3.299   7.513  0.6344  1.0341 -1.5018
  137OSM   H10T14910   2.048   3.243   7.455 -0.2416  1.5651  1.6010
  137OSM   C11S14911   1.980   3.121   7.612  0.1935 -0.7260  0.0404
  137OSM   H11S14912   2.061   3.047   7.596 -0.2893 -0.9022 -1.8119
  137OSM   H11T14913   1.886   3.070   7.643 -0.1010  1.5559  3.4468
  137OSM   C12S14914   2.029   3.205   7.734 -0.0268  0.1868 -0.9361
  137OSM   H12S14915   1.969   3.296   7.756  0.9657  0.1699  2.2087
  137OSM   H12T14916   2.133   3.234   7.708  0.2236  0.6839  0.5522
  137OSM   C13S14917   2.050   3.123   7.859  0.5095  0.5005  0.1492
  137OSM   H13S14918   2.097   3.030   7.821  0.5418  1.0492 -1.2429
  137OSM   H13T14919   1.954   3.094   7.906  0.5267  0.1794 -0.0078
  137OSM   C14S14920   2.130   3.214   7.962  0.1564 -0.2813 -0.1751
  137OSM   H14S14921   2.082   3.313   7.944 -0.0871 -0.6117 -1.4785
  137OSM   H14T14922   2.237   3.208   7.934  0.2673 -0.8173  0.3581
  137OSM   C15S14923   2.122   3.171   8.113 -0.8008  0.6063  0.6094
  137OSM   H15S14924   2.183   3.078   8.116 -1.8048 -0.0394  2.2914
  137OSM   H15T14925   2.017   3.142   8.136 -0.7678  0.9418  1.1828
  137OSM   C16S14926   2.175   3.279   8.202 -0.3080 -0.1129 -0.4970
  137OSM   H16S14927   2.142   3.381   8.170  2.2733  1.3342  1.0802
  137OSM   H16T14928   2.285   3.290   8.197 -0.0498 -0.8635  2.1700
  137OSM   C17S14929   2.137   3.269   8.350 -0.1599 -0.6785 -0.0890
  137OSM   H17S14930   2.167   3.171   8.393  0.8925  0.8257  2.8581
  137OSM   H17T14931   2.026   3.263   8.349 -0.1021 -2.5494 -1.5516
  137OSM   C18S14932   2.188   3.376   8.448  0.4384  0.1958 -0.8684
  137OSM   H18S14933   2.188   3.478   8.404  1.7794  0.4082 -0.3993
  137OSM   H18T14934   2.298   3.365   8.452  0.3506 -0.4430  2.0565
  137OSM   H18U14935   2.144   3.373   8.550  1.5428  0.0043 -0.3923
  137OSM    C1F14936   1.502   2.709   6.853  0.4829 -0.5455 -0.2618
  137OSM     OF14937   1.537   2.610   6.793 -0.3829  0.2068 -0.2864
  137OSM    C2F14938   1.400   2.699   6.970 -0.1096  0.3777 -0.7245
  137OSM    H2F14939   1.318   2.633   6.935  0.5416 -2.2813  2.2693
  137OSM    H2G14940   1.347   2.795   6.987  0.5379  0.6213 -0.0288
  137OSM    C3F14941   1.472   2.646   7.100  0.1358  0.0463  0.5821
  137OSM    H3F14942   1.539   2.559   7.083  0.4096  0.8434 -3.0936
  137OSM    H3G14943   1.391   2.604   7.164 -0.7375 -1.6612 -1.5444
  137OSM    C4F14944   1.549   2.746   7.180 -0.6955 -0.3246  0.0510
  137OSM    H4F14945   1.490   2.840   7.180 -0.5578 -0.1791  2.3462
  137OSM    H4G14946   1.651   2.758   7.137  0.4780  1.3660  2.9903
  137OSM    C5F14947   1.567   2.690   7.322  0.5716 -0.0604  0.1850
  137OSM    H5F14948   1.619   2.592   7.320  0.6128 -0.0504  0.6280
  137OSM    H5G14949   1.464   2.680   7.365  0.6543 -0.9557  0.1905
  137OSM    C6F14950   1.649   2.805   7.393 -0.3792  0.3034 -0.4170
  137OSM    H6F14951   1.600   2.904   7.398  0.1514  0.5333  0.1912
  137OSM    H6G14952   1.752   2.825   7.358  0.4419  0.0865  1.7560
  137OSM    C7F14953   1.671   2.747   7.534 -0.3723 -0.1822 -0.0570
  137OSM    H7F14954   1.727   2.655   7.506 -1.6394 -0.4398 -1.8740
  137OSM    H7G14955   1.572   2.706   7.564 -0.5459  0.0277 -0.3415
  137OSM    C8F14956   1.740   2.834   7.641  0.5510 -0.6567 -0.6359
  137OSM    H8F14957   1.674   2.922   7.658  2.6767  0.8287  0.2491
  137OSM    H8G14958   1.833   2.874   7.596  0.3009  2.3805  1.2706
  137OSM    C9F14959   1.767   2.738   7.757 -0.1469 -0.1984 -0.8919
  137OSM    H9F14960   1.791   2.636   7.725  0.8387  0.3431 -1.9978
  137OSM   C10F14961   1.741   2.758   7.885  0.1495 -0.5492 -0.0572
  137OSM   H10F14962   1.762   2.670   7.947  2.5331  0.9584  1.4670
  137OSM   C11F14963   1.692   2.875   7.965  0.2258 -0.6271 -0.2835
  137OSM   H11F14964   1.632   2.946   7.904  1.7768  1.2198  0.2526
  137OSM   H11G14965   1.771   2.937   8.013  0.0706 -1.0549  0.5391
  137OSM   C12F14966   1.607   2.840   8.088  0.4749 -0.2526 -0.6302
  137OSM   H12F14967   1.569   2.938   8.126  0.1091  0.7268 -3.3315
  137OSM   H12G14968   1.661   2.795   8.174  0.3291 -0.2196 -0.5208
  137OSM   C13F14969   1.486   2.746   8.055  0.1835  0.6500  0.5885
  137OSM   H13F14970   1.509   2.662   7.986 -2.2394 -1.6413  2.3940
  137OSM   H13G14971   1.403   2.803   8.008  0.3675 -0.7234 -1.5725
  137OSM   C14F14972   1.428   2.681   8.181  0.0382 -0.1400 -0.1029
  137OSM   H14F14973   1.411   2.754   8.263 -0.2825 -2.6501  2.1977
  137OSM   H14G14974   1.514   2.614   8.204  2.2597  1.8714 -2.0806
  137OSM   C15F14975   1.292   2.611   8.167 -0.2719 -0.6150  0.0171
  137OSM   H15F14976   1.301   2.544   8.079  0.7432  1.0717 -1.2371
  137OSM   H15G14977   1.208   2.683   8.154 -0.2144 -0.5939 -0.2484
  137OSM   C16F14978   1.261   2.530   8.296  0.3268  0.5075  0.1292
  137OSM   H16F14979   1.349   2.462   8.303  0.2671  0.4907  0.7370
  137OSM   H16G14980   1.184   2.451   8.286  1.1248 -0.2442 -0.1758
  137OSM   C17F14981   1.226   2.614   8.421  0.1986  0.1278 -0.4019
  137OSM   H17F14982   1.138   2.672   8.384 -0.5974 -2.0857 -2.1842
  137OSM   H17G14983   1.307   2.686   8.445  0.0022  0.9652 -2.1056
  137OSM   C18F14984   1.185   2.540   8.546  0.8719  0.7575 -0.3552
  137OSM   H18F14985   1.110   2.464   8.516 -0.0375  1.2793  0.5394
  137OSM   H18G14986   1.148   2.612   8.622  1.1898  1.0826 -0.5084
  137OSM   H18H14987   1.274   2.490   8.591 -0.5527 -1.2058  0.4646
  138OSM      N14988   3.292   4.518   5.835  0.0051 -0.0598 -0.4019
  138OSM    C1514989   3.206   4.397   5.826 -0.7351  0.0197  0.5230
  138OSM   H15A14990   3.224   4.346   5.733 -0.6481 -1.1717  1.1610
  138OSM   H15B14991   3.100   4.413   5.823 -0.8423 -0.7781 -1.1424
  138OSM   H15C14992   3.221   4.328   5.908  0.3108  0.6960  0.9262
  138OSM    C1414993   3.437   4.487   5.844 -0.1149  0.7266  0.3481
  138OSM   H14A14994   3.445   4.397   5.903 -0.8772 -1.3533 -2.4553
  138OSM   H14B14995   3.498   4.560   5.895 -0.1759  0.7708  0.3578
  138OSM   H14C14996   3.481   4.454   5.751  1.3705 -0.2893  1.3656
  138OSM    C1314997   3.272   4.597   5.712  0.0809 -0.6724 -0.5061
  138OSM   H13A14998   3.174   4.642   5.703  0.4418 -0.2515 -3.2518
  138OSM   H13B14999   3.300   4.543   5.623  0.0625  0.9424 -1.5473
  138OSM   H13C15000   3.333   4.686   5.722 -0.1496 -0.5711  0.0022
  138OSM    C1215001   3.259   4.601   5.958 -0.0155 -0.5609 -0.1301
  138OSM   H12A15002   3.272   4.545   6.050 -3.5309  2.7842  2.7538
  138OSM   H12B15003   3.154   4.625   5.965  0.1511 -0.0657  1.0805
  138OSM    C1115004   3.319   4.747   5.962 -0.1267 -0.1341  0.0946
  138OSM   H11A15005   3.417   4.747   5.911 -1.0112 -0.4138 -1.6911
  138OSM   H11B15006   3.348   4.784   6.062  1.8405 -0.3260 -0.3671
  138OSM      P15007   3.116   4.893   5.988 -0.0420  0.1189 -0.0915
  138OSM    O1315008   3.175   4.998   6.080 -0.1225  0.1578  0.6105
  138OSM    O1415009   3.015   4.949   5.892  0.0295  0.2412 -0.1790
  138OSM    O1115010   3.055   4.769   6.069 -0.2248 -0.1579 -0.4862
  138OSM    O1215011   3.234   4.843   5.896 -0.1462  0.1978  0.1270
  138OSM    C1S15012   3.081   4.744   6.206  0.4559  0.0053 -0.0928
  138OSM    H1S15013   3.182   4.774   6.241 -0.4903  2.7772  0.5031
  138OSM    H1T15014   3.065   4.635   6.212 -1.7613  0.2058 -1.2413
  138OSM     NF15015   3.013   4.801   6.447  1.1027 -0.6920  0.5121
  138OSM    HNF15016   2.967   4.723   6.487 -0.5325  1.1227  2.4356
  138OSM    C2S15017   2.977   4.811   6.307 -1.1246  0.0810  0.3318
  138OSM    H2S15018   2.970   4.920   6.286  1.5741  0.0239 -1.3591
  138OSM    C3S15019   2.843   4.746   6.271 -0.5094  0.0642 -0.3988
  138OSM    H3S15020   2.862   4.637   6.281  0.8408  0.4131  1.3756
  138OSM     O315021   2.800   4.779   6.141 -0.2383 -0.2463 -0.1961
  138OSM    HO315022   2.877   4.794   6.087 -2.0720 -1.2110 -3.3554
  138OSM    C4S15023   2.730   4.797   6.358 -0.4045  0.3801  1.3010
  138OSM    H4S15024   2.718   4.906   6.352  5.3348  1.3161  0.6764
  138OSM    C5S15025   2.660   4.714   6.430  0.0872 -0.1113 -0.2579
  138OSM    H5S15026   2.689   4.608   6.428  1.4963  0.2475  0.3496
  138OSM    C6S15027   2.548   4.764   6.518 -0.0481 -0.0806  0.8187
  138OSM    H6S15028   2.453   4.750   6.463 -0.7745  1.0480  1.7505
  138OSM    H6T15029   2.544   4.874   6.536 -1.3798  0.2212 -1.1013
  138OSM    C7S15030   2.562   4.702   6.656 -0.3523  0.7000 -0.0996
  138OSM    H7S15031   2.530   4.595   6.649 -0.4979  0.5675  1.9209
  138OSM    H7T15032   2.489   4.753   6.724  0.0243 -0.8950  1.6103
  138OSM    C8S15033   2.704   4.710   6.719 -0.2226 -0.4585  0.4948
  138OSM    H8S15034   2.747   4.812   6.722 -1.2190 -0.0220  0.3808
  138OSM    H8T15035   2.777   4.651   6.660 -0.7874  0.2397 -0.9526
  138OSM    C9S15036   2.712   4.661   6.864 -0.4942 -0.8987  0.3126
  138OSM    H9S15037   2.712   4.551   6.881  0.3642 -0.6981  1.8399
  138OSM    H9T15038   2.626   4.701   6.922  0.1881 -0.5639  1.1115
  138OSM   C10S15039   2.836   4.713   6.939  0.1548  0.4697  0.4923
  138OSM   H10S15040   2.834   4.821   6.963 -1.2300  0.4652  0.4794
  138OSM   H10T15041   2.926   4.716   6.875  0.3559  1.9943  0.8154
  138OSM   C11S15042   2.871   4.639   7.065 -0.4679 -0.3711 -0.7017
  138OSM   H11S15043   2.907   4.537   7.041  0.2317 -0.3575  0.2278
  138OSM   H11T15044   2.785   4.629   7.134  0.1517  0.6231  0.2491
  138OSM   C12S15045   2.996   4.700   7.151  1.0027  0.6487 -0.2349
  138OSM   H12S15046   2.978   4.808   7.164 -0.9986  0.8459 -3.4892
  138OSM   H12T15047   3.078   4.685   7.078  2.0046  3.7898  0.1236
  138OSM   C13S15048   3.017   4.635   7.292 -0.1123 -0.0950  0.0633
  138OSM   H13S15049   3.121   4.657   7.326  0.4125 -0.5853 -1.1539
  138OSM   H13T15050   3.010   4.524   7.291  0.8816 -0.2495  2.4918
  138OSM   C14S15051   2.921   4.691   7.394 -0.7292 -0.2545 -0.0241
  138OSM   H14S15052   2.816   4.676   7.360 -1.3465 -1.4812  2.1943
  138OSM   H14T15053   2.935   4.801   7.392  0.2505 -0.3320  1.1240
  138OSM   C15S15054   2.941   4.615   7.522  0.7347 -0.0353 -0.8007
  138OSM   H15S15055   3.023   4.660   7.581 -0.4268 -0.8309  1.5242
  138OSM   H15T15056   2.948   4.505   7.508 -1.8815 -0.7833  2.4291
  138OSM   C16S15057   2.819   4.634   7.617 -0.2728  0.0893 -0.1557
  138OSM   H16S15058   2.839   4.565   7.702 -0.6390 -1.2449 -1.1261
  138OSM   H16T15059   2.728   4.599   7.564 -0.0217  0.9514 -1.1828
  138OSM   C17S15060   2.789   4.773   7.670 -0.0678  0.4834  0.2876
  138OSM   H17S15061   2.681   4.778   7.695 -1.0658  0.0495 -3.3819
  138OSM   H17T15062   2.800   4.848   7.588  0.5889  1.0801  0.9034
  138OSM   C18S15063   2.890   4.811   7.781 -0.8518  0.3580 -0.7587
  138OSM   H18S15064   2.993   4.811   7.739 -0.8456  2.0072 -0.8120
  138OSM   H18T15065   2.874   4.730   7.856 -1.2836 -0.2214 -1.4590
  138OSM   H18U15066   2.874   4.917   7.809  0.1436  0.6935 -1.4025
  138OSM    C1F15067   3.109   4.874   6.499  0.3449 -0.0082 -0.3162
  138OSM     OF15068   3.179   4.956   6.436  0.2000  0.2391  0.1551
  138OSM    C2F15069   3.137   4.843   6.640 -0.3963 -0.3686 -0.3469
  138OSM    H2F15070   3.217   4.767   6.637  1.0602  0.9458  2.0488
  138OSM    H2G15071   3.044   4.795   6.678 -1.1386 -0.0226 -1.6516
  138OSM    C3F15072   3.190   4.960   6.728 -0.2093  0.3018  0.1629
  138OSM    H3F15073   3.129   5.050   6.706  0.5327  0.8052  0.1421
  138OSM    H3G15074   3.296   4.985   6.708 -0.4557  1.2384 -0.0320
  138OSM    C4F15075   3.174   4.924   6.872  0.6994 -0.3143 -0.5432
  138OSM    H4F15076   3.204   4.818   6.866 -2.2585 -1.1842 -5.2820
  138OSM    H4G15077   3.068   4.921   6.906  0.7132  0.9948 -0.3275
  138OSM    C5F15078   3.252   5.014   6.969  0.3177  0.3643 -0.1028
  138OSM    H5F15079   3.202   5.110   6.992 -1.4965 -0.7474  0.8980
  138OSM    H5G15080   3.356   5.027   6.934  0.3896 -3.1153 -1.6032
  138OSM    C6F15081   3.249   4.948   7.102 -0.3536  0.0976 -1.4387
  138OSM    H6F15082   3.318   4.861   7.104  0.9909  1.1039  1.0060
  138OSM    H6G15083   3.153   4.904   7.139  0.5973 -0.2864  0.7496
  138OSM    C7F15084   3.300   5.032   7.219  0.0630 -0.3524  0.3824
  138OSM    H7F15085   3.223   5.105   7.251  0.8049  0.9163 -0.6172
  138OSM    H7G15086   3.388   5.087   7.179 -0.6563  0.8867  0.4672
  138OSM    C8F15087   3.342   4.949   7.346  0.1362  0.2589  0.0520
  138OSM    H8F15088   3.421   5.008   7.397  1.0051 -1.0973  0.3084
  138OSM    H8G15089   3.384   4.854   7.307  0.6441  0.7152 -0.5492
  138OSM    C9F15090   3.225   4.918   7.435  0.6541 -0.3101 -1.2570
  138OSM    H9F15091   3.122   4.916   7.397 -0.0014 -1.6723  0.4336
  138OSM   C10F15092   3.226   4.906   7.571 -0.3594  0.6676  0.1332
  138OSM   H10F15093   3.136   4.873   7.625 -1.1484  3.0194  0.3911
  138OSM   C11F15094   3.344   4.911   7.663 -0.0311  0.8154 -0.0693
  138OSM   H11F15095   3.314   4.923   7.769  1.9791  1.1277  0.5119
  138OSM   H11G15096   3.413   4.993   7.634  1.2116 -0.0445  0.3705
  138OSM   C12F15097   3.428   4.784   7.658 -0.6661  0.2596 -0.3628
  138OSM   H12F15098   3.476   4.774   7.558  2.3737  0.2086  0.9936
  138OSM   H12G15099   3.363   4.699   7.687  1.9701 -1.8099 -0.1725
  138OSM   C13F15100   3.552   4.783   7.755 -0.2652 -0.5040  0.1314
  138OSM   H13F15101   3.614   4.873   7.731  2.0860 -1.8994  0.6911
  138OSM   H13G15102   3.622   4.701   7.731  3.0421  0.7015  4.4076
  138OSM   C14F15103   3.520   4.790   7.903 -0.5069  0.3389 -0.2928
  138OSM   H14F15104   3.455   4.876   7.931 -0.1786  0.4378  0.1756
  138OSM   H14G15105   3.615   4.804   7.958 -0.5200  3.4566 -0.8588
  138OSM   C15F15106   3.454   4.660   7.958 -0.3955  0.6345 -0.0720
  138OSM   H15F15107   3.525   4.578   7.936  0.5956  1.8335 -1.5254
  138OSM   H15G15108   3.355   4.649   7.908 -1.0560  0.4493  1.2329
  138OSM   C16F15109   3.419   4.662   8.112 -0.2055  0.5658  0.6691
  138OSM   H16F15110   3.517   4.681   8.161  0.9778 -1.5076 -0.7239
  138OSM   H16G15111   3.387   4.560   8.142  2.6672 -1.2845 -1.9612
  138OSM   C17F15112   3.327   4.778   8.149 -0.0864  0.1806 -0.2055
  138OSM   H17F15113   3.232   4.779   8.091  0.0256  2.9254 -0.4873
  138OSM   H17G15114   3.371   4.877   8.126 -0.7695  0.7705  0.9321
  138OSM   C18F15115   3.300   4.784   8.305  0.0319  0.0284 -0.0240
  138OSM   H18F15116   3.258   4.689   8.344 -0.3823  0.5248  0.7533
  138OSM   H18G15117   3.224   4.865   8.305  0.6416  0.6637 -1.9454
  138OSM   H18H15118   3.390   4.819   8.360 -0.1469  3.4763 -1.6020
  139OSM      N15119   6.288   5.101   5.768 -0.1648 -0.4796  0.4226
  139OSM    C1515120   6.175   5.059   5.676 -0.7631  0.0658 -0.6988
  139OSM   H15A15121   6.102   5.007   5.738 -0.9394  0.5556 -0.4879
  139OSM   H15B15122   6.207   4.997   5.594 -0.0185 -1.6491  0.8344
  139OSM   H15C15123   6.119   5.142   5.636  0.4919  1.8779  1.0951
  139OSM    C1415124   6.357   4.981   5.815  0.2020  0.9977  0.2360
  139OSM   H14A15125   6.421   5.008   5.898 -2.7914  0.7083  2.8153
  139OSM   H14B15126   6.405   4.925   5.736 -2.1248 -1.7045  0.5695
  139OSM   H14C15127   6.287   4.911   5.859  1.1269  0.5562  1.0422
  139OSM    C1315128   6.392   5.180   5.694 -0.3001 -0.1926  0.2439
  139OSM   H13A15129   6.456   5.117   5.635 -1.5584 -0.3187 -1.0321
  139OSM   H13B15130   6.467   5.210   5.766  2.0248 -0.7276 -1.7985
  139OSM   H13C15131   6.353   5.260   5.633 -0.5911  0.7981  1.6843
  139OSM    C1215132   6.239   5.180   5.885  0.0576  0.1013 -0.5015
  139OSM   H12A15133   6.146   5.137   5.919  0.2496 -0.2934 -0.4625
  139OSM   H12B15134   6.200   5.275   5.851 -1.6144  0.0508  1.1262
  139OSM    C1115135   6.325   5.211   6.008 -0.7204 -0.2729 -0.6703
  139OSM   H11A15136   6.358   5.121   6.063  1.1450  2.1049  2.4564
  139OSM   H11B15137   6.270   5.270   6.085  2.2749 -0.0749  1.4687
  139OSM      P15138   6.570   5.276   6.010 -0.2806 -0.4785  0.4070
  139OSM    O1315139   6.608   5.145   5.953  0.0375 -0.0333  0.1418
  139OSM    O1415140   6.647   5.392   5.963  0.2378 -0.1874  0.0206
  139OSM    O1115141   6.583   5.279   6.171 -0.1147  0.3725 -0.9477
  139OSM    O1215142   6.423   5.310   5.971 -0.3547 -0.3362 -0.1992
  139OSM    C1S15143   6.547   5.384   6.257 -0.0877  0.0466  0.1808
  139OSM    H1S15144   6.441   5.407   6.230 -0.0829 -1.5929 -1.4529
  139OSM    H1T15145   6.595   5.479   6.227  0.5252 -0.4320 -0.3831
  139OSM     NF15146   6.507   5.482   6.469  0.0099  0.3565  0.1611
  139OSM    HNF15147   6.572   5.558   6.467  1.0021 -0.4343 -3.0564
  139OSM    C2S15148   6.568   5.360   6.408  0.2708 -0.6806  0.3606
  139OSM    H2S15149   6.504   5.285   6.459 -2.5239  3.2546  3.3021
  139OSM    C3S15150   6.726   5.336   6.436 -0.2136  0.9259 -0.0986
  139OSM    H3S15151   6.794   5.411   6.391 -0.1553 -0.2722 -2.1437
  139OSM     O315152   6.774   5.216   6.372  0.3563 -0.5588 -0.1250
  139OSM    HO315153   6.711   5.214   6.300 -1.2246  1.7364  1.0867
  139OSM    C4S15154   6.752   5.335   6.584 -0.0752  0.1238  0.3472
  139OSM    H4S15155   6.828   5.412   6.604  1.2696 -1.3003  0.9016
  139OSM    C5S15156   6.682   5.273   6.680 -0.7696 -0.2181  0.6095
  139OSM    H5S15157   6.597   5.209   6.654 -0.5295 -0.0673 -0.5901
  139OSM    C6S15158   6.694   5.282   6.831  0.4455 -0.4399  0.6741
  139OSM    H6S15159   6.588   5.297   6.863 -0.3312 -0.4060 -1.7352
  139OSM    H6T15160   6.765   5.359   6.866  0.9848 -1.2486  1.3882
  139OSM    C7S15161   6.741   5.147   6.903 -0.3410 -0.4743 -0.3376
  139OSM    H7S15162   6.840   5.115   6.865 -0.1760  0.1779 -0.4652
  139OSM    H7T15163   6.666   5.067   6.884 -0.9957 -0.2751  1.2275
  139OSM    C8S15164   6.765   5.179   7.050 -0.2982  1.0972 -0.0371
  139OSM    H8S15165   6.667   5.209   7.092 -1.2393 -2.1751  0.3737
  139OSM    H8T15166   6.840   5.259   7.071  1.1097  0.4871 -2.3622
  139OSM    C9S15167   6.816   5.049   7.125  0.4466  0.7968  0.5290
  139OSM    H9S15168   6.900   4.999   7.072  0.6267  0.2789  1.2874
  139OSM    H9T15169   6.738   4.973   7.143  1.1293  0.6403  3.3550
  139OSM   C10S15170   6.881   5.074   7.260 -0.9209  0.0198 -0.1183
  139OSM   H10S15171   6.969   5.135   7.229 -0.6973 -0.7381 -0.9991
  139OSM   H10T15172   6.920   4.985   7.315 -2.8694 -0.9366 -0.1940
  139OSM   C11S15173   6.803   5.160   7.359 -0.4259  0.7154  0.2842
  139OSM   H11S15174   6.707   5.106   7.368  0.4010 -0.8525  0.1767
  139OSM   H11T15175   6.796   5.258   7.306  0.6337 -0.0148 -1.3138
  139OSM   C12S15176   6.869   5.185   7.497  0.2862  0.3427  0.3529
  139OSM   H12S15177   6.972   5.221   7.478 -0.1947  0.0036 -3.7465
  139OSM   H12T15178   6.870   5.087   7.549  0.5818  0.8500  1.3244
  139OSM   C13S15179   6.776   5.289   7.566  0.1876  0.3367  0.0079
  139OSM   H13S15180   6.677   5.240   7.572  0.8649 -1.2068 -0.7214
  139OSM   H13T15181   6.754   5.368   7.492 -0.4671 -2.0449 -2.4742
  139OSM   C14S15182   6.853   5.363   7.685  0.3869 -0.2921  0.1714
  139OSM   H14S15183   6.939   5.427   7.658 -1.7170  2.1116 -1.2673
  139OSM   H14T15184   6.885   5.285   7.758 -0.2602 -0.3040  0.4525
  139OSM   C15S15185   6.758   5.458   7.761  0.3433 -0.3887 -0.3675
  139OSM   H15S15186   6.739   5.544   7.692  1.9394 -0.0696 -0.4608
  139OSM   H15T15187   6.814   5.498   7.848 -1.2627  1.0020  0.0796
  139OSM   C16S15188   6.619   5.405   7.814 -0.0511 -0.5582 -0.2791
  139OSM   H16S15189   6.564   5.353   7.732 -2.2258 -0.5557  1.0907
  139OSM   H16T15190   6.562   5.494   7.847 -0.4919 -1.2843  0.9748
  139OSM   C17S15191   6.630   5.299   7.925  0.4099  0.1727  0.0573
  139OSM   H17S15192   6.700   5.227   7.877  0.2288  0.5616 -0.8080
  139OSM   H17T15193   6.532   5.249   7.937  0.0074  0.5074 -1.6652
  139OSM   C18S15194   6.671   5.353   8.056 -0.3985 -0.1552 -0.3159
  139OSM   H18S15195   6.667   5.274   8.134 -2.0092  1.4394  1.3115
  139OSM   H18T15196   6.597   5.427   8.094  0.1385 -1.0197  2.6957
  139OSM   H18U15197   6.775   5.391   8.054 -0.0681 -0.9825  0.6366
  139OSM    C1F15198   6.373   5.507   6.487  0.0649  0.3842 -1.0497
  139OSM     OF15199   6.290   5.422   6.454 -0.3454 -0.0095  0.7142
  139OSM    C2F15200   6.334   5.643   6.553 -0.5805  0.2068  0.2821
  139OSM    H2F15201   6.224   5.649   6.568 -0.4859  0.7560  0.7828
  139OSM    H2G15202   6.370   5.728   6.491 -2.2636  2.0175  1.6429
  139OSM    C3F15203   6.419   5.657   6.682 -0.1792 -0.4883 -0.9450
  139OSM    H3F15204   6.384   5.749   6.734  3.6927  0.2138  0.7608
  139OSM    H3G15205   6.528   5.669   6.668 -0.1120 -0.0525 -0.1423
  139OSM    C4F15206   6.386   5.563   6.800  0.2268  0.0282  0.5815
  139OSM    H4F15207   6.412   5.467   6.750 -1.4232  0.6220 -1.5333
  139OSM    H4G15208   6.277   5.558   6.820 -0.2146  1.7488 -1.1257
  139OSM    C5F15209   6.455   5.593   6.934 -0.3520  0.2255  0.1888
  139OSM    H5F15210   6.444   5.702   6.952 -0.7649 -0.2265  3.0054
  139OSM    H5G15211   6.564   5.574   6.923 -0.2853  1.4773 -2.0612
  139OSM    C6F15212   6.404   5.498   7.043  0.0570 -0.3334  0.2797
  139OSM    H6F15213   6.425   5.393   7.013 -0.0416 -0.0027 -0.9746
  139OSM    H6G15214   6.297   5.498   7.071  0.0779 -0.5952  0.3647
  139OSM    C7F15215   6.479   5.533   7.173 -0.6049  0.5063 -0.2100
  139OSM    H7F15216   6.465   5.641   7.195  4.4278  1.4180 -0.1350
  139OSM    H7G15217   6.589   5.536   7.154 -0.6966  0.6584 -0.7122
  139OSM    C8F15218   6.445   5.446   7.289  0.0621 -0.4411  0.4760
  139OSM    H8F15219   6.474   5.344   7.256 -1.3710 -1.1755  1.3961
  139OSM    H8G15220   6.339   5.426   7.316  0.6572 -1.6408  2.1238
  139OSM    C9F15221   6.508   5.498   7.415 -0.3869 -0.7875  0.2821
  139OSM    H9F15222   6.618   5.496   7.418 -0.3463 -1.7393 -1.0155
  139OSM   C10F15223   6.445   5.558   7.517 -0.3297  0.5885 -0.3886
  139OSM   H10F15224   6.503   5.587   7.606  0.5675  0.0037 -0.7653
  139OSM   C11F15225   6.289   5.566   7.536 -1.0324 -0.0210 -0.0745
  139OSM   H11F15226   6.231   5.546   7.443  1.2805  1.4127 -1.9654
  139OSM   H11G15227   6.263   5.674   7.547  0.4402  0.2184  1.4973
  139OSM   C12F15228   6.225   5.486   7.645  0.0029 -0.1041  0.0134
  139OSM   H12F15229   6.291   5.480   7.734 -2.3573 -2.5557  1.7472
  139OSM   H12G15230   6.225   5.381   7.608  2.8627  0.2302 -1.2264
  139OSM   C13F15231   6.091   5.537   7.701 -0.5159 -0.0860 -0.0308
  139OSM   H13F15232   6.014   5.523   7.622  0.2016  0.8695 -0.9249
  139OSM   H13G15233   6.096   5.644   7.730  0.8421 -0.8791  3.1439
  139OSM   C14F15234   6.050   5.458   7.820  0.1632 -0.1048  0.0611
  139OSM   H14F15235   6.127   5.472   7.899  1.4482  1.4889 -1.3994
  139OSM   H14G15236   6.039   5.350   7.798  2.2447 -0.5182  0.8027
  139OSM   C15F15237   5.918   5.512   7.883  0.7897 -0.6152  0.0723
  139OSM   H15F15238   5.865   5.428   7.932 -1.5920  0.3451 -0.7131
  139OSM   H15G15239   5.847   5.545   7.804 -0.3912  1.9970  2.0769
  139OSM   C16F15240   5.938   5.631   7.982  0.6054  0.3184 -0.2550
  139OSM   H16F15241   5.871   5.713   7.948 -1.4644 -1.2097 -0.0545
  139OSM   H16G15242   6.044   5.665   7.987  1.1558 -1.3572  0.3045
  139OSM   C17F15243   5.877   5.584   8.120 -0.4228  0.1112  0.1476
  139OSM   H17F15244   5.944   5.499   8.147  1.6403  0.8482 -2.1868
  139OSM   H17G15245   5.777   5.538   8.113 -0.0786 -0.7668  0.8632
  139OSM   C18F15246   5.890   5.700   8.218  0.1213 -0.3607 -0.1700
  139OSM   H18F15247   5.880   5.660   8.322  0.5787 -2.1235 -0.7758
  139OSM   H18G15248   5.810   5.776   8.204 -0.2063 -0.7381 -0.3452
  139OSM   H18H15249   5.992   5.743   8.210  0.7957 -1.2488  2.6195
  140OSM      N15250   1.535   0.308   6.121 -0.5547 -0.1643  0.4486
  140OSM    C1515251   1.634   0.300   6.011  0.4051  0.2298 -0.2051
  140OSM   H15A15252   1.727   0.351   6.033  1.1586 -1.6340  1.2534
  140OSM   H15B15253   1.596   0.347   5.922 -0.5657 -0.7759 -0.3472
  140OSM   H15C15254   1.652   0.195   5.995 -0.0326  0.3258 -1.3605
  140OSM    C1415255   1.507   0.453   6.161  0.1499  0.2956  0.3889
  140OSM   H14A15256   1.595   0.497   6.206 -0.0095  1.2983 -0.2643
  140OSM   H14B15257   1.416   0.446   6.219 -1.4658  0.0153 -2.0552
  140OSM   H14C15258   1.484   0.509   6.072  1.4818 -0.8240 -0.7147
  140OSM    C1315259   1.407   0.248   6.072 -0.4280 -0.8070 -0.5429
  140OSM   H13A15260   1.329   0.260   6.146 -0.2097  0.9886 -0.5757
  140OSM   H13B15261   1.419   0.146   6.038  1.6360 -0.2151 -1.7655
  140OSM   H13C15262   1.362   0.301   5.989 -1.4524 -0.4759  0.2015
  140OSM    C1215263   1.596   0.241   6.239  0.3906 -0.1290  0.7258
  140OSM   H12A15264   1.683   0.291   6.278  0.9962 -0.1350 -0.5576
  140OSM   H12B15265   1.622   0.140   6.211 -1.2668 -0.5092  0.4032
  140OSM    C1115266   1.498   0.223   6.350  0.4604 -0.2003 -0.4110
  140OSM   H11A15267   1.451   0.321   6.371 -0.4336 -0.6999 -0.0394
  140OSM   H11B15268   1.554   0.208   6.445 -0.7359 -0.1202  0.3142
  140OSM      P15269   1.261   0.129   6.385 -0.4583  0.3140 -0.0849
  140OSM    O1315270   1.200   0.244   6.310  0.2562  0.7767 -0.6664
  140OSM    O1415271   1.192   0.001   6.394  0.3529  0.4185 -0.1115
  140OSM    O1115272   1.283   0.181   6.536 -0.1442  0.1975  0.0704
  140OSM    O1215273   1.411   0.108   6.329 -0.3757 -0.4315 -0.7777
  140OSM    C1S15274   1.357   0.104   6.628 -0.0883  0.1965 -0.1530
  140OSM    H1S15275   1.466   0.125   6.617 -0.0106  0.1285  0.4481
  140OSM    H1T15276   1.318   0.000   6.625 -4.0370  1.4825  0.5511
  140OSM     NF15277   1.415   0.081   6.869 -0.1014 -0.0621 -0.2647
  140OSM    HNF15278   1.371   0.017   6.931  2.0187 -0.8104  0.5412
  140OSM    C2S15279   1.335   0.153   6.773 -0.4002  0.2477  0.8668
  140OSM    H2S15280   1.372   0.258   6.769  2.3984 -0.6431  1.3371
  140OSM    C3S15281   1.182   0.154   6.812 -0.1178  0.0304  0.1010
  140OSM    H3S15282   1.150   0.048   6.819 -0.2282  0.1922  3.5712
  140OSM     O315283   1.092   0.213   6.715  0.4110  0.9894 -0.7508
  140OSM    HO315284   1.145   0.239   6.639  1.2699  1.3628 -0.0432
  140OSM    C4S15285   1.164   0.220   6.947 -0.0553 -0.0153 -0.0134
  140OSM    H4S15286   1.160   0.148   7.030 -1.2255 -1.3155 -1.1463
  140OSM    C5S15287   1.163   0.352   6.975 -0.1960  0.1671  0.2577
  140OSM    H5S15288   1.158   0.412   6.884 -2.7682 -2.3533 -1.4596
  140OSM    C6S15289   1.156   0.416   7.110  0.9101 -0.5487 -0.7097
  140OSM    H6S15290   1.061   0.466   7.138  1.2714  0.0036 -0.4572
  140OSM    H6T15291   1.240   0.488   7.102  1.9184 -1.4421  1.3241
  140OSM    C7S15292   1.196   0.318   7.222  0.0677  0.0391 -0.3568
  140OSM    H7S15293   1.291   0.266   7.198 -0.4851 -0.4659 -1.5105
  140OSM    H7T15294   1.120   0.238   7.231  1.4818 -1.2364  0.7012
  140OSM    C8S15295   1.234   0.380   7.355 -0.2452 -0.2919  0.2578
  140OSM    H8S15296   1.144   0.384   7.420  1.9332  0.0800  3.4658
  140OSM    H8T15297   1.265   0.483   7.330  2.0575 -0.7706  0.9493
  140OSM    C9S15298   1.352   0.321   7.439 -0.5813 -0.1804  0.2916
  140OSM    H9S15299   1.442   0.351   7.382 -1.4633  1.1411 -0.4611
  140OSM    H9T15300   1.350   0.212   7.458 -0.4999  0.1271  2.2781
  140OSM   C10S15301   1.357   0.369   7.586 -0.1206  0.4618 -0.2541
  140OSM   H10S15302   1.380   0.477   7.600 -0.6314  0.5465 -0.0253
  140OSM   H10T15303   1.442   0.310   7.626 -1.9565 -0.3955  2.7337
  140OSM   C11S15304   1.232   0.333   7.661  0.1939  0.2351  0.3066
  140OSM   H11S15305   1.215   0.224   7.660  0.9792  0.0287 -2.9963
  140OSM   H11T15306   1.148   0.389   7.614  0.3847  0.2820  0.0161
  140OSM   C12S15307   1.238   0.381   7.809  0.4616  0.3151 -0.9605
  140OSM   H12S15308   1.132   0.357   7.835  0.1593 -0.0189 -2.3909
  140OSM   H12T15309   1.253   0.491   7.810  1.2045  0.3137  2.9061
  140OSM   C13S15310   1.341   0.301   7.899 -0.6265 -0.1213  0.5531
  140OSM   H13S15311   1.444   0.322   7.864 -1.0718 -0.6262 -1.1283
  140OSM   H13T15312   1.328   0.191   7.890  1.2230 -0.4213  1.0544
  140OSM   C14S15313   1.319   0.350   8.044 -0.6909  0.0724 -0.3620
  140OSM   H14S15314   1.334   0.460   8.049  0.3274 -0.1048  1.3506
  140OSM   H14T15315   1.408   0.310   8.097  0.3601  1.6911 -0.8243
  140OSM   C15S15316   1.185   0.300   8.113 -0.4183  0.1224  0.3420
  140OSM   H15S15317   1.176   0.194   8.083 -2.1790  1.2026 -3.5154
  140OSM   H15T15318   1.086   0.337   8.079 -0.4402  0.3170  0.6084
  140OSM   C16S15319   1.192   0.311   8.264 -0.7953  0.4075 -0.6776
  140OSM   H16S15320   1.187   0.420   8.282  1.2344  0.6036 -0.9853
  140OSM   H16T15321   1.293   0.274   8.292 -0.3055  1.5914 -0.8431
  140OSM   C17S15322   1.082   0.238   8.350 -0.5339  0.8641 -0.3198
  140OSM   H17S15323   1.115   0.233   8.456 -0.1476  0.4956 -0.4541
  140OSM   H17T15324   1.074   0.132   8.319 -2.3182 -0.4277  3.8847
  140OSM   C18S15325   0.943   0.294   8.335 -0.4322  0.4494  0.0342
  140OSM   H18S15326   0.940   0.403   8.358 -1.4522  0.7380 -1.3583
  140OSM   H18T15327   0.874   0.245   8.407  1.1649  0.5966  1.7385
  140OSM   H18U15328   0.909   0.283   8.230 -3.2048 -2.4128  1.0615
  140OSM    C1F15329   1.549   0.101   6.883  0.1532 -0.0709  0.4344
  140OSM     OF15330   1.609   0.181   6.817 -0.7173 -0.1298 -0.3739
  140OSM    C2F15331   1.611   0.013   6.984 -0.2238 -0.0944  0.5534
  140OSM    H2F15332   1.708  -0.032   6.955 -0.3752 -0.0913  0.0223
  140OSM    H2G15333   1.536  -0.066   7.010 -0.4677  1.1400  4.1841
  140OSM    C3F15334   1.629   0.098   7.111  0.0913  0.0442 -0.7912
  140OSM    H3F15335   1.525   0.119   7.146 -0.5064 -2.3134 -0.9896
  140OSM    H3G15336   1.694   0.187   7.096 -0.5530  0.5985 -0.4094
  140OSM    C4F15337   1.704   0.020   7.219  0.5426  0.7186 -0.0468
  140OSM    H4F15338   1.795  -0.023   7.172  0.9777  0.5466  0.9187
  140OSM    H4G15339   1.635  -0.062   7.250 -2.3801  1.9303 -2.7890
  140OSM    C5F15340   1.717   0.110   7.341  0.2284 -0.1541 -1.0592
  140OSM    H5F15341   1.617   0.150   7.367  0.8771  1.2366 -0.6287
  140OSM    H5G15342   1.787   0.194   7.322  0.6544 -0.4467 -0.8022
  140OSM    C6F15343   1.755   0.035   7.469 -0.5698  0.3609 -1.1998
  140OSM    H6F15344   1.841  -0.030   7.439  1.2513  1.2665  1.6272
  140OSM    H6G15345   1.674  -0.028   7.512 -0.2967  0.8246  0.0230
  140OSM    C7F15346   1.804   0.138   7.571 -0.9029 -0.2186 -0.3077
  140OSM    H7F15347   1.750   0.235   7.568  0.7459  0.7266 -0.8046
  140OSM    H7G15348   1.910   0.160   7.544 -0.2987  0.7886  2.4769
  140OSM    C8F15349   1.819   0.090   7.716  0.0769  0.2370 -0.0210
  140OSM    H8F15350   1.889   0.158   7.769  0.4991 -0.6915  0.6441
  140OSM    H8G15351   1.866  -0.010   7.718 -1.4475 -0.5713 -1.7678
  140OSM    C9F15352   1.679   0.068   7.774  0.0233 -0.5463  0.0180
  140OSM    H9F15353   1.607   0.037   7.698  0.8368  3.5015 -2.6849
  140OSM   C10F15354   1.639   0.076   7.902  0.5886  0.2246  0.1289
  140OSM   H10F15355   1.534   0.052   7.924  0.7203  1.1359  1.9682
  140OSM   C11F15356   1.716   0.117   8.023  0.5907  0.7689 -0.4226
  140OSM   H11F15357   1.654   0.190   8.079 -1.6264 -1.6705  0.4907
  140OSM   H11G15358   1.814   0.164   8.003  0.4990  1.3113  0.3552
  140OSM   C12F15359   1.752   0.005   8.119 -0.2559 -0.0185  0.0580
  140OSM   H12F15360   1.801   0.049   8.209 -1.1326 -1.3027  1.2216
  140OSM   H12G15361   1.826  -0.059   8.068  2.1496  2.3508  0.3647
  140OSM   C13F15362   1.636  -0.079   8.180  0.5600 -0.5152 -0.3989
  140OSM   H13F15363   1.676  -0.177   8.213 -2.0260 -1.1084  1.2752
  140OSM   H13G15364   1.561  -0.075   8.098 -0.1317  0.3828  0.2588
  140OSM   C14F15365   1.568  -0.005   8.302  0.6406 -0.3353 -0.2127
  140OSM   H14F15366   1.576   0.102   8.273  3.3981  0.9286  4.2523
  140OSM   H14G15367   1.625  -0.009   8.398 -0.4105  2.5582  0.6423
  140OSM   C15F15368   1.431  -0.060   8.334  0.3423 -0.0100 -0.4636
  140OSM   H15F15369   1.448  -0.169   8.346  0.8065  0.3207  3.1195
  140OSM   H15G15370   1.365  -0.045   8.246 -0.3224 -0.6506 -0.0958
  140OSM   C16F15371   1.357  -0.014   8.461 -0.2809 -0.3386 -0.0490
  140OSM   H16F15372   1.329   0.093   8.448 -1.1090 -0.6914 -1.3540
  140OSM   H16G15373   1.425  -0.023   8.548 -0.4069  0.6274  0.1578
  140OSM   C17F15374   1.230  -0.092   8.493 -0.9112 -0.7276 -0.3600
  140OSM   H17F15375   1.157  -0.098   8.410 -1.5022 -1.5252  0.2008
  140OSM   H17G15376   1.168  -0.038   8.567 -0.6822 -0.8402 -0.0831
  140OSM   C18F15377   1.256  -0.240   8.527  0.2042  0.4820 -0.0051
  140OSM   H18F15378   1.156  -0.269   8.566  0.7865 -1.6045  0.0133
  140OSM   H18G15379   1.329  -0.264   8.608 -2.4381  1.0458  2.7581
  140OSM   H18H15380   1.282  -0.296   8.435  0.0868  1.6907 -0.7999
  141OSM      N15381   2.201   2.677   5.903 -0.3961  0.5885  0.3120
  141OSM    C1515382   2.290   2.756   5.816 -0.3453  0.2436 -0.0426
  141OSM   H15A15383   2.390   2.716   5.815 -0.0318  0.9534  1.2541
  141OSM   H15B15384   2.305   2.859   5.845  1.9725  0.4083 -1.5779
  141OSM   H15C15385   2.253   2.764   5.715 -1.5377  1.5695  0.4639
  141OSM    C1415386   2.055   2.724   5.891  1.0249 -0.2878 -0.6040
  141OSM   H14A15387   1.993   2.644   5.928  1.6858 -0.1892  0.7960
  141OSM   H14B15388   2.024   2.750   5.791 -1.1752 -0.4048 -0.0081
  141OSM   H14C15389   2.029   2.809   5.953  0.1135 -0.7188 -0.3733
  141OSM    C1315390   2.203   2.538   5.864  0.2579  0.3566 -0.4248
  141OSM   H13A15391   2.133   2.485   5.927 -0.3104  0.5939 -0.8454
  141OSM   H13B15392   2.288   2.472   5.880 -0.7108 -0.6495  0.8093
  141OSM   H13C15393   2.170   2.537   5.761  0.2627  2.7601 -0.4965
  141OSM    C1215394   2.261   2.691   6.042  0.5640 -0.3980 -0.6772
  141OSM   H12A15395   2.278   2.794   6.066 -0.1521  0.0544 -1.9889
  141OSM   H12B15396   2.358   2.645   6.032  0.0096 -1.5669 -0.8825
  141OSM    C1115397   2.191   2.627   6.165  0.6672 -0.5188 -0.5043
  141OSM   H11A15398   2.096   2.683   6.178 -1.1191 -3.2985 -0.7743
  141OSM   H11B15399   2.258   2.657   6.249  1.0040 -0.9136 -0.6308
  141OSM      P15400   2.267   2.386   6.206  0.1856 -0.2459 -0.0158
  141OSM    O1315401   2.197   2.257   6.185 -0.2059  0.4015  0.2524
  141OSM    O1415402   2.403   2.402   6.150 -0.2634  0.0847 -0.4178
  141OSM    O1115403   2.270   2.425   6.359 -0.2111  0.5865 -0.1826
  141OSM    O1215404   2.170   2.492   6.153 -0.5542  0.2368 -0.5692
  141OSM    C1S15405   2.282   2.338   6.469  0.0363 -0.7718 -0.2421
  141OSM    H1S15406   2.387   2.304   6.472  0.1330 -0.5694 -1.0065
  141OSM    H1T15407   2.212   2.253   6.452  0.3691 -0.8615 -1.2214
  141OSM     NF15408   2.266   2.330   6.721  0.0596 -0.7555 -0.4464
  141OSM    HNF15409   2.184   2.292   6.763  1.1653 -0.3568  2.2926
  141OSM    C2S15410   2.244   2.418   6.600 -0.4064 -0.0973  0.7893
  141OSM    H2S15411   2.317   2.501   6.592  0.8633 -1.3086 -1.3532
  141OSM    C3S15412   2.106   2.468   6.592  0.4980 -0.7896  0.2173
  141OSM    H3S15413   2.032   2.386   6.576 -0.6350 -0.0262  1.3868
  141OSM     O315414   2.083   2.560   6.479 -0.0094 -0.3938  1.0151
  141OSM    HO315415   2.152   2.535   6.417  1.5957  1.9582  1.6919
  141OSM    C4S15416   2.075   2.538   6.718  0.2464 -0.3793  0.4293
  141OSM    H4S15417   2.080   2.474   6.807  0.2191 -1.0670 -0.0581
  141OSM    C5S15418   2.043   2.668   6.746  0.6972  0.3336  0.3299
  141OSM    H5S15419   2.047   2.734   6.658 -0.2137 -0.6098 -0.4415
  141OSM    C6S15420   2.016   2.726   6.883  0.3840  0.0198  0.9428
  141OSM    H6S15421   1.915   2.772   6.886  0.7866  0.9653  0.4885
  141OSM    H6T15422   2.075   2.819   6.874 -2.2585  1.7424  0.3186
  141OSM    C7S15423   2.029   2.649   7.009  0.1490 -0.1336 -0.8220
  141OSM    H7S15424   2.126   2.594   7.009 -1.1630 -2.5992 -0.6154
  141OSM    H7T15425   1.955   2.566   7.018  0.0158 -0.0959 -1.5389
  141OSM    C8S15426   2.021   2.739   7.130  0.0975 -0.3992  0.0546
  141OSM    H8S15427   1.932   2.805   7.126 -1.1989 -1.9248  1.9489
  141OSM    H8T15428   2.113   2.803   7.130 -0.5692  0.5901 -0.8755
  141OSM    C9S15429   2.023   2.663   7.260 -0.0810  0.1357  0.9979
  141OSM    H9S15430   2.089   2.574   7.256  0.1219  0.3062  0.5023
  141OSM    H9T15431   1.923   2.623   7.288 -1.7443  3.9392  1.0735
  141OSM   C10S15432   2.088   2.741   7.379  0.3424  0.1349  0.1467
  141OSM   H10S15433   2.024   2.826   7.409  2.1324  1.2092  1.0447
  141OSM   H10T15434   2.185   2.781   7.343 -1.2169  1.1495 -3.3657
  141OSM   C11S15435   2.112   2.647   7.498  0.0864  0.8028  0.2081
  141OSM   H11S15436   2.183   2.568   7.466 -1.7963  0.0148 -2.2654
  141OSM   H11T15437   2.017   2.596   7.527  1.4865 -1.0988  1.6775
  141OSM   C12S15438   2.176   2.726   7.613  0.2485  0.4176 -0.1226
  141OSM   H12S15439   2.117   2.816   7.638 -0.4721 -0.3277  0.9448
  141OSM   H12T15440   2.272   2.766   7.574  1.0825 -1.1914  0.1755
  141OSM   C13S15441   2.179   2.627   7.735  0.6021 -0.3530  0.3091
  141OSM   H13S15442   2.256   2.550   7.710 -0.7843 -1.4206 -0.8463
  141OSM   H13T15443   2.081   2.573   7.739  0.9193 -1.1566 -1.6636
  141OSM   C14S15444   2.214   2.683   7.871  0.3146  0.8497  0.6612
  141OSM   H14S15445   2.135   2.755   7.900  0.7585  1.5461  0.1762
  141OSM   H14T15446   2.309   2.740   7.859  2.3963 -2.5047 -0.1785
  141OSM   C15S15447   2.231   2.576   7.984 -0.3751  0.5099 -0.3528
  141OSM   H15S15448   2.309   2.500   7.964  0.3428  0.6500  1.7374
  141OSM   H15T15449   2.133   2.526   7.998  0.7799 -2.0330 -0.8391
  141OSM   C16S15450   2.261   2.643   8.119  0.8366 -0.5707 -0.1018
  141OSM   H16S15451   2.234   2.577   8.204  0.3947  0.2135  0.3740
  141OSM   H16T15452   2.187   2.726   8.122  1.6571  0.2039 -0.7418
  141OSM   C17S15453   2.394   2.711   8.143 -0.2317  0.6888 -1.0851
  141OSM   H17S15454   2.389   2.785   8.225 -1.9030  2.0749 -2.3575
  141OSM   H17T15455   2.423   2.777   8.058  1.4065  1.1058 -0.2310
  141OSM   C18S15456   2.512   2.611   8.179  0.1214  0.0944  0.4153
  141OSM   H18S15457   2.547   2.546   8.096 -1.3153 -2.2098  1.5024
  141OSM   H18T15458   2.484   2.537   8.257 -0.8673  0.9552  0.8990
  141OSM   H18U15459   2.595   2.673   8.221  1.6050 -0.5310 -1.4459
  141OSM    C1F15460   2.388   2.283   6.754 -0.1234 -0.3661 -0.4942
  141OSM     OF15461   2.492   2.336   6.708 -0.0350  0.0351  0.2619
  141OSM    C2F15462   2.392   2.163   6.838  0.5023 -0.2949 -0.2301
  141OSM    H2F15463   2.437   2.076   6.785  0.8059 -0.8510  0.9014
  141OSM    H2G15464   2.286   2.145   6.867 -0.3361  2.9407 -0.8610
  141OSM    C3F15465   2.475   2.188   6.964 -0.2089 -0.3994  0.5345
  141OSM    H3F15466   2.428   2.277   7.010  1.6932  0.7376  0.3724
  141OSM    H3G15467   2.576   2.214   6.926 -1.1291  1.8250 -0.5385
  141OSM    C4F15468   2.486   2.082   7.061 -0.2636  0.1273  0.4487
  141OSM    H4F15469   2.528   2.000   6.998 -0.0076  0.6355 -0.0594
  141OSM    H4G15470   2.394   2.050   7.114 -1.6247 -0.2044 -1.9555
  141OSM    C5F15471   2.599   2.103   7.160  0.0176 -0.3102  0.1062
  141OSM    H5F15472   2.573   2.199   7.211 -1.4248 -0.1137 -0.9461
  141OSM    H5G15473   2.694   2.118   7.104 -1.3697  1.9512 -1.8268
  141OSM    C6F15474   2.609   1.986   7.258  0.0579 -0.1152 -0.0710
  141OSM    H6F15475   2.717   1.962   7.265  0.7842  2.7181 -0.4809
  141OSM    H6G15476   2.563   1.893   7.219 -1.1173  0.1784  0.5519
  141OSM    C7F15477   2.563   2.016   7.403 -0.5314  1.1189 -0.6176
  141OSM    H7F15478   2.454   2.039   7.414 -0.7673 -0.9246  2.8636
  141OSM    H7G15479   2.614   2.108   7.439  0.2722  0.9096 -1.2162
  141OSM    C8F15480   2.594   1.901   7.498 -0.7460 -0.1650  0.0522
  141OSM    H8F15481   2.537   1.810   7.468  1.3166 -1.9463  1.1919
  141OSM    H8G15482   2.539   1.934   7.589 -2.1443  0.6807 -1.0621
  141OSM    C9F15483   2.741   1.865   7.531  0.1030 -0.3069  0.9322
  141OSM    H9F15484   2.797   1.824   7.446 -0.1059  1.3899 -0.0619
  141OSM   C10F15485   2.798   1.878   7.654 -0.4837  0.1121 -0.6755
  141OSM   H10F15486   2.905   1.853   7.664 -0.2921  1.1733  0.0619
  141OSM   C11F15487   2.734   1.927   7.778 -0.1940  0.3801 -0.3397
  141OSM   H11F15488   2.633   1.973   7.774 -0.7323 -0.0121  3.9764
  141OSM   H11G15489   2.807   1.999   7.821  1.2566 -0.0878 -1.9130
  141OSM   C12F15490   2.719   1.813   7.885  0.0993 -0.1208  0.0633
  141OSM   H12F15491   2.670   1.861   7.972  0.2521 -1.7331  1.0801
  141OSM   H12G15492   2.817   1.768   7.912  0.7973  1.7295  0.8243
  141OSM   C13F15493   2.643   1.695   7.833 -0.6354 -0.2482 -0.2862
  141OSM   H13F15494   2.710   1.648   7.758  0.4512  0.8992 -0.0592
  141OSM   H13G15495   2.559   1.729   7.768 -0.0856 -0.1570 -0.9531
  141OSM   C14F15496   2.602   1.601   7.946 -0.2094  0.7394  0.1943
  141OSM   H14F15497   2.528   1.645   8.017  0.0621  0.7379  0.4832
  141OSM   H14G15498   2.685   1.587   8.019 -1.1218 -1.4065  0.9075
  141OSM   C15F15499   2.567   1.464   7.900  0.2091  0.8552  0.2689
  141OSM   H15F15500   2.658   1.412   7.864 -0.2130  0.6870 -0.5657
  141OSM   H15G15501   2.504   1.487   7.812  0.8347  0.4737 -0.2898
  141OSM   C16F15502   2.487   1.377   8.004 -0.0423  0.3393  0.3465
  141OSM   H16F15503   2.444   1.289   7.952 -1.0235  1.2802 -0.4575
  141OSM   H16G15504   2.407   1.433   8.057 -0.9160 -2.2447  1.9707
  141OSM   C17F15505   2.578   1.330   8.116 -0.1476 -0.0989 -0.7384
  141OSM   H17F15506   2.631   1.415   8.164 -0.6372 -0.5222  0.6174
  141OSM   H17G15507   2.664   1.274   8.076  1.9669  2.2031  0.3258
  141OSM   C18F15508   2.492   1.254   8.218  0.4658 -0.8248 -0.0375
  141OSM   H18F15509   2.406   1.316   8.252 -0.5901 -0.8165 -2.4639
  141OSM   H18G15510   2.552   1.220   8.304  0.7199 -0.7095 -0.1660
  141OSM   H18H15511   2.463   1.163   8.162  2.8963 -1.5014 -0.2945
  142OSM      N15512   2.227   6.243   6.308  0.6040  0.7026  0.2301
  142OSM    C1515513   2.081   6.205   6.301  0.5387  0.3660  0.2020
  142OSM   H15A15514   2.029   6.277   6.363 -1.4750 -2.0344  1.4985
  142OSM   H15B15515   2.067   6.111   6.352 -1.8816  0.1841 -0.6633
  142OSM   H15C15516   2.040   6.213   6.202 -0.3774  0.9714  0.6114
  142OSM    C1415517   2.239   6.401   6.300  0.2535  0.0271  0.2000
  142OSM   H14A15518   2.198   6.445   6.390  0.7890 -0.2776  0.5986
  142OSM   H14B15519   2.188   6.438   6.212  3.8592 -0.1851 -2.1625
  142OSM   H14C15520   2.343   6.424   6.284  0.4478 -1.3858 -0.7282
  142OSM    C1315521   2.270   6.222   6.455  1.0673  0.3400  0.1631
  142OSM   H13A15522   2.367   6.264   6.475  0.2018  1.0004  3.6661
  142OSM   H13B15523   2.275   6.115   6.470  0.0940 -0.1376 -2.3150
  142OSM   H13C15524   2.194   6.267   6.518  1.9107  3.5885 -0.9114
  142OSM    C1215525   2.313   6.167   6.203 -0.2305 -0.0164  0.3340
  142OSM   H12A15526   2.413   6.204   6.224  1.1991 -1.8954 -2.5773
  142OSM   H12B15527   2.283   6.210   6.109  0.1869  1.7890  0.9750
  142OSM    C1115528   2.309   6.010   6.193  0.7927  0.1626  0.6408
  142OSM   H11A15529   2.331   5.976   6.297  0.1517  0.9122  1.0456
  142OSM   H11B15530   2.384   5.969   6.123  0.8496  0.1622  0.7020
  142OSM      P15531   2.108   5.846   6.201  0.0914 -0.2720  0.3923
  142OSM    O1315532   1.963   5.882   6.208 -0.0416 -0.1165 -0.0074
  142OSM    O1415533   2.141   5.737   6.106  0.1579  0.1109 -0.4551
  142OSM    O1115534   2.160   5.824   6.346  0.2387 -0.2555  0.4133
  142OSM    O1215535   2.180   5.975   6.146  0.1314  0.4194  0.2950
  142OSM    C1S15536   2.163   5.691   6.399  0.3499 -0.4211 -0.3257
  142OSM    H1S15537   2.209   5.620   6.327  0.0407  1.0347 -2.0157
  142OSM    H1T15538   2.065   5.650   6.431 -1.1469  0.4823 -3.3360
  142OSM     NF15539   2.226   5.534   6.595 -0.0117 -0.2026 -0.3913
  142OSM    HNF15540   2.178   5.525   6.682 -0.9382 -2.0301 -1.0359
  142OSM    C2S15541   2.245   5.672   6.536  0.2555 -0.2284  0.4373
  142OSM    H2S15542   2.353   5.675   6.511 -0.0797 -1.3877 -1.3304
  142OSM    C3S15543   2.210   5.793   6.629 -0.4622  0.5219  0.4386
  142OSM    H3S15544   2.109   5.775   6.673 -0.1514 -2.9024  0.0200
  142OSM     O315545   2.220   5.924   6.569  0.1263 -0.4448  0.1673
  142OSM    HO315546   2.212   5.908   6.474  0.0096  1.5339 -0.1896
  142OSM    C4S15547   2.302   5.793   6.752  0.1860  0.5858  0.9319
  142OSM    H4S15548   2.234   5.770   6.835  1.2726  2.2284  2.3198
  142OSM    C5S15549   2.425   5.853   6.774  0.2666  0.1386 -0.0213
  142OSM    H5S15550   2.479   5.903   6.693 -0.4642  0.7121 -0.1602
  142OSM    C6S15551   2.497   5.851   6.904  0.5379  0.6065 -1.4104
  142OSM    H6S15552   2.536   5.955   6.912 -0.1597  0.9457 -2.1844
  142OSM    H6T15553   2.584   5.784   6.908 -0.3291 -0.4689  0.3921
  142OSM    C7S15554   2.413   5.815   7.030 -0.4698 -0.3440  0.2795
  142OSM    H7S15555   2.367   5.714   7.030 -0.9975 -0.1395 -1.2101
  142OSM    H7T15556   2.336   5.894   7.045 -1.7820 -1.8149  1.6647
  142OSM    C8S15557   2.507   5.826   7.153  0.1209  0.0155 -0.0632
  142OSM    H8S15558   2.548   5.929   7.164  1.2361 -0.5087  0.8694
  142OSM    H8T15559   2.589   5.751   7.151 -0.6095 -0.7940 -0.2200
  142OSM    C9S15560   2.424   5.803   7.277  0.5806  0.0471 -0.1534
  142OSM    H9S15561   2.380   5.702   7.263  0.2349  0.1765  0.0068
  142OSM    H9T15562   2.344   5.880   7.276 -0.4799 -0.8300  3.2195
  142OSM   C10S15563   2.484   5.788   7.421 -0.1428 -0.5894  0.0250
  142OSM   H10S15564   2.509   5.895   7.440 -1.0372 -0.0749 -1.4958
  142OSM   H10T15565   2.576   5.726   7.419  0.9548  0.9800 -2.4653
  142OSM   C11S15566   2.379   5.732   7.515  0.3549 -0.1986 -0.0060
  142OSM   H11S15567   2.362   5.625   7.493  1.6830  0.0285 -2.5385
  142OSM   H11T15568   2.279   5.780   7.515 -0.3181 -1.5364  0.7577
  142OSM   C12S15569   2.428   5.746   7.658  0.5503 -0.4502 -0.6929
  142OSM   H12S15570   2.339   5.720   7.720  0.1247  1.3449 -0.4994
  142OSM   H12T15571   2.456   5.851   7.678  0.8411 -0.8763  1.3360
  142OSM   C13S15572   2.548   5.652   7.699 -0.4016 -0.7142 -0.0679
  142OSM   H13S15573   2.633   5.671   7.630  2.9846 -1.8754  3.4231
  142OSM   H13T15574   2.518   5.546   7.683 -0.0659 -0.7236 -0.6556
  142OSM   C14S15575   2.601   5.670   7.844 -0.1098  0.2050 -0.4859
  142OSM   H14S15576   2.638   5.774   7.857 -0.5537  0.1991  1.0378
  142OSM   H14T15577   2.684   5.597   7.858 -0.4303 -0.4463 -1.8866
  142OSM   C15S15578   2.490   5.640   7.947 -0.3661  0.1331 -0.5161
  142OSM   H15S15579   2.448   5.538   7.934 -2.6344  0.4616  2.9341
  142OSM   H15T15580   2.406   5.710   7.926  0.1904  0.5243 -1.5055
  142OSM   C16S15581   2.542   5.660   8.093 -0.2173  0.4165  0.3074
  142OSM   H16S15582   2.557   5.768   8.112 -2.5518  1.3688 -2.4550
  142OSM   H16T15583   2.639   5.607   8.103 -0.3061 -0.4024 -2.3888
  142OSM   C17S15584   2.442   5.607   8.199  0.0027 -0.6334 -0.1825
  142OSM   H17S15585   2.410   5.506   8.165  0.6027 -1.1646  0.7738
  142OSM   H17T15586   2.348   5.664   8.206  1.7553  2.5968 -0.8843
  142OSM   C18S15587   2.509   5.593   8.337 -0.6000  0.0836 -0.1187
  142OSM   H18S15588   2.442   5.534   8.404  0.1927 -0.4268  0.2286
  142OSM   H18T15589   2.538   5.693   8.375  0.7898  1.0273 -3.3378
  142OSM   H18U15590   2.602   5.532   8.330 -0.2569  0.5622  0.2397
  142OSM    C1F15591   2.264   5.421   6.540 -0.5487 -0.1409 -0.0573
  142OSM     OF15592   2.344   5.423   6.447  0.7755 -0.5758  0.0609
  142OSM    C2F15593   2.213   5.298   6.601  0.3196  0.4445  0.9333
  142OSM    H2F15594   2.214   5.225   6.517  0.4387  1.6379 -0.1323
  142OSM    H2G15595   2.107   5.310   6.632  0.5188  0.0185  1.8148
  142OSM    C3F15596   2.300   5.236   6.717  1.0935  0.3952 -0.0397
  142OSM    H3F15597   2.294   5.283   6.818  1.3764 -1.5937  0.9574
  142OSM    H3G15598   2.405   5.230   6.681  1.7444 -0.3836  1.8371
  142OSM    C4F15599   2.239   5.094   6.725 -0.9358 -0.1361 -0.5006
  142OSM    H4F15600   2.284   5.033   6.644 -0.3955  0.1844 -0.4496
  142OSM    H4G15601   2.131   5.100   6.702 -0.3737  2.5775 -3.0209
  142OSM    C5F15602   2.263   5.027   6.862 -0.5960 -0.0543  0.5432
  142OSM    H5F15603   2.229   4.922   6.852  0.8042 -0.5148  0.3320
  142OSM    H5G15604   2.187   5.061   6.935  0.1556  0.4924  1.0887
  142OSM    C6F15605   2.407   5.020   6.912 -0.6245 -0.0320 -0.2072
  142OSM    H6F15606   2.452   5.116   6.945 -1.0379  0.6002 -1.4444
  142OSM    H6G15607   2.471   4.978   6.831 -0.7808 -1.1503  0.2298
  142OSM    C7F15608   2.417   4.922   7.036  0.5832 -0.3814  0.1700
  142OSM    H7F15609   2.428   4.826   6.981  0.5191 -1.9871  2.7981
  142OSM    H7G15610   2.327   4.917   7.102  0.8361  2.2815  0.8616
  142OSM    C8F15611   2.538   4.954   7.135 -0.3420  0.5323  0.3184
  142OSM    H8F15612   2.521   5.059   7.167 -0.3848  0.8803 -0.7892
  142OSM    H8G15613   2.628   4.949   7.070 -0.6746 -0.4545 -0.0987
  142OSM    C9F15614   2.566   4.855   7.250  1.1897  0.8258  0.5657
  142OSM    H9F15615   2.609   4.755   7.235  0.6601  0.3606  1.9927
  142OSM   C10F15616   2.530   4.873   7.374  0.6085 -0.5167  0.3360
  142OSM   H10F15617   2.539   4.787   7.442 -1.7793 -0.9024  0.2780
  142OSM   C11F15618   2.468   5.000   7.430 -0.1463 -0.0150  0.1506
  142OSM   H11F15619   2.359   4.995   7.413 -0.3245  3.3375 -0.3388
  142OSM   H11G15620   2.507   5.098   7.395 -1.1686  0.1781 -0.4740
  142OSM   C12F15621   2.498   5.013   7.578 -0.1084 -0.6211  0.6506
  142OSM   H12F15622   2.499   5.120   7.608 -0.4972  0.4240 -2.6781
  142OSM   H12G15623   2.604   4.985   7.594  0.2137  0.2242  0.0239
  142OSM   C13F15624   2.411   4.921   7.673 -0.4597  0.3307 -0.4490
  142OSM   H13F15625   2.428   4.812   7.660 -1.0497  0.1976 -0.1676
  142OSM   H13G15626   2.307   4.944   7.642 -0.9881  1.1602  1.7564
  142OSM   C14F15627   2.423   4.953   7.818  0.0605 -0.6332  0.6580
  142OSM   H14F15628   2.525   4.971   7.859  0.2629  2.5234 -0.8852
  142OSM   H14G15629   2.386   4.868   7.879  3.0974 -1.3334  1.7059
  142OSM   C15F15630   2.341   5.078   7.853 -0.6512  0.6545  0.1708
  142OSM   H15F15631   2.234   5.070   7.823 -0.8896 -1.1572  1.3568
  142OSM   H15G15632   2.383   5.158   7.788 -1.2834  0.7368 -0.1496
  142OSM   C16F15633   2.350   5.112   8.009 -0.0546  0.6982 -0.2111
  142OSM   H16F15634   2.289   5.203   8.023 -1.2450  0.1174 -1.4633
  142OSM   H16G15635   2.455   5.141   8.031  0.9366 -2.5291 -0.0602
  142OSM   C17F15636   2.289   5.001   8.104  0.4134 -0.2202  0.5424
  142OSM   H17F15637   2.317   5.017   8.211  0.3251 -2.4683  0.9573
  142OSM   H17G15638   2.336   4.904   8.078  0.8116 -0.0956  0.7871
  142OSM   C18F15639   2.141   4.998   8.088 -0.3811 -0.0096  0.2340
  142OSM   H18F15640   2.126   4.969   7.982  1.8041 -0.5254  0.0297
  142OSM   H18G15641   2.090   5.095   8.105  0.5520  0.7401 -1.0768
  142OSM   H18H15642   2.107   4.922   8.162  1.9747  0.3168  1.7740
  143OSM      N15643   2.618   5.630   6.256  0.7220  0.7457  0.6135
  143OSM    C1515644   2.656   5.589   6.394 -0.6940  0.7064  0.0410
  143OSM   H15A15645   2.750   5.536   6.394 -0.6582  0.7527 -0.8332
  143OSM   H15B15646   2.585   5.518   6.433  1.9166 -2.1114  0.0231
  143OSM   H15C15647   2.659   5.670   6.466  1.1328  2.4392 -1.8301
  143OSM    C1415648   2.576   5.500   6.192 -0.0890  0.1210  0.8282
  143OSM   H14A15649   2.558   5.502   6.086  0.8426  1.3303  0.6737
  143OSM   H14B15650   2.484   5.455   6.227  0.0554  0.2591  1.3968
  143OSM   H14C15651   2.658   5.431   6.206  0.8859  0.9778 -0.4393
  143OSM    C1315652   2.491   5.711   6.270  0.2691  0.3476  0.1008
  143OSM   H13A15653   2.410   5.648   6.304 -0.9156  0.8299 -1.6412
  143OSM   H13B15654   2.454   5.765   6.184  1.4179  1.2356  0.1453
  143OSM   H13C15655   2.523   5.795   6.329  0.1347 -0.2825  1.0822
  143OSM    C1215656   2.715   5.707   6.179  0.6972 -0.1572  0.1862
  143OSM   H12A15657   2.679   5.729   6.080  1.4253 -0.6119 -0.1930
  143OSM   H12B15658   2.798   5.639   6.167  0.3321 -0.3847 -1.2441
  143OSM    C1115659   2.785   5.833   6.247 -0.4159  0.1205 -0.3838
  143OSM   H11A15660   2.878   5.857   6.191 -0.0760  0.0689  0.1482
  143OSM   H11B15661   2.810   5.795   6.348 -1.9813  1.1282  0.4241
  143OSM      P15662   2.718   6.068   6.163  0.6132 -0.0735 -0.1993
  143OSM    O1315663   2.731   6.011   6.027  0.4145  0.5145  0.0880
  143OSM    O1415664   2.613   6.168   6.183  0.2258  0.2403  0.4288
  143OSM    O1115665   2.855   6.142   6.203  0.4172  0.2032 -0.6983
  143OSM    O1215666   2.703   5.950   6.266 -0.4514  0.4728 -0.5767
  143OSM    C1S15667   2.877   6.187   6.337  0.5574  0.2992 -0.4597
  143OSM    H1S15668   2.787   6.222   6.392  1.4461  0.2697  1.0685
  143OSM    H1T15669   2.947   6.273   6.333  0.1889  0.6508  0.3572
  143OSM     NF15670   2.955   6.139   6.568  0.3669  0.5192 -0.2810
  143OSM    HNF15671   3.038   6.195   6.573  0.7510  0.1067 -1.6859
  143OSM    C2S15672   2.947   6.090   6.431 -0.7811 -0.1415 -0.4134
  143OSM    H2S15673   2.903   5.988   6.439 -1.3669  0.2335  1.9544
  143OSM    C3S15674   3.089   6.076   6.367 -0.0184 -0.3651  0.7597
  143OSM    H3S15675   3.134   6.174   6.340  0.8293 -1.2967 -1.4037
  143OSM     O315676   3.094   6.015   6.238 -0.4959  0.3583 -0.2471
  143OSM    HO315677   3.010   6.046   6.203 -0.6790 -1.6759 -1.8152
  143OSM    C4S15678   3.188   6.004   6.462 -0.6618 -0.1730 -0.4572
  143OSM    H4S15679   3.161   5.900   6.483 -1.0549  0.0270  0.0560
  143OSM    C5S15680   3.301   6.061   6.522  0.3332 -0.2662 -0.6699
  143OSM    H5S15681   3.327   6.167   6.509 -0.3697 -0.1141 -0.8685
  143OSM    C6S15682   3.391   5.987   6.616  0.7832  0.2343 -0.0404
  143OSM    H6S15683   3.500   6.006   6.604  0.8543 -0.8546 -1.4229
  143OSM    H6T15684   3.377   5.877   6.611 -2.3989  0.5482 -0.0598
  143OSM    C7S15685   3.347   6.027   6.756 -0.5588 -0.5217 -0.2904
  143OSM    H7S15686   3.241   5.999   6.769 -0.4984 -2.4599 -3.0717
  143OSM    H7T15687   3.352   6.133   6.789 -0.1054 -1.7421  4.2269
  143OSM    C8S15688   3.430   5.955   6.863  0.5053  0.0640  0.0745
  143OSM    H8S15689   3.533   5.960   6.823  0.5515  0.2341  0.2170
  143OSM    H8T15690   3.398   5.850   6.844 -1.7038  0.6400  0.2936
  143OSM    C9S15691   3.418   6.015   7.005 -0.0983  0.7927 -0.1990
  143OSM    H9S15692   3.312   6.040   7.026 -0.2651  0.2663 -0.3902
  143OSM    H9T15693   3.478   6.109   7.000  1.7454 -0.3968 -1.4822
  143OSM   C10S15694   3.462   5.927   7.119 -0.1550 -0.0610 -0.6198
  143OSM   H10S15695   3.572   5.908   7.115 -0.2655 -0.8559 -0.0915
  143OSM   H10T15696   3.407   5.830   7.118  1.0191 -0.7647  0.0387
  143OSM   C11S15697   3.433   5.989   7.258  0.1907 -0.0150 -0.2950
  143OSM   H11S15698   3.328   6.024   7.255 -0.5020 -1.6618  2.0410
  143OSM   H11T15699   3.502   6.076   7.259 -1.8346  1.6606  0.3213
  143OSM   C12S15700   3.465   5.903   7.378  0.1281  0.9458  0.7774
  143OSM   H12S15701   3.568   5.863   7.372 -0.5035 -0.5326 -0.8855
  143OSM   H12T15702   3.389   5.822   7.375 -1.7241  2.5508  1.8402
  143OSM   C13S15703   3.453   5.987   7.504 -0.0300  0.2574 -1.0372
  143OSM   H13S15704   3.348   6.024   7.516 -0.8750 -2.1989 -0.1422
  143OSM   H13T15705   3.506   6.083   7.488  0.6687  0.2158  0.7543
  143OSM   C14S15706   3.495   5.931   7.642  0.2026 -0.0658 -0.7829
  143OSM   H14S15707   3.602   5.902   7.630  0.4690  0.6926 -0.2926
  143OSM   H14T15708   3.437   5.840   7.666  2.5729 -1.2758  0.8482
  143OSM   C15S15709   3.498   6.033   7.758  0.0117 -0.4267 -0.3012
  143OSM   H15S15710   3.523   6.133   7.718 -0.9476 -0.8202 -2.0338
  143OSM   H15T15711   3.567   5.988   7.832  0.7269 -1.5563 -1.5939
  143OSM   C16S15712   3.354   6.048   7.804  0.1109 -0.3844  0.0430
  143OSM   H16S15713   3.303   5.951   7.822 -1.8012  0.8413  1.6869
  143OSM   H16T15714   3.293   6.093   7.722 -0.5694 -0.2025  0.6346
  143OSM   C17S15715   3.335   6.133   7.931 -0.1049  0.2533  0.2696
  143OSM   H17S15716   3.343   6.241   7.907 -0.7850  0.3292  0.3752
  143OSM   H17T15717   3.422   6.101   7.994  2.0894  0.5454 -2.4385
  143OSM   C18S15718   3.198   6.111   7.999 -0.3399  0.2152  0.8168
  143OSM   H18S15719   3.179   6.004   8.025 -0.6660  0.1811  0.4443
  143OSM   H18T15720   3.114   6.149   7.936 -0.1722  0.1702  0.5663
  143OSM   H18U15721   3.199   6.172   8.092  1.1035 -1.0146  1.6404
  143OSM    C1F15722   2.854   6.142   6.656  0.9949 -0.0649 -0.6544
  143OSM     OF15723   2.744   6.094   6.624 -0.0113 -0.2500 -0.4385
  143OSM    C2F15724   2.879   6.208   6.788  0.2078 -0.1512 -0.0721
  143OSM    H2F15725   2.958   6.286   6.784  1.5816 -1.5324 -3.0900
  143OSM    H2G15726   2.906   6.131   6.863 -2.6943 -0.4293  0.7944
  143OSM    C3F15727   2.747   6.262   6.847  0.7853  0.6086  0.1990
  143OSM    H3F15728   2.668   6.185   6.863 -0.1855  1.6013  0.3121
  143OSM    H3G15729   2.716   6.347   6.783 -3.1733 -0.8558 -0.1061
  143OSM    C4F15730   2.785   6.326   6.986  0.1118 -0.4104 -0.2279
  143OSM    H4F15731   2.843   6.418   6.963 -2.0929  1.8231  2.5108
  143OSM    H4G15732   2.855   6.254   7.034 -0.5361 -1.0453 -0.2228
  143OSM    C5F15733   2.657   6.374   7.066 -0.2017  0.0332 -0.1271
  143OSM    H5F15734   2.604   6.456   7.012 -1.1686 -0.5134 -0.0195
  143OSM    H5G15735   2.694   6.420   7.160  0.4598  0.2502 -0.4792
  143OSM    C6F15736   2.561   6.264   7.106 -0.2375 -0.6651 -0.1645
  143OSM    H6F15737   2.624   6.193   7.165 -0.1864 -1.4803 -1.1576
  143OSM    H6G15738   2.520   6.212   7.017  0.7304  0.1768 -1.1334
  143OSM    C7F15739   2.443   6.309   7.194 -0.5728  0.2622  0.3697
  143OSM    H7F15740   2.364   6.337   7.122 -0.8180 -1.2366  0.0182
  143OSM    H7G15741   2.475   6.400   7.249 -1.3226  0.4316  0.5349
  143OSM    C8F15742   2.410   6.205   7.295  0.4820  0.5706 -0.3353
  143OSM    H8F15743   2.504   6.169   7.344  0.9985 -0.1099 -1.7796
  143OSM    H8G15744   2.387   6.111   7.240 -0.6299  2.1075 -2.5822
  143OSM    C9F15745   2.288   6.247   7.383  0.3989  0.9863  0.3430
  143OSM    H9F15746   2.191   6.256   7.333  1.5260  2.0293 -1.7956
  143OSM   C10F15747   2.293   6.274   7.512  0.6200 -0.3586 -0.1015
  143OSM   H10F15748   2.201   6.298   7.567 -0.3627 -1.5930 -1.1215
  143OSM   C11F15749   2.413   6.277   7.594 -0.0636  0.0357  0.5980
  143OSM   H11F15750   2.417   6.382   7.631 -0.3275  1.1194 -2.1365
  143OSM   H11G15751   2.514   6.270   7.549  0.5761 -2.5043  2.2504
  143OSM   C12F15752   2.407   6.172   7.702  0.3109  0.5548 -0.9312
  143OSM   H12F15753   2.402   6.070   7.659 -0.9147  0.2621 -0.1506
  143OSM   H12G15754   2.310   6.191   7.754  1.1646 -2.3186  2.0370
  143OSM   C13F15755   2.511   6.196   7.810 -0.5461 -0.1268 -0.6746
  143OSM   H13F15756   2.606   6.226   7.760 -0.8942  1.0739 -0.6638
  143OSM   H13G15757   2.529   6.111   7.878  0.3250 -0.7543 -1.6668
  143OSM   C14F15758   2.477   6.316   7.904 -0.3660  0.5052 -0.3499
  143OSM   H14F15759   2.370   6.316   7.932 -0.1772  0.1919  0.3953
  143OSM   H14G15760   2.481   6.406   7.839  1.2006  1.0764  0.4798
  143OSM   C15F15761   2.566   6.321   8.033 -0.1818 -0.1841 -0.1260
  143OSM   H15F15762   2.674   6.310   8.009 -0.6532 -0.6308 -2.2541
  143OSM   H15G15763   2.539   6.241   8.106 -0.2228 -0.5174 -0.5026
  143OSM   C16F15764   2.537   6.453   8.114  0.0847 -0.2883  0.1455
  143OSM   H16F15765   2.578   6.429   8.215 -1.8424  0.2317  1.1106
  143OSM   H16G15766   2.426   6.456   8.116 -0.0135 -0.2932 -2.2617
  143OSM   C17F15767   2.599   6.578   8.062 -0.8112  0.8603  0.9300
  143OSM   H17F15768   2.538   6.604   7.973  0.0061 -2.0748 -0.6417
  143OSM   H17G15769   2.700   6.556   8.021 -1.8445  0.5433 -1.6363
  143OSM   C18F15770   2.602   6.704   8.142 -0.6301 -0.3120 -0.2833
  143OSM   H18F15771   2.624   6.795   8.082  0.2051 -0.6056 -0.4341
  143OSM   H18G15772   2.687   6.692   8.212 -1.5692 -4.2564  0.4280
  143OSM   H18H15773   2.513   6.709   8.208  0.4528  0.1157  1.1882
  144OSM      N15774   2.092   1.094   5.957  0.4107 -0.2262  0.4731
  144OSM    C1515775   2.077   1.126   5.814 -0.3410  0.2983  0.7438
  144OSM   H15A15776   2.046   1.229   5.806  2.1725  1.1774  1.2451
  144OSM   H15B15777   2.010   1.059   5.763  0.0627 -1.0845  1.9574
  144OSM   H15C15778   2.169   1.104   5.762 -1.9838 -0.2913 -2.0758
  144OSM    C1415779   2.220   1.152   6.001 -0.2570  0.4357 -0.2553
  144OSM   H14A15780   2.309   1.105   5.962 -0.1119 -0.3600  0.9674
  144OSM   H14B15781   2.227   1.152   6.109  0.3548  1.5743 -0.2875
  144OSM   H14C15782   2.230   1.255   5.971  2.5790  0.5645  0.7854
  144OSM    C1315783   1.991   1.171   6.032  0.4274  0.0931 -0.3603
  144OSM   H13A15784   1.888   1.151   6.005  0.2079 -0.2813  0.6987
  144OSM   H13B15785   1.995   1.277   6.009 -0.7925  0.2081 -0.1055
  144OSM   H13C15786   1.995   1.158   6.139 -3.5940 -0.6538 -0.1615
  144OSM    C1215787   2.080   0.944   5.998  0.3764 -0.0689  0.5073
  144OSM   H12A15788   2.141   0.879   5.937 -1.4258 -1.0552 -0.3204
  144OSM   H12B15789   1.982   0.912   5.967  2.1633 -2.9026 -3.0781
  144OSM    C1115790   2.100   0.909   6.147 -0.1060  0.2861 -0.9274
  144OSM   H11A15791   2.207   0.932   6.166 -0.4201  3.6653 -2.4617
  144OSM   H11B15792   2.093   0.801   6.173 -2.1172  1.2091  3.0891
  144OSM      P15793   1.888   0.962   6.289 -0.1019 -0.1731  0.0084
  144OSM    O1315794   1.833   1.077   6.367 -0.2585 -0.4111 -0.5540
  144OSM    O1415795   1.808   0.929   6.168 -0.2075  0.1924  0.3364
  144OSM    O1115796   1.888   0.843   6.388  0.6196 -0.1603 -0.0024
  144OSM    O1215797   2.036   0.986   6.251 -0.0110 -0.2719  0.2256
  144OSM    C1S15798   1.988   0.823   6.487  0.1551 -0.0721 -0.7382
  144OSM    H1S15799   2.058   0.908   6.480 -1.3516  1.2041 -0.7307
  144OSM    H1T15800   2.046   0.730   6.468  1.4986  0.3106  1.1766
  144OSM     NF15801   2.045   0.794   6.725  0.1178 -0.4265  0.3976
  144OSM    HNF15802   2.063   0.701   6.757 -2.5504 -1.1684 -0.0033
  144OSM    C2S15803   1.931   0.817   6.635  0.2112 -0.5282  0.2922
  144OSM    H2S15804   1.886   0.915   6.663  0.0452 -1.0465  1.9392
  144OSM    C3S15805   1.817   0.711   6.638 -0.0035  0.0830  0.3050
  144OSM    H3S15806   1.862   0.612   6.615 -0.4281  0.0044 -0.2282
  144OSM     O315807   1.706   0.729   6.541 -0.1167  0.2342 -0.0587
  144OSM    HO315808   1.740   0.794   6.480  2.0399  1.2084  2.0077
  144OSM    C4S15809   1.767   0.689   6.784  0.4923 -0.1268  0.5303
  144OSM    H4S15810   1.802   0.609   6.851 -0.0293  0.5620  1.6493
  144OSM    C5S15811   1.677   0.779   6.840  0.2156  0.0864  0.3990
  144OSM    H5S15812   1.645   0.861   6.774  1.1710 -1.3007 -1.9087
  144OSM    C6S15813   1.620   0.766   6.977  0.2270 -0.7851  0.2878
  144OSM    H6S15814   1.544   0.845   6.995  0.1178 -0.6802 -0.5754
  144OSM    H6T15815   1.700   0.793   7.048  1.0022  1.2371 -1.2287
  144OSM    C7S15816   1.550   0.633   7.011  0.7578 -0.3791  0.5397
  144OSM    H7S15817   1.623   0.549   7.012 -1.1043 -2.0835 -0.5411
  144OSM    H7T15818   1.468   0.594   6.947  0.9696 -0.0652  0.0723
  144OSM    C8S15819   1.500   0.635   7.154  0.1642  0.1692 -0.4555
  144OSM    H8S15820   1.593   0.632   7.214  0.2767 -3.2206 -0.6056
  144OSM    H8T15821   1.467   0.538   7.196  0.9584  0.6915  1.4561
  144OSM    C9S15822   1.401   0.741   7.205  0.3485 -0.5630 -0.2910
  144OSM    H9S15823   1.301   0.711   7.167 -0.4671  0.1133  1.2600
  144OSM    H9T15824   1.419   0.839   7.156 -2.4520 -0.3213 -0.9919
  144OSM   C10S15825   1.405   0.754   7.357  0.6104 -0.2063 -0.5525
  144OSM   H10S15826   1.499   0.809   7.378  0.8967 -0.2457 -1.6491
  144OSM   H10T15827   1.418   0.652   7.399 -0.0423  0.5810  1.6732
  144OSM   C11S15828   1.286   0.833   7.422  0.6650 -0.1575  0.3443
  144OSM   H11S15829   1.188   0.781   7.419  0.7049 -0.1984 -1.6635
  144OSM   H11T15830   1.274   0.926   7.363 -1.5362  0.0411  1.0346
  144OSM   C12S15831   1.323   0.886   7.559 -0.7314  0.5192 -0.2633
  144OSM   H12S15832   1.236   0.939   7.604 -1.4993  1.5535 -2.7882
  144OSM   H12T15833   1.393   0.971   7.543 -0.1157  0.0014 -0.3328
  144OSM   C13S15834   1.394   0.780   7.652  0.3198  0.1321  0.0779
  144OSM   H13S15835   1.485   0.734   7.608  1.4836  2.6852 -0.3764
  144OSM   H13T15836   1.313   0.708   7.677 -1.4044  1.7544 -0.5821
  144OSM   C14S15837   1.432   0.850   7.782 -0.6671 -0.3463 -0.4600
  144OSM   H14S15838   1.347   0.904   7.829 -0.4988  0.1885 -0.7527
  144OSM   H14T15839   1.517   0.922   7.783 -0.4212 -0.6134  1.4539
  144OSM   C15S15840   1.478   0.751   7.886 -0.5156 -1.0153 -0.1337
  144OSM   H15S15841   1.567   0.692   7.857  1.2318  0.1733  2.4327
  144OSM   H15T15842   1.401   0.677   7.915  1.2812 -1.9377  2.6715
  144OSM   C16S15843   1.531   0.823   8.015  1.2090 -1.4148 -0.5824
  144OSM   H16S15844   1.593   0.907   7.978 -0.9594  0.1508 -0.8213
  144OSM   H16T15845   1.597   0.749   8.066 -0.3408 -0.8298  2.5176
  144OSM   C17S15846   1.416   0.852   8.111  0.3309 -0.0509 -1.0540
  144OSM   H17S15847   1.385   0.755   8.154 -1.3646  0.7764 -0.3081
  144OSM   H17T15848   1.336   0.899   8.051  0.6186  0.2556 -1.2030
  144OSM   C18S15849   1.458   0.942   8.229  0.2508 -0.2430  0.4076
  144OSM   H18S15850   1.383   0.941   8.311  0.2563 -2.1363  0.4273
  144OSM   H18T15851   1.460   1.047   8.193  0.0010 -0.4041 -0.0959
  144OSM   H18U15852   1.557   0.919   8.273  0.3909  0.8368  0.6834
  144OSM    C1F15853   2.124   0.891   6.760 -0.0032 -1.1078  0.0608
  144OSM     OF15854   2.125   1.004   6.704  0.6382  0.1463 -0.4000
  144OSM    C2F15855   2.221   0.858   6.869  0.1988  0.4550 -0.5443
  144OSM    H2F15856   2.326   0.846   6.836  0.1185 -1.9461 -0.1157
  144OSM    H2G15857   2.197   0.753   6.895 -3.3683  1.2950  0.1001
  144OSM    C3F15858   2.201   0.950   6.995 -0.3910  0.2206 -0.6785
  144OSM    H3F15859   2.096   0.945   7.031 -0.3889  0.1073 -0.6886
  144OSM    H3G15860   2.232   1.055   6.975 -0.1303  0.4279  0.7023
  144OSM    C4F15861   2.280   0.885   7.111 -0.9286 -0.1562 -0.4237
  144OSM    H4F15862   2.390   0.873   7.096 -0.7298  0.1763  0.6917
  144OSM    H4G15863   2.235   0.785   7.128 -0.2921 -0.7394 -1.9710
  144OSM    C5F15864   2.254   0.972   7.247 -1.0918  0.3949 -0.2319
  144OSM    H5F15865   2.144   0.978   7.260 -1.3313 -0.8961 -1.4581
  144OSM    H5G15866   2.303   1.068   7.221 -0.6071  0.3050  0.3137
  144OSM    C6F15867   2.311   0.908   7.379  0.0036  0.3453  0.4913
  144OSM    H6F15868   2.421   0.920   7.385  0.1363 -1.2637  3.1059
  144OSM    H6G15869   2.305   0.797   7.373  1.6996  0.3141 -1.5319
  144OSM    C7F15870   2.240   0.956   7.503  0.1313 -0.2854  0.5749
  144OSM    H7F15871   2.133   0.929   7.491 -0.1001  0.9856 -0.4252
  144OSM    H7G15872   2.243   1.067   7.497  0.0965 -0.1611  2.3932
  144OSM    C8F15873   2.298   0.916   7.639  0.5084 -0.9341  0.1631
  144OSM    H8F15874   2.406   0.921   7.616  0.1446  2.0025 -1.3468
  144OSM    H8G15875   2.264   0.811   7.655  0.6931 -1.5874 -3.0909
  144OSM    C9F15876   2.260   0.993   7.760  0.5464  0.0989 -0.2539
  144OSM    H9F15877   2.193   0.945   7.833 -0.8982  1.2218 -0.7830
  144OSM   C10F15878   2.299   1.118   7.779  0.0035  0.1294  0.1796
  144OSM   H10F15879   2.258   1.164   7.870 -0.5056 -0.3368  0.1877
  144OSM   C11F15880   2.392   1.197   7.691 -0.6491  0.5214  0.3158
  144OSM   H11F15881   2.438   1.135   7.611 -1.0210  0.0439  0.4647
  144OSM   H11G15882   2.478   1.236   7.749 -0.3212 -0.5398  0.5553
  144OSM   C12F15883   2.312   1.307   7.618  0.3633 -0.1013  0.0102
  144OSM   H12F15884   2.277   1.387   7.687 -2.3213 -0.0781 -1.2774
  144OSM   H12G15885   2.233   1.248   7.568  0.6503 -2.6610  2.2971
  144OSM   C13F15886   2.396   1.388   7.523 -0.0397  0.1511  0.2012
  144OSM   H13F15887   2.491   1.413   7.575 -0.4901  2.2156  0.1272
  144OSM   H13G15888   2.331   1.472   7.489 -0.8048 -0.5078 -0.0063
  144OSM   C14F15889   2.405   1.315   7.387  0.4280  0.1372 -0.1825
  144OSM   H14F15890   2.307   1.309   7.337 -0.1109  0.0511  0.8563
  144OSM   H14G15891   2.446   1.212   7.400  5.1243  2.0547  2.8000
  144OSM   C15F15892   2.487   1.398   7.284 -0.1234  0.3669  0.2550
  144OSM   H15F15893   2.591   1.407   7.320  0.1736  0.8205 -0.6977
  144OSM   H15G15894   2.444   1.500   7.276 -2.1496 -0.2771  1.7641
  144OSM   C16F15895   2.486   1.335   7.140  1.0157 -0.6255 -0.1198
  144OSM   H16F15896   2.522   1.230   7.129  1.3438 -0.3856 -1.5013
  144OSM   H16G15897   2.547   1.398   7.072  2.1679  0.8767  2.1656
  144OSM   C17F15898   2.342   1.343   7.077  0.7004 -0.0912  0.1724
  144OSM   H17F15899   2.303   1.446   7.093 -0.2477 -0.2448 -1.0136
  144OSM   H17G15900   2.263   1.281   7.124 -0.2785 -0.7306 -2.1837
  144OSM   C18F15901   2.347   1.307   6.934  0.9506 -0.0027  0.8278
  144OSM   H18F15902   2.394   1.207   6.932 -1.2398 -1.0671 -0.9365
  144OSM   H18G15903   2.411   1.372   6.870  1.1229 -1.4923 -0.5661
  144OSM   H18H15904   2.243   1.296   6.897  1.0953 -4.7256  1.3190
  145SAPE     N15905   1.755   1.189  10.728  0.1380 -0.0083  0.0627
  145SAPE   HN115906   1.792   1.092  10.732  0.4569  0.0361 -1.2936
  145SAPE   HN215907   1.830   1.256  10.756  0.8220  0.0365 -1.7323
  145SAPE   HN315908   1.672   1.208  10.788 -0.5280 -1.6870 -0.2691
  145SAPE   C1215909   1.723   1.219  10.584 -0.8736 -0.0184 -0.0793
  145SAPE  H12A15910   1.751   1.326  10.568  1.9583 -0.6642  0.0582
  145SAPE  H12B15911   1.613   1.206  10.576 -1.1258  2.0515 -0.7449
  145SAPE   C1115912   1.798   1.134  10.479 -0.6016 -0.2473 -0.5142
  145SAPE  H11A15913   1.761   1.173  10.382  0.7564  0.9959 -0.5563
  145SAPE  H11B15914   1.765   1.033  10.513  1.1682 -1.1650 -1.4183
  145SAPE     P15915   2.024   1.028  10.431  0.4781 -0.5209 -0.3812
  145SAPE   O1315916   2.170   1.061  10.445  0.2520 -0.1662  0.1755
  145SAPE   O1415917   1.975   0.899  10.487  0.1969 -0.0100 -0.2036
  145SAPE   O1215918   1.944   1.153  10.487  0.4649 -0.5933  0.0235
  145SAPE   O1115919   1.992   1.025  10.280  0.0716 -0.1749  0.1717
  145SAPE    C115920   2.001   1.140  10.194 -0.0767 -0.3708  0.3771
  145SAPE    HA15921   1.987   1.235  10.250  1.5358  0.4569 -0.5472
  145SAPE    HB15922   2.103   1.130  10.150  0.5307 -0.1996  1.6866
  145SAPE    C215923   1.894   1.154  10.078  0.1542  0.4915  0.2184
  145SAPE    HS15924   1.793   1.165  10.123  0.9692 -0.0818  2.3624
  145SAPE   O2115925   1.893   1.035   9.989 -0.1275 -0.0900  0.2062
  145SAPE   C2115926   1.820   0.929  10.037  0.0637  0.3001  0.3299
  145SAPE   O2215927   1.744   0.932  10.131  0.2647 -0.0162 -0.4995
  145SAPE   C2215928   1.822   0.816   9.929 -0.5362  0.3281 -0.3374
  145SAPE   H2R15929   1.843   0.867   9.833 -0.5091 -0.2460 -0.6407
  145SAPE   H2S15930   1.906   0.746   9.949 -1.6037 -1.0115 -0.3862
  145SAPE    C315931   1.921   1.279   9.995  1.1997  0.3988  1.0353
  145SAPE    HX15932   1.925   1.370  10.060 -0.4660  1.0023  0.3449
  145SAPE    HY15933   1.840   1.296   9.921  1.3427  0.7148  0.9450
  145SAPE   O3115934   2.055   1.267   9.938  0.4149 -0.3505  0.4722
  145SAPE   C3115935   2.069   1.266   9.808 -0.2146 -0.3333  0.6180
  145SAPE   O3215936   1.979   1.263   9.722  0.0967 -0.1773 -0.5659
  145SAPE   C3215937   2.218   1.251   9.783 -0.5608 -0.7820  0.8284
  145SAPE   H2X15938   2.248   1.152   9.822  0.2463 -0.8821 -0.0132
  145SAPE   H2Y15939   2.271   1.333   9.837  0.5854 -0.2598 -0.9643
  145SAPE   C2315940   1.700   0.726   9.924 -0.2950  0.4570 -0.6866
  145SAPE   H3R15941   1.650   0.720  10.023 -1.3650  2.4695 -1.0690
  145SAPE   H3S15942   1.737   0.623   9.903 -0.4857  0.7849 -2.8808
  145SAPE   C2415943   1.593   0.768   9.815  0.0663  0.9349 -0.2698
  145SAPE   H4R15944   1.553   0.868   9.842 -0.2057  0.9897 -0.8675
  145SAPE   H4S15945   1.507   0.700   9.831  0.5849  0.5910  1.2419
  145SAPE   C2515946   1.660   0.774   9.679 -0.8334  0.3382  0.2870
  145SAPE   H5R15947   1.699   0.679   9.641 -0.0116  1.0541 -0.7005
  145SAPE   C2615948   1.670   0.879   9.594  0.2207  0.8380 -0.1538
  145SAPE   H6R15949   1.713   0.868   9.494 -2.4796 -0.1651 -1.3025
  145SAPE   C2715950   1.618   1.022   9.626 -0.1602  0.0835 -0.8686
  145SAPE   H7R15951   1.628   1.054   9.732 -1.9887  0.4726 -0.7838
  145SAPE   H7S15952   1.507   1.025   9.623 -0.3177 -0.7772  1.7289
  145SAPE   C2815953   1.671   1.122   9.528 -0.3195 -0.4728  0.4584
  145SAPE   H8R15954   1.777   1.153   9.536  0.5538 -3.2313  0.5854
  145SAPE   C2915955   1.603   1.162   9.418  0.5591  0.5064 -0.5454
  145SAPE   H9R15956   1.635   1.231   9.339 -0.8222 -1.9717 -3.4892
  145SAPE  C21015957   1.459   1.113   9.399 -0.1722 -0.3835 -0.6887
  145SAPE  H10R15958   1.391   1.183   9.453 -0.4707  0.5751 -2.2136
  145SAPE  H10S15959   1.445   1.008   9.433 -0.1747  0.2180  1.2589
  145SAPE  C21115960   1.423   1.123   9.255 -0.3977  0.1958  0.2471
  145SAPE  H11R15961   1.475   1.047   9.196  1.6814  0.9028  1.0964
  145SAPE  C21215962   1.341   1.212   9.198 -0.3991  0.3287  0.5598
  145SAPE  H12R15963   1.316   1.200   9.091  1.8447 -1.2068  0.1364
  145SAPE  C21315964   1.272   1.330   9.272 -0.0203  0.9757  0.9492
  145SAPE  H13R15965   1.285   1.333   9.383 -1.8116  2.3567  1.1658
  145SAPE  H13S15966   1.162   1.320   9.258 -0.2999  3.6605  0.7589
  145SAPE  C21415967   1.321   1.463   9.218  0.0925 -0.0098  0.1733
  145SAPE  H14R15968   1.384   1.515   9.292 -1.2446  1.3344  0.4006
  145SAPE  C21515969   1.307   1.524   9.101 -0.3784  0.2121  0.0681
  145SAPE  H15R15970   1.343   1.625   9.075 -0.3238  0.4456  1.0191
  145SAPE  C21615971   1.232   1.466   8.983  0.4979 -0.0025  0.7496
  145SAPE  H16R15972   1.204   1.360   9.001  0.5974 -0.7155 -2.6278
  145SAPE  H16S15973   1.294   1.465   8.891  0.2126  0.6167  0.5452
  145SAPE  C21715974   1.095   1.526   8.957  0.0214 -0.2120 -0.2238
  145SAPE  H17R15975   1.043   1.521   9.055  2.3562 -0.0054  1.0963
  145SAPE  H17S15976   1.027   1.471   8.888  0.5925 -0.2829 -0.7332
  145SAPE  C21815977   1.103   1.670   8.896  0.3545  0.0208 -0.6190
  145SAPE  H18R15978   1.152   1.656   8.797  0.0981  1.3602 -0.9517
  145SAPE  H18S15979   1.166   1.732   8.963 -1.3232 -0.3934  1.4467
  145SAPE  C21915980   0.964   1.725   8.874 -0.4881  0.0947  0.5350
  145SAPE  H19R15981   0.899   1.721   8.964 -1.4243  0.8121 -0.0907
  145SAPE  H19S15982   0.912   1.664   8.796  1.0049 -1.0562  0.3932
  145SAPE  C22015983   0.957   1.872   8.835 -0.4321 -0.6754  0.3120
  145SAPE  H20R15984   0.856   1.904   8.801 -1.1728 -2.4423  0.7077
  145SAPE  H20S15985   1.025   1.878   8.748  0.4551  2.3912  1.1023
  145SAPE  H20T15986   0.989   1.947   8.911 -1.2509  1.5010 -1.3749
  145SAPE   C3315987   2.266   1.250   9.631  0.5161 -1.0970 -0.2784
  145SAPE   H3X15988   2.203   1.173   9.582  0.3611 -2.4030  1.8464
  145SAPE   H3Y15989   2.372   1.214   9.634  0.7186 -0.4317  1.4597
  145SAPE   C3415990   2.262   1.387   9.564 -0.1556  0.3126 -0.1262
  145SAPE   H4X15991   2.315   1.463   9.624 -1.1672  0.3559  0.7379
  145SAPE   H4Y15992   2.159   1.428   9.556  0.0251  1.1931  1.5830
  145SAPE   C3515993   2.328   1.387   9.415  0.4204  0.3357  0.3337
  145SAPE   H5X15994   2.269   1.313   9.358 -0.7986  1.9245 -0.5575
  145SAPE   H5Y15995   2.437   1.364   9.417  0.3613 -0.2222 -1.6002
  145SAPE   C3615996   2.331   1.519   9.344 -0.0398 -0.6426 -0.0235
  145SAPE   H6X15997   2.403   1.595   9.381 -2.7733  1.8051  0.6532
  145SAPE   H6Y15998   2.234   1.568   9.370  1.9990  2.5283  2.3159
  145SAPE   C3715999   2.348   1.502   9.189 -0.3028  0.4738 -0.1051
  145SAPE   H7X16000   2.445   1.451   9.171 -1.2885 -1.3356 -0.5090
  145SAPE   H7Y16001   2.360   1.603   9.143  1.8738 -1.0890 -3.3372
  145SAPE   C3816002   2.242   1.429   9.115 -0.1160  0.7060 -0.0030
  145SAPE   H8X16003   2.183   1.369   9.188  2.0308 -0.5650  0.7781
  145SAPE   H8Y16004   2.286   1.357   9.043 -2.5126 -0.8654  0.0136
  145SAPE   C3916005   2.155   1.531   9.041  0.6630  0.0742 -0.1960
  145SAPE   H9X16006   2.226   1.597   8.987  4.0450 -1.4074  2.0977
  145SAPE   H9Y16007   2.100   1.602   9.107  0.5794  0.0006 -0.1878
  145SAPE  C31016008   2.052   1.474   8.938  0.5431 -0.1025  0.0151
  145SAPE  H10X16009   1.954   1.441   8.979 -1.0309  1.3154 -2.3332
  145SAPE  H10Y16010   2.103   1.388   8.891  2.2878  2.0797 -2.3339
  145SAPE  C31116011   2.025   1.566   8.818  0.2756  0.2097  0.3080
  145SAPE  H11X16012   2.121   1.587   8.766  0.5810  0.7256  1.0601
  145SAPE  H11Y16013   1.988   1.664   8.856  0.7679  0.8000 -0.6967
  145SAPE  C31216014   1.923   1.497   8.717  0.1337 -1.1711  0.0624
  145SAPE  H12X16015   1.829   1.476   8.772 -0.2924  0.3021 -0.0451
  145SAPE  H12Y16016   1.962   1.405   8.671 -1.6856 -3.0234  1.9835
  145SAPE  C31316017   1.879   1.601   8.612  0.0771  0.2292  0.7541
  145SAPE  H13X16018   1.954   1.610   8.531 -1.8802  0.2265 -1.1306
  145SAPE  H13Y16019   1.875   1.693   8.675  3.3715  0.2626  1.1393
  145SAPE  C31416020   1.733   1.585   8.556 -0.0333 -0.6598 -0.0602
  145SAPE  H14X16021   1.662   1.614   8.636 -0.4850  0.8004 -0.9584
  145SAPE  H14Y16022   1.708   1.483   8.519  1.1507 -0.6752 -0.8810
  145SAPE  C31516023   1.716   1.681   8.435  0.1520  0.4459 -0.1530
  145SAPE  H15X16024   1.813   1.688   8.381  0.5078  2.8424  0.6932
  145SAPE  H15Y16025   1.711   1.784   8.476  1.9206  1.5186 -2.4348
  145SAPE  C31616026   1.600   1.649   8.342  0.5410 -0.1041  0.0433
  145SAPE  H16X16027   1.509   1.700   8.381  0.1907 -0.9254  0.3237
  145SAPE  H16Y16028   1.579   1.540   8.329  0.7864  0.1006 -2.6070
  145SAPE  C31716029   1.632   1.693   8.197 -0.2456  0.1167 -0.2453
  145SAPE  H17X16030   1.727   1.642   8.171 -1.6539 -1.8517 -1.9154
  145SAPE  H17Y16031   1.629   1.804   8.196 -0.3691  0.1301  1.0361
  145SAPE  C31816032   1.532   1.638   8.088  0.4806  0.6316 -0.3208
  145SAPE  H18X16033   1.563   1.681   7.990  0.2783 -0.2603 -0.7933
  145SAPE  H18Y16034   1.427   1.669   8.108  0.3669 -0.2604  0.5495
  145SAPE  H18Z16035   1.538   1.527   8.083  0.3918  0.6569 -1.3296
  146SAPE     N16036   1.064   3.661  10.457 -0.0812 -0.4100  0.0135
  146SAPE   HN116037   1.140   3.732  10.461  0.9959 -1.5662  1.1729
  146SAPE   HN216038   0.974   3.709  10.475 -0.9658 -0.6004 -3.1818
  146SAPE   HN316039   1.074   3.587  10.529 -0.2294 -3.6006 -2.9687
  146SAPE   C1216040   1.084   3.574  10.342 -0.3450  0.0515 -0.2769
  146SAPE  H12A16041   1.047   3.625  10.250 -1.9764  0.7485  0.7226
  146SAPE  H12B16042   1.015   3.488  10.357  1.2623 -1.1299  0.7387
  146SAPE   C1116043   1.227   3.514  10.326  0.3415 -0.2921 -0.1425
  146SAPE  H11A16044   1.287   3.605  10.303 -0.1295  0.0899  0.0966
  146SAPE  H11B16045   1.238   3.439  10.245 -1.7383  0.2252 -0.9759
  146SAPE     P16046   1.263   3.323  10.504 -0.3653  0.5806 -0.1245
  146SAPE   O1316047   1.378   3.245  10.451 -0.0436  0.0530  0.3416
  146SAPE   O1416048   1.265   3.337  10.651  0.1920 -0.1119 -0.1235
  146SAPE   O1216049   1.280   3.470  10.450  0.4911 -0.4040  0.1332
  146SAPE   O1116050   1.123   3.273  10.450 -0.7909 -0.2347  0.2911
  146SAPE    C116051   1.078   3.139  10.458 -0.9716  0.1953 -1.2173
  146SAPE    HA16052   1.159   3.068  10.486 -0.9141 -0.3215 -2.6294
  146SAPE    HB16053   0.991   3.122  10.526 -0.9037  2.2055 -0.5673
  146SAPE    C216054   1.009   3.101  10.323  0.5685 -1.1195  0.2183
  146SAPE    HS16055   0.973   2.996  10.321  1.1416 -1.3105 -0.2850
  146SAPE   O2116056   1.102   3.117  10.214  1.1789  0.4228 -0.5901
  146SAPE   C2116057   1.185   3.016  10.201  0.0157 -0.7583  0.7997
  146SAPE   O2216058   1.183   2.918  10.275  0.7136  0.0889 -0.0855
  146SAPE   C2216059   1.291   3.060  10.098 -0.2965 -0.3322 -0.0321
  146SAPE   H2R16060   1.301   3.170  10.103  1.2349 -0.2801 -2.5410
  146SAPE   H2S16061   1.386   3.020  10.138  1.0436  2.0267 -0.7268
  146SAPE    C316062   0.876   3.201  10.300 -0.0621 -0.0901 -0.2060
  146SAPE    HX16063   0.902   3.308  10.315 -0.3128  0.5575 -3.6574
  146SAPE    HY16064   0.806   3.168  10.380 -1.4379 -0.6412 -1.6032
  146SAPE   O3116065   0.822   3.166  10.168 -0.0720 -0.2237  0.0785
  146SAPE   C3116066   0.843   3.251  10.076  0.2759  0.0783 -0.6215
  146SAPE   O3216067   0.894   3.360  10.097 -0.0691 -0.4700 -0.5061
  146SAPE   C3216068   0.799   3.199   9.943 -0.5045 -0.1736  0.4664
  146SAPE   H2X16069   0.701   3.241   9.911  0.4253  0.0486 -2.3670
  146SAPE   H2Y16070   0.778   3.090   9.946 -0.0949 -0.2654  0.1515
  146SAPE   C2316071   1.274   2.994   9.953  0.3565 -0.1020 -0.7962
  146SAPE   H3R16072   1.185   3.022   9.892  1.2772  0.5917 -1.8529
  146SAPE   H3S16073   1.272   2.886   9.980  0.7647  0.2988  0.9535
  146SAPE   C2416074   1.403   3.014   9.868 -0.6698 -0.0023 -0.2584
  146SAPE   H4R16075   1.416   2.928   9.799 -1.4654 -0.7539  0.5018
  146SAPE   H4S16076   1.490   3.003   9.936  1.0205 -0.9946 -2.4553
  146SAPE   C2516077   1.403   3.154   9.803  0.4832  0.4322 -0.0452
  146SAPE   H5R16078   1.441   3.241   9.859 -2.3385  1.7342  0.0126
  146SAPE   C2616079   1.363   3.173   9.676 -0.0262 -0.2283  0.4000
  146SAPE   H6R16080   1.362   3.272   9.630  1.3370  0.5165  1.8696
  146SAPE   C2716081   1.325   3.056   9.581  0.0894 -0.5382  0.1644
  146SAPE   H7R16082   1.230   3.097   9.540  1.0078 -0.3413 -1.9248
  146SAPE   H7S16083   1.299   2.958   9.626 -1.6408 -0.8285 -1.3558
  146SAPE   C2816084   1.431   3.041   9.469  0.1457 -0.0454  0.6569
  146SAPE   H8R16085   1.534   3.045   9.506  0.7085 -0.6456 -0.8032
  146SAPE   C2916086   1.419   3.042   9.332  0.5443 -0.6679  0.2773
  146SAPE   H9R16087   1.506   3.025   9.267 -0.4869 -0.1372 -1.2847
  146SAPE  C21016088   1.284   3.063   9.262 -0.0500  0.2557 -0.1719
  146SAPE  H10R16089   1.194   3.063   9.326 -1.6329  1.2070 -2.2689
  146SAPE  H10S16090   1.270   2.968   9.207 -2.3253  0.6135 -0.3168
  146SAPE  C21116091   1.275   3.171   9.156  0.0835 -0.1524 -0.3603
  146SAPE  H11R16092   1.262   3.274   9.190  0.0091  0.3847 -1.9314
  146SAPE  C21216093   1.279   3.145   9.020  0.0480  0.7866  0.7069
  146SAPE  H12R16094   1.263   3.230   8.953 -0.7796 -0.2106 -0.3966
  146SAPE  C21316095   1.311   3.018   8.944  0.9970 -0.1971  0.6985
  146SAPE  H13R16096   1.222   3.016   8.878 -0.1217 -1.1647  2.1753
  146SAPE  H13S16097   1.310   2.926   9.005  0.9676  0.6624  2.0374
  146SAPE  C21416098   1.445   3.026   8.865 -0.2810 -0.2447 -0.6495
  146SAPE  H14R16099   1.530   3.059   8.925 -0.5169  2.7792 -1.8118
  146SAPE  C21516100   1.465   2.995   8.735 -0.3196 -0.2843  0.4209
  146SAPE  H15R16101   1.564   3.024   8.696  0.2448 -0.2875  1.7710
  146SAPE  C21616102   1.368   2.938   8.635 -0.5148 -0.0379 -1.2018
  146SAPE  H16R16103   1.274   2.908   8.688  1.1396 -0.9385  1.4115
  146SAPE  H16S16104   1.412   2.852   8.582  0.1196 -0.7867  0.4503
  146SAPE  C21716105   1.333   3.049   8.540 -0.2416 -0.3981  0.6231
  146SAPE  H17R16106   1.419   3.114   8.512 -0.1614 -1.1787 -1.0822
  146SAPE  H17S16107   1.243   3.103   8.577 -1.1466  0.2274 -2.2140
  146SAPE  C21816108   1.278   3.003   8.405  0.1501  0.3150  0.3029
  146SAPE  H18R16109   1.190   2.937   8.422 -0.4086  0.1952 -2.5802
  146SAPE  H18S16110   1.357   2.939   8.360 -2.5543 -2.6017 -0.6738
  146SAPE  C21916111   1.233   3.106   8.303 -0.9035 -0.5097 -1.0356
  146SAPE  H19R16112   1.327   3.146   8.260 -0.1270 -1.2994 -0.1077
  146SAPE  H19S16113   1.175   3.190   8.347  0.0376 -0.7330  0.7040
  146SAPE  C22016114   1.157   3.031   8.193  0.0928 -0.2688 -0.6339
  146SAPE  H20R16115   1.079   2.966   8.238 -0.8150  1.0680 -0.2417
  146SAPE  H20S16116   1.231   2.963   8.144 -2.0093 -2.1563 -1.3985
  146SAPE  H20T16117   1.107   3.101   8.124  0.3065 -0.4505 -0.9760
  146SAPE   C3316118   0.914   3.206   9.836  0.5371 -0.2787 -0.2591
  146SAPE   H3X16119   0.998   3.139   9.864 -0.0657 -2.2714 -2.8621
  146SAPE   H3Y16120   0.943   3.313   9.831 -2.2757  0.5224 -1.0320
  146SAPE   C3416121   0.865   3.186   9.698  0.0508  0.3603  0.4401
  146SAPE   H4X16122   0.764   3.232   9.696  0.4733  1.4398  2.0487
  146SAPE   H4Y16123   0.857   3.079   9.669 -2.2227  0.1058  1.7503
  146SAPE   C3516124   0.942   3.271   9.593  0.0909 -0.1169 -0.1931
  146SAPE   H5X16125   1.052   3.257   9.607 -0.3368 -0.6793  3.8244
  146SAPE   H5Y16126   0.928   3.375   9.627  1.1379 -0.0841  0.1824
  146SAPE   C3616127   0.873   3.250   9.455 -0.0867  0.7339 -0.5162
  146SAPE   H6X16128   0.766   3.228   9.473 -0.4821  2.6989 -0.3231
  146SAPE   H6Y16129   0.919   3.154   9.422 -0.4626  0.0699  0.7891
  146SAPE   C3716130   0.893   3.374   9.364  0.2775  1.0102 -0.1283
  146SAPE   H7X16131   1.002   3.391   9.358  0.2797  1.2998  0.5956
  146SAPE   H7Y16132   0.842   3.462   9.411 -0.4959 -0.2678  1.5345
  146SAPE   C3816133   0.835   3.350   9.229 -0.1055 -0.1812  0.9063
  146SAPE   H8X16134   0.808   3.444   9.176 -1.1870 -0.5815  0.7256
  146SAPE   H8Y16135   0.736   3.301   9.236 -0.0159 -1.1720 -2.8659
  146SAPE   C3916136   0.916   3.263   9.135  0.4526 -0.0951  0.0121
  146SAPE   H9X16137   0.954   3.173   9.188  0.4323  0.4124  0.9083
  146SAPE   H9Y16138   1.004   3.317   9.094 -0.1262  0.0961 -1.0123
  146SAPE  C31016139   0.836   3.216   9.008  0.1279 -0.7870 -0.4470
  146SAPE  H10X16140   0.743   3.169   9.045  0.7791  0.6067  3.4790
  146SAPE  H10Y16141   0.894   3.143   8.948 -1.9638  0.4724 -4.3458
  146SAPE  C31116142   0.788   3.329   8.914  0.0160  0.2743 -0.5186
  146SAPE  H11X16143   0.876   3.395   8.898  1.6752 -1.2856  1.5552
  146SAPE  H11Y16144   0.708   3.391   8.959 -1.2238 -1.1553 -0.6778
  146SAPE  C31216145   0.746   3.280   8.773  0.5396  0.2742 -0.4783
  146SAPE  H12X16146   0.703   3.371   8.726  1.8246  2.0570  1.6214
  146SAPE  H12Y16147   0.671   3.198   8.777  1.1908 -0.3047  0.1199
  146SAPE  C31316148   0.864   3.245   8.683 -0.5144  0.3356  0.2051
  146SAPE  H13X16149   0.929   3.181   8.745  0.0250 -1.3344 -1.9392
  146SAPE  H13Y16150   0.923   3.336   8.660 -1.2497  0.8487  0.3234
  146SAPE  C31416151   0.832   3.164   8.553 -0.2095 -0.5252 -1.1074
  146SAPE  H14X16152   0.802   3.059   8.574  0.3043 -0.4047  0.3357
  146SAPE  H14Y16153   0.931   3.152   8.505  1.2385  4.4845  0.0114
  146SAPE  C31516154   0.752   3.247   8.448 -0.2367 -0.4062  0.1187
  146SAPE  H15X16155   0.801   3.344   8.426 -1.2434  0.0915  0.0665
  146SAPE  H15Y16156   0.653   3.267   8.493 -0.9426  1.4235 -2.0890
  146SAPE  C31616157   0.736   3.187   8.307 -0.1882  0.0467 -0.0691
  146SAPE  H16X16158   0.691   3.085   8.304  0.8351 -0.4176 -0.2741
  146SAPE  H16Y16159   0.837   3.167   8.265 -0.6195 -0.8411 -0.7325
  146SAPE  C31716160   0.675   3.276   8.200  0.3052  0.2576  0.3887
  146SAPE  H17X16161   0.699   3.232   8.101 -2.4380 -1.3239  0.3056
  146SAPE  H17Y16162   0.717   3.379   8.202  0.9287  0.0069  0.4328
  146SAPE  C31816163   0.522   3.295   8.218  0.3166 -0.8063 -0.4491
  146SAPE  H18X16164   0.484   3.193   8.241 -0.8795 -0.2980 -0.1040
  146SAPE  H18Y16165   0.486   3.334   8.120 -0.5428  2.2050  0.9522
  146SAPE  H18Z16166   0.500   3.363   8.303 -1.2176 -1.3777 -0.3587
  147SAPE     N16167   1.575   5.665  11.151  0.1949 -0.0643 -0.1579
  147SAPE   HN116168   1.522   5.665  11.061 -1.7273 -0.2319  0.9080
  147SAPE   HN216169   1.515   5.614  11.219 -0.8517 -1.3843 -1.9531
  147SAPE   HN316170   1.594   5.763  11.178  1.3570  0.2107 -1.8280
  147SAPE   C1216171   1.721   5.620  11.141  0.0602  0.9357  0.4496
  147SAPE  H12A16172   1.717   5.510  11.127 -0.8483  0.9354  0.6334
  147SAPE  H12B16173   1.780   5.647  11.231 -0.8274  1.4277  0.9047
  147SAPE   C1116174   1.781   5.672  11.010  0.9213 -0.4335 -0.6045
  147SAPE  H11A16175   1.729   5.628  10.922  1.2712  2.1866 -2.2591
  147SAPE  H11B16176   1.887   5.642  10.999  0.9308 -1.7163  2.2319
  147SAPE     P16177   1.826   5.893  10.886  0.0269  0.1549  0.5903
  147SAPE   O1316178   1.780   6.034  10.888 -0.3283  0.5224  0.1157
  147SAPE   O1416179   1.976   5.875  10.885 -0.0894  0.6107  0.0862
  147SAPE   O1216180   1.761   5.817  11.012  0.0028  0.3038  0.7078
  147SAPE   O1116181   1.773   5.816  10.756  0.2207 -0.0944 -0.4642
  147SAPE    C116182   1.631   5.804  10.723 -0.4766 -0.2896  0.3352
  147SAPE    HA16183   1.614   5.700  10.688  0.1408 -0.7760  1.4047
  147SAPE    HB16184   1.564   5.794  10.810 -0.7741 -0.6910  0.0639
  147SAPE    C216185   1.582   5.900  10.606  0.2419 -0.0770 -0.8802
  147SAPE    HS16186   1.497   5.845  10.559  0.4385  0.1094 -1.4535
  147SAPE   O2116187   1.689   5.934  10.518 -0.6855  0.9446 -0.4369
  147SAPE   C2116188   1.741   5.839  10.440  0.4729 -0.2025  0.1251
  147SAPE   O2216189   1.710   5.719  10.443  0.3032 -0.6245 -0.2794
  147SAPE   C2216190   1.840   5.906  10.339 -0.4433  0.2487 -0.1013
  147SAPE   H2R16191   1.784   5.995  10.304 -0.3428  0.2799 -0.1810
  147SAPE   H2S16192   1.939   5.926  10.386 -0.2657  0.4096 -0.5461
  147SAPE    C316193   1.532   6.029  10.663  1.2619 -0.1026 -0.6098
  147SAPE    HX16194   1.622   6.078  10.706  1.4466 -0.4187 -0.6355
  147SAPE    HY16195   1.472   6.005  10.753  1.6525  0.8983 -0.0594
  147SAPE   O3116196   1.468   6.127  10.575 -0.3369  0.4177  0.0353
  147SAPE   C3116197   1.341   6.106  10.553 -0.0797 -0.1020  0.3465
  147SAPE   O3216198   1.264   6.014  10.590  0.4799  0.3645  0.2506
  147SAPE   C3216199   1.293   6.233  10.475  0.2302  0.4586 -0.3743
  147SAPE   H2X16200   1.377   6.305  10.475  2.2878 -1.7500  1.6319
  147SAPE   H2Y16201   1.223   6.284  10.545  0.1510  1.0125 -0.8492
  147SAPE   C2316202   1.867   5.814  10.221  0.0275 -0.3593 -0.1817
  147SAPE   H3R16203   1.765   5.802  10.179  0.1654  1.1437 -1.0169
  147SAPE   H3S16204   1.926   5.726  10.255 -2.8264 -2.4041 -0.2027
  147SAPE   C2416205   1.951   5.877  10.112 -0.4419  0.1787  0.2987
  147SAPE   H4R16206   2.053   5.903  10.148  1.2221 -1.7373 -2.5471
  147SAPE   H4S16207   1.912   5.970  10.066  0.1120  0.3321  0.1330
  147SAPE   C2516208   1.974   5.769  10.002  0.9327 -0.3948 -0.6481
  147SAPE   H5R16209   1.967   5.666  10.040  2.5267 -0.7834 -1.3310
  147SAPE   C2616210   2.001   5.793   9.875  0.0149 -0.1125 -0.1375
  147SAPE   H6R16211   2.016   5.708   9.806 -1.9260 -0.3332 -0.3550
  147SAPE   C2716212   2.007   5.928   9.810  0.1722 -0.7159  0.3604
  147SAPE   H7R16213   2.009   6.005   9.891  0.5467  0.2415 -0.5385
  147SAPE   H7S16214   1.913   5.948   9.755 -0.5671 -1.2581  1.3984
  147SAPE   C2816215   2.129   5.942   9.722  0.7059 -0.0264 -0.1257
  147SAPE   H8R16216   2.225   5.963   9.772  0.1537  1.4616  0.3588
  147SAPE   C2916217   2.128   5.919   9.589 -0.5252  0.0082 -0.1579
  147SAPE   H9R16218   2.226   5.906   9.541 -0.4621 -1.7519  0.3832
  147SAPE  C21016219   2.011   5.889   9.495  0.3789  0.9808 -0.5376
  147SAPE  H10R16220   1.914   5.919   9.541 -0.1494 -3.6023  1.9410
  147SAPE  H10S16221   2.016   5.778   9.489 -0.9992  0.8606  0.1830
  147SAPE  C21116222   2.020   5.948   9.360  0.1802 -0.6286 -0.6753
  147SAPE  H11R16223   2.078   6.042   9.352  2.0903 -1.3800  2.5980
  147SAPE  C21216224   1.955   5.909   9.248 -0.3097 -0.9316 -0.0027
  147SAPE  H12R16225   1.973   5.959   9.152  0.3981 -0.2713  0.4607
  147SAPE  C21316226   1.863   5.791   9.240  0.0538 -0.2677  0.6946
  147SAPE  H13R16227   1.779   5.793   9.313 -0.4779 -1.3868  0.1487
  147SAPE  H13S16228   1.916   5.699   9.271  0.0713 -0.9568 -1.2295
  147SAPE  C21416229   1.788   5.767   9.105 -0.6866 -0.4740  0.3743
  147SAPE  H14R16230   1.715   5.847   9.085 -0.2686 -0.3026 -0.5376
  147SAPE  C21516231   1.824   5.678   9.008  0.3778 -0.5911  0.4753
  147SAPE  H15R16232   1.767   5.671   8.914  0.5537  1.0664  0.2066
  147SAPE  C21616233   1.942   5.584   9.013  0.0081  0.9606  0.0176
  147SAPE  H16R16234   1.928   5.521   9.104 -1.7322 -1.6629 -1.9055
  147SAPE  H16S16235   2.034   5.644   9.025  0.0939  0.9179 -0.4334
  147SAPE  C21716236   1.952   5.499   8.886 -0.9662 -0.3753  0.3953
  147SAPE  H17R16237   2.055   5.459   8.880  0.7590  3.7835 -1.2203
  147SAPE  H17S16238   1.949   5.569   8.800  0.7203 -0.4401  0.2564
  147SAPE  C21816239   1.848   5.395   8.881 -1.0219 -0.1679 -0.5134
  147SAPE  H18R16240   1.746   5.438   8.889 -0.8262  0.1554  0.3297
  147SAPE  H18S16241   1.844   5.332   8.972 -2.0143 -0.1020 -0.4992
  147SAPE  C21916242   1.857   5.311   8.751  0.1588 -0.1695 -0.7509
  147SAPE  H19R16243   1.959   5.269   8.738 -0.6502 -3.1230  1.2906
  147SAPE  H19S16244   1.844   5.391   8.675 -0.6783 -0.6071 -1.0796
  147SAPE  C22016245   1.758   5.197   8.727  0.7102  0.3075  0.3536
  147SAPE  H20R16246   1.745   5.134   8.817 -3.2654 -0.5057 -0.5678
  147SAPE  H20S16247   1.793   5.139   8.639  0.5504 -0.8183  1.0076
  147SAPE  H20T16248   1.659   5.244   8.707  1.2567  1.4494  0.2672
  147SAPE   C3316249   1.210   6.206  10.343 -0.5459  0.6404  0.2320
  147SAPE   H3X16250   1.140   6.290  10.323 -1.2583 -0.0142 -0.0338
  147SAPE   H3Y16251   1.142   6.119  10.350 -1.2077  0.9673 -1.5102
  147SAPE   C3416252   1.291   6.176  10.217 -0.5873  0.2416 -0.2114
  147SAPE   H4X16253   1.359   6.262  10.199  0.0181  0.0078  0.8530
  147SAPE   H4Y16254   1.227   6.178  10.127  0.8443  0.3850 -1.2660
  147SAPE   C3516255   1.377   6.056  10.208 -0.1514 -0.0261 -0.5998
  147SAPE   H5X16256   1.321   5.966  10.242  0.1008  0.0077 -0.0871
  147SAPE   H5Y16257   1.461   6.064  10.280  2.4539 -0.3604 -3.3823
  147SAPE   C3616258   1.448   6.016  10.077 -0.7246  0.6970 -0.5901
  147SAPE   H6X16259   1.515   5.930  10.098 -2.7887 -1.2272 -1.4580
  147SAPE   H6Y16260   1.502   6.101  10.030  0.8412 -0.7882 -1.5959
  147SAPE   C3716261   1.341   5.968   9.972  0.3277 -0.6162 -0.3383
  147SAPE   H7X16262   1.269   6.047   9.942  0.7885 -0.1059 -0.1114
  147SAPE   H7Y16263   1.285   5.884  10.018 -0.1544 -0.3639 -0.4644
  147SAPE   C3816264   1.391   5.921   9.832 -0.4808 -0.4759 -0.4837
  147SAPE   H8X16265   1.308   5.880   9.771 -0.2238  1.3227 -2.1759
  147SAPE   H8Y16266   1.465   5.839   9.839  0.0999 -0.2174 -2.7615
  147SAPE   C3916267   1.450   6.032   9.740 -0.6764  1.3022  0.0050
  147SAPE   H9X16268   1.498   6.113   9.800  0.2676 -1.1606  2.8808
  147SAPE   H9Y16269   1.380   6.087   9.674  1.8905 -0.9493 -5.2222
  147SAPE  C31016270   1.555   5.981   9.647 -0.9734  0.9728  0.6675
  147SAPE  H10X16271   1.530   5.904   9.571  2.6126 -0.4413  0.7328
  147SAPE  H10Y16272   1.638   5.935   9.705 -0.4434 -0.2404 -0.9751
  147SAPE  C31116273   1.621   6.102   9.570  0.1323  0.1657 -0.0114
  147SAPE  H11X16274   1.707   6.067   9.510 -0.6866 -0.6033 -0.7618
  147SAPE  H11Y16275   1.648   6.163   9.659  0.2672  0.5762 -0.3339
  147SAPE  C31216276   1.523   6.180   9.476 -0.5229 -1.0778 -0.0180
  147SAPE  H12X16277   1.594   6.236   9.411  1.7080 -0.0535  3.0179
  147SAPE  H12Y16278   1.463   6.247   9.542 -1.3326 -2.0063  0.2043
  147SAPE  C31316279   1.432   6.091   9.393 -0.5070 -0.0964  0.0062
  147SAPE  H13X16280   1.361   6.158   9.339 -0.6261  1.7585  2.3276
  147SAPE  H13Y16281   1.363   6.030   9.455  0.0871  0.6401  1.4153
  147SAPE  C31416282   1.508   5.994   9.302  0.2361 -0.7138 -0.5969
  147SAPE  H14X16283   1.554   5.924   9.376 -1.2637 -0.0684  1.0101
  147SAPE  H14Y16284   1.582   6.047   9.238 -0.5654  1.8561  0.5147
  147SAPE  C31516285   1.410   5.906   9.226 -0.5447 -0.1179  0.0174
  147SAPE  H15X16286   1.308   5.895   9.271 -1.7426 -2.5105 -2.8954
  147SAPE  H15Y16287   1.452   5.803   9.237 -2.9243 -1.4354 -1.9612
  147SAPE  C31616288   1.389   5.937   9.081 -0.2962  0.6743  0.4017
  147SAPE  H16X16289   1.487   5.966   9.036 -0.1876 -0.7305 -0.3431
  147SAPE  H16Y16290   1.326   6.027   9.071 -3.0815 -1.2909 -0.9153
  147SAPE  C31716291   1.341   5.826   8.985 -0.2995  0.0969  0.3539
  147SAPE  H17X16292   1.297   5.870   8.893  2.0303 -1.9946 -1.9244
  147SAPE  H17Y16293   1.265   5.763   9.035  1.7546 -1.6907  1.4290
  147SAPE  C31816294   1.448   5.721   8.938 -0.5471 -0.3305  0.3664
  147SAPE  H18X16295   1.403   5.637   8.880 -1.0633  0.8189 -0.9517
  147SAPE  H18Y16296   1.497   5.675   9.026  1.0614  2.5259  1.0612
  147SAPE  H18Z16297   1.522   5.773   8.874 -2.0677 -0.8602 -1.9862
  148SAPE     N16298   5.642   1.021  10.579  0.1899  0.4872  0.0374
  148SAPE   HN116299   5.650   0.922  10.551 -1.3200  0.1516  0.7185
  148SAPE   HN216300   5.736   1.065  10.588  0.4558 -0.2901  1.2507
  148SAPE   HN316301   5.594   1.030  10.671 -1.4038 -0.1559 -0.6998
  148SAPE   C1216302   5.557   1.088  10.475 -0.5930  0.2505  0.2035
  148SAPE  H12A16303   5.618   1.068  10.384 -1.5768  0.3586 -0.4878
  148SAPE  H12B16304   5.559   1.199  10.482 -1.6563  0.3427 -0.7303
  148SAPE   C1116305   5.408   1.049  10.469 -0.9392  0.6115  0.2897
  148SAPE  H11A16306   5.396   0.945  10.432  1.5679  0.3335  0.1124
  148SAPE  H11B16307   5.350   1.104  10.391 -1.1279 -1.0702 -0.8038
  148SAPE     P16308   5.218   1.005  10.643  0.2512  0.6231 -0.1410
  148SAPE   O1316309   5.258   0.872  10.701  0.1356 -0.2208  0.1293
  148SAPE   O1416310   5.153   1.102  10.730 -0.2289  0.2587 -0.2919
  148SAPE   O1216311   5.351   1.066  10.592 -0.2707 -0.6319  0.0942
  148SAPE   O1116312   5.152   0.985  10.503 -0.0280  0.1851 -0.4047
  148SAPE    C116313   5.027   1.052  10.485 -0.0295  0.2351 -0.3786
  148SAPE    HA16314   5.023   1.151  10.536 -0.1185  0.0532 -0.0273
  148SAPE    HB16315   5.017   1.070  10.376  0.9666  0.9532 -0.3784
  148SAPE    C216316   4.905   0.963  10.526 -0.3821 -0.2946  0.1191
  148SAPE    HS16317   4.921   0.930  10.631 -0.4498 -1.1916 -0.1459
  148SAPE   O2116318   4.884   0.859  10.428  0.3636 -0.4702 -0.4411
  148SAPE   C2116319   4.935   0.734  10.435  0.1892  0.5845 -0.2794
  148SAPE   O2216320   5.000   0.685  10.523 -0.1449 -0.0479 -0.3106
  148SAPE   C2216321   4.893   0.656  10.311 -0.1498  0.0110  0.2483
  148SAPE   H2R16322   4.807   0.710  10.265 -0.8168  2.3655  3.8425
  148SAPE   H2S16323   4.983   0.667  10.246  0.9563  1.9523  1.9903
  148SAPE    C316324   4.773   1.036  10.529  0.9115  0.3177  0.5767
  148SAPE    HX16325   4.769   1.114  10.608  0.0659  1.1257 -0.2321
  148SAPE    HY16326   4.690   0.971  10.562 -0.1772  1.1573 -0.4060
  148SAPE   O3116327   4.748   1.106  10.399 -0.0839  0.0182  0.3798
  148SAPE   C3116328   4.661   1.047  10.321 -0.4284  0.4691 -0.2224
  148SAPE   O3216329   4.611   0.937  10.347 -0.5000 -0.1407 -0.4546
  148SAPE   C3216330   4.620   1.127  10.201 -0.2088 -0.3838 -0.5843
  148SAPE   H2X16331   4.685   1.087  10.121  2.7271  0.6685  1.1354
  148SAPE   H2Y16332   4.653   1.232  10.220  0.0309 -0.2988 -1.3989
  148SAPE   C2316333   4.857   0.512  10.346 -0.4877  0.0729 -0.3280
  148SAPE   H3R16334   4.761   0.524  10.400  0.0567 -0.3696  0.7777
  148SAPE   H3S16335   4.932   0.480  10.421 -0.0703  1.8284  0.0490
  148SAPE   C2416336   4.844   0.410  10.227  0.4833  0.4614  0.7330
  148SAPE   H4R16337   4.760   0.451  10.167  1.7741  2.5482  0.2357
  148SAPE   H4S16338   4.797   0.320  10.272 -0.7855  0.3216 -0.8034
  148SAPE   C2516339   4.974   0.394  10.149  0.6584 -0.0433 -0.3878
  148SAPE   H5R16340   5.062   0.409  10.214  0.0706  0.0244  0.4199
  148SAPE   C2616341   4.980   0.368  10.020 -0.2400  0.1339 -0.2502
  148SAPE   H6R16342   5.084   0.339   9.999 -0.1378  1.2186 -1.3732
  148SAPE   C2716343   4.875   0.350   9.906  0.4804 -0.4626 -0.6413
  148SAPE   H7R16344   4.771   0.333   9.940  0.9179  0.6762  1.4439
  148SAPE   H7S16345   4.904   0.258   9.852  0.5640 -0.8613  0.0742
  148SAPE   C2816346   4.878   0.471   9.824 -0.1229  0.3946  0.4622
  148SAPE   H8R16347   4.881   0.566   9.881  0.5317 -0.5665  2.0968
  148SAPE   C2916348   4.903   0.486   9.692  0.3762 -0.7019  0.0775
  148SAPE   H9R16349   4.922   0.584   9.645 -0.0048 -1.0834 -0.9072
  148SAPE  C21016350   4.925   0.370   9.595  0.0884  0.1989 -1.1977
  148SAPE  H10R16351   4.834   0.385   9.532 -3.6234  1.4814  3.8223
  148SAPE  H10S16352   4.918   0.271   9.645  0.0938  0.5158 -0.5595
  148SAPE  C21116353   5.059   0.383   9.528  0.7334 -0.6449  0.6510
  148SAPE  H11R16354   5.146   0.386   9.595  2.5316  0.7064 -1.5792
  148SAPE  C21216355   5.092   0.396   9.397 -0.8737 -0.2984 -0.1875
  148SAPE  H12R16356   5.201   0.395   9.378 -0.5324  1.8176  1.2615
  148SAPE  C21316357   4.997   0.396   9.280  0.2550  0.0805  1.1741
  148SAPE  H13R16358   4.975   0.502   9.254 -0.5448 -0.7034 -1.6940
  148SAPE  H13S16359   4.898   0.351   9.305 -1.1394  3.1902  1.7838
  148SAPE  C21416360   5.054   0.339   9.153 -0.0020 -0.4330  0.9311
  148SAPE  H14R16361   5.072   0.230   9.144  3.2158 -0.0636  1.7551
  148SAPE  C21516362   5.098   0.415   9.049  0.3802  0.1987 -0.2690
  148SAPE  H15R16363   5.136   0.362   8.960  2.1436 -0.0072  0.5619
  148SAPE  C21616364   5.099   0.559   9.014 -1.1661 -0.8517 -0.1552
  148SAPE  H16R16365   5.197   0.603   9.045 -1.4451  0.1857 -0.6670
  148SAPE  H16S16366   5.021   0.618   9.067  0.6522 -1.0129  2.9678
  148SAPE  C21716367   5.095   0.589   8.860 -0.2120 -0.2193  0.0253
  148SAPE  H17R16368   5.058   0.693   8.848 -1.2768 -0.4894  0.8291
  148SAPE  H17S16369   5.011   0.530   8.819 -0.4177 -1.0056  1.4901
  148SAPE  C21816370   5.230   0.566   8.790  0.1825  0.4792  0.1495
  148SAPE  H18R16371   5.272   0.463   8.801 -0.0013  0.1761 -1.7022
  148SAPE  H18S16372   5.300   0.647   8.822  0.0246 -0.0607  2.0317
  148SAPE  C21916373   5.215   0.592   8.639 -0.3384 -0.2021  0.0132
  148SAPE  H19R16374   5.117   0.545   8.617 -0.1423 -0.4573 -0.3130
  148SAPE  H19S16375   5.299   0.553   8.578  0.0989 -1.9607  1.6367
  148SAPE  C22016376   5.195   0.736   8.613 -0.4506 -0.3999  0.9498
  148SAPE  H20R16377   5.286   0.795   8.638 -0.2529 -0.5518  0.6031
  148SAPE  H20S16378   5.105   0.780   8.660 -1.1160 -0.5399 -0.1717
  148SAPE  H20T16379   5.175   0.744   8.504  2.2257  1.1275  0.4724
  148SAPE   C3316380   4.470   1.115  10.144  0.1499  0.3750 -0.3528
  148SAPE   H3X16381   4.389   1.154  10.209 -0.9949 -0.4931 -1.2188
  148SAPE   H3Y16382   4.445   1.008  10.131 -2.5535  1.1610 -2.5587
  148SAPE   C3416383   4.455   1.186  10.019 -0.0181  0.2002 -0.0363
  148SAPE   H4X16384   4.478   1.293  10.038  1.9127 -0.4492  1.7126
  148SAPE   H4Y16385   4.354   1.166   9.977  0.1122  1.3116 -0.9145
  148SAPE   C3516386   4.551   1.146   9.903  0.6667  0.5882  0.1733
  148SAPE   H5X16387   4.544   1.036   9.887  2.1602  0.4757  0.1436
  148SAPE   H5Y16388   4.654   1.165   9.939  0.5839 -0.7293  1.1732
  148SAPE   C3616389   4.522   1.221   9.766  0.6059  0.0649 -0.1588
  148SAPE   H6X16390   4.556   1.327   9.768 -1.3748  0.7483  0.5009
  148SAPE   H6Y16391   4.413   1.228   9.745  0.4483  2.7760  1.1024
  148SAPE   C3716392   4.596   1.165   9.647  0.0263  0.2594 -0.0728
  148SAPE   H7X16393   4.564   1.059   9.645  2.1020 -0.4142 -1.9489
  148SAPE   H7Y16394   4.706   1.152   9.661 -0.0211  0.2239  0.2651
  148SAPE   C3816395   4.571   1.243   9.519  0.2114  0.5031  0.8547
  148SAPE   H8X16396   4.618   1.344   9.519 -0.6407  0.9095  0.9488
  148SAPE   H8Y16397   4.462   1.259   9.509 -0.0538 -0.5987  1.8357
  148SAPE   C3916398   4.625   1.173   9.391  0.4020 -0.3952  0.4660
  148SAPE   H9X16399   4.586   1.070   9.374  2.5329 -1.2149  0.1571
  148SAPE   H9Y16400   4.736   1.176   9.389  0.3959  0.3803  0.9006
  148SAPE  C31016401   4.567   1.250   9.268 -0.3025  0.0745 -0.3445
  148SAPE  H10X16402   4.587   1.359   9.269  0.4846 -0.0633 -0.2017
  148SAPE  H10Y16403   4.458   1.230   9.260 -0.3715  0.2678  0.1009
  148SAPE  C31116404   4.618   1.195   9.135  0.7549  0.4656  0.5875
  148SAPE  H11X16405   4.625   1.084   9.146 -2.5633  0.1701  0.6956
  148SAPE  H11Y16406   4.720   1.235   9.118 -0.0468  1.9019 -1.0600
  148SAPE  C31216407   4.539   1.239   9.010  0.4253  0.1501 -0.7627
  148SAPE  H12X16408   4.570   1.337   8.969 -2.4264 -0.7562 -5.8988
  148SAPE  H12Y16409   4.432   1.252   9.035  0.4681 -1.1830  0.2392
  148SAPE  C31316410   4.564   1.141   8.895  0.0138 -0.1066 -0.0125
  148SAPE  H13X16411   4.574   1.045   8.950  1.8090  0.4361  0.6803
  148SAPE  H13Y16412   4.665   1.161   8.851  0.1309 -1.9662 -0.6939
  148SAPE  C31416413   4.455   1.133   8.792 -0.1207  0.0857 -0.0496
  148SAPE  H14X16414   4.372   1.195   8.833  0.3113 -0.1059  1.1591
  148SAPE  H14Y16415   4.418   1.029   8.788  0.8953 -0.4154  2.2013
  148SAPE  C31516416   4.494   1.170   8.649  0.3067  0.0878  0.5767
  148SAPE  H15X16417   4.574   1.102   8.613  2.2395  2.9126 -0.8685
  148SAPE  H15Y16418   4.537   1.272   8.658 -0.1241  0.2525  0.7991
  148SAPE  C31616419   4.375   1.180   8.549  0.1096  0.3774  0.1107
  148SAPE  H16X16420   4.331   1.079   8.529  1.4880  0.3468 -3.5208
  148SAPE  H16Y16421   4.422   1.216   8.455 -0.8172  1.8679  0.1933
  148SAPE  C31716422   4.255   1.280   8.578  0.3925 -0.9138 -0.6959
  148SAPE  H17X16423   4.309   1.370   8.615 -2.8200  0.9255 -0.1289
  148SAPE  H17Y16424   4.211   1.252   8.676  2.0656 -0.1737  0.3106
  148SAPE  C31816425   4.167   1.324   8.461  0.2927  0.0263 -0.1706
  148SAPE  H18X16426   4.093   1.398   8.499  1.2390 -0.2784  2.5033
  148SAPE  H18Y16427   4.112   1.235   8.422  1.2512 -1.5192  1.7915
  148SAPE  H18Z16428   4.225   1.362   8.375  0.4263  1.0822  0.3736
  149SAPE     N16429   6.167   3.926  11.016  0.2096 -0.1070  0.6878
  149SAPE   HN116430   6.189   3.932  11.118  0.9540 -0.0692  0.5300
  149SAPE   HN216431   6.199   3.834  10.980 -0.8424 -0.4052  0.4584
  149SAPE   HN316432   6.214   4.003  10.965 -0.4397 -0.2447 -0.1260
  149SAPE   C1216433   6.019   3.942  10.994 -0.1683  0.4890  0.4142
  149SAPE  H12A16434   5.996   4.046  11.025  0.0429  1.0492 -1.2168
  149SAPE  H12B16435   5.972   3.866  11.059  1.2197 -2.9611 -2.2545
  149SAPE   C1116436   5.990   3.921  10.847 -0.0069 -0.8240  0.0668
  149SAPE  H11A16437   6.066   3.976  10.787  1.4549 -0.9890  1.6749
  149SAPE  H11B16438   5.892   3.962  10.814 -0.7777 -1.1437  1.9006
  149SAPE     P16439   6.118   3.717  10.751 -0.3133 -0.1717 -0.5733
  149SAPE   O1316440   6.227   3.732  10.857  0.1436 -0.1896 -0.1014
  149SAPE   O1416441   6.085   3.577  10.711  0.2205 -0.2173  0.0813
  149SAPE   O1216442   5.992   3.785  10.811  0.4490 -0.3120  0.0096
  149SAPE   O1116443   6.156   3.806  10.618  0.1025 -0.4263  0.3500
  149SAPE    C116444   6.052   3.822  10.518 -0.3024  0.2292  0.1471
  149SAPE    HA16445   5.965   3.753  10.525  0.3180 -0.6835 -0.7669
  149SAPE    HB16446   6.008   3.923  10.533  1.3788  1.1041 -0.5897
  149SAPE    C216447   6.111   3.822  10.373  0.9292 -0.0101 -0.7274
  149SAPE    HS16448   6.073   3.913  10.321  0.1224 -0.5056 -1.0120
  149SAPE   O2116449   6.061   3.706  10.311  0.1377  0.7109 -0.5225
  149SAPE   C2116450   6.041   3.719  10.177 -0.4155 -0.3583  0.2567
  149SAPE   O2216451   6.068   3.815  10.106 -0.2160  0.1055  0.5547
  149SAPE   C2216452   5.966   3.596  10.132 -0.4909  0.1146 -0.0333
  149SAPE   H2R16453   6.041   3.523  10.095 -1.7070 -0.1719 -2.0578
  149SAPE   H2S16454   5.900   3.552  10.209  0.3004  0.8389  1.0903
  149SAPE    C316455   6.269   3.810  10.381  0.8923  1.1935 -1.1042
  149SAPE    HX16456   6.294   3.726  10.449  1.9159  0.3617 -2.4552
  149SAPE    HY16457   6.306   3.906  10.424 -0.7844  1.0835  0.7104
  149SAPE   O3116458   6.343   3.800  10.258  0.0798 -0.1732  0.0268
  149SAPE   C3116459   6.371   3.686  10.198  0.0366  0.3286 -0.1041
  149SAPE   O3216460   6.356   3.580  10.255 -0.3713  0.1498  0.4149
  149SAPE   C3216461   6.386   3.714  10.048 -0.0369  0.3429  0.0444
  149SAPE   H2X16462   6.483   3.766  10.035 -0.4131  1.8222  2.4233
  149SAPE   H2Y16463   6.301   3.779  10.020 -0.4425 -0.8307 -1.5728
  149SAPE   C2316464   5.880   3.626  10.009 -0.8461 -0.1276  0.2093
  149SAPE   H3R16465   5.937   3.671   9.925 -1.1533  0.3802  0.2687
  149SAPE   H3S16466   5.798   3.700  10.025 -3.2435 -2.5874  0.1598
  149SAPE   C2416467   5.795   3.507   9.958 -0.0595 -0.5221  0.1784
  149SAPE   H4R16468   5.738   3.462  10.042 -0.2651 -1.7172 -0.5727
  149SAPE   H4S16469   5.860   3.425   9.922 -0.1297 -0.8275  0.7461
  149SAPE   C2516470   5.697   3.564   9.850 -1.0003  0.2854  0.1492
  149SAPE   H5R16471   5.628   3.640   9.889 -0.8796 -0.5448  2.1052
  149SAPE   C2616472   5.708   3.534   9.718  0.7123  0.2442  0.9941
  149SAPE   H6R16473   5.640   3.591   9.653 -1.7435  0.8364  3.8413
  149SAPE   C2716474   5.814   3.440   9.653  1.4785  0.5570  0.0782
  149SAPE   H7R16475   5.773   3.391   9.562 -2.1957  0.6403  1.5392
  149SAPE   H7S16476   5.821   3.362   9.732 -1.6303  1.6070  1.5491
  149SAPE   C2816477   5.949   3.503   9.628 -0.0346 -0.1611  0.7592
  149SAPE   H8R16478   6.002   3.538   9.718 -1.2340  0.3493  1.2813
  149SAPE   C2916479   6.020   3.525   9.515  0.2728 -0.6104 -0.6431
  149SAPE   H9R16480   6.119   3.572   9.517 -0.1982  0.4053 -0.7257
  149SAPE  C21016481   5.967   3.492   9.377 -0.2225 -0.3504 -0.4555
  149SAPE  H10R16482   5.979   3.571   9.299  1.1255 -1.1218 -1.0606
  149SAPE  H10S16483   5.856   3.491   9.376 -0.2476  0.1249  0.6821
  149SAPE  C21116484   6.001   3.357   9.325  0.1196  0.5175 -0.4850
  149SAPE  H11R16485   5.988   3.269   9.391  1.2455 -0.7065 -1.8325
  149SAPE  C21216486   6.024   3.328   9.196 -0.6566  0.1021 -0.1796
  149SAPE  H12R16487   6.037   3.222   9.171 -1.8872 -1.2722  4.1549
  149SAPE  C21316488   6.016   3.421   9.079 -0.1482  0.4069  0.0958
  149SAPE  H13R16489   6.108   3.482   9.084  0.2378 -0.2152  0.9931
  149SAPE  H13S16490   5.933   3.489   9.108 -0.7834 -0.7095  0.9842
  149SAPE  C21416491   6.001   3.360   8.940 -0.6238 -0.0686 -0.6314
  149SAPE  H14R16492   6.095   3.377   8.886  1.1550 -1.1470  1.9411
  149SAPE  C21516493   5.889   3.312   8.882 -0.0617 -0.5226  0.5292
  149SAPE  H15R16494   5.904   3.266   8.783  4.0562 -2.8590  1.9659
  149SAPE  C21616495   5.742   3.310   8.939  0.4284  0.0513 -0.5434
  149SAPE  H16R16496   5.707   3.406   8.983 -0.9598 -0.5521 -0.2756
  149SAPE  H16S16497   5.739   3.237   9.023  2.5251  0.7155  0.1597
  149SAPE  C21716498   5.631   3.285   8.839  0.2300  0.1532 -0.4704
  149SAPE  H17R16499   5.538   3.297   8.897  1.5562  1.8956  1.4501
  149SAPE  H17S16500   5.640   3.183   8.795  0.0750 -0.1140  0.1054
  149SAPE  C21816501   5.623   3.382   8.721 -0.3649  0.7380 -0.5043
  149SAPE  H18R16502   5.724   3.406   8.683  1.2810 -0.5014  2.7056
  149SAPE  H18S16503   5.578   3.471   8.771  1.6866  0.0248  2.9375
  149SAPE  C21916504   5.544   3.333   8.603  0.1961  0.0001  0.0713
  149SAPE  H19R16505   5.439   3.312   8.634 -0.0670  1.0188 -0.0827
  149SAPE  H19S16506   5.589   3.238   8.565  0.1625 -0.4500  1.1265
  149SAPE  C22016507   5.558   3.439   8.489 -0.3422  0.0598  0.2764
  149SAPE  H20R16508   5.505   3.392   8.403  1.2171 -0.0043 -0.6857
  149SAPE  H20S16509   5.667   3.444   8.467 -0.7221  1.4262 -1.5705
  149SAPE  H20T16510   5.523   3.539   8.522 -0.6013  0.4221 -1.0414
  149SAPE   C3316511   6.395   3.590   9.956 -0.0068 -0.8313 -0.1507
  149SAPE   H3X16512   6.312   3.518   9.973 -1.5180  0.6496 -0.8617
  149SAPE   H3Y16513   6.497   3.551   9.977  0.5303  1.9475  3.2077
  149SAPE   C3416514   6.382   3.637   9.813  0.4533 -0.3782 -0.0985
  149SAPE   H4X16515   6.459   3.717   9.802  1.1708 -0.6374  2.3813
  149SAPE   H4Y16516   6.284   3.680   9.786  1.5519  2.8022  0.5065
  149SAPE   C3516517   6.410   3.514   9.725 -0.1350  0.4142  0.0031
  149SAPE   H5X16518   6.327   3.442   9.742 -0.7931  1.1711  0.1016
  149SAPE   H5Y16519   6.506   3.461   9.737 -0.3195 -1.0478 -3.5849
  149SAPE   C3616520   6.422   3.547   9.577  0.1265 -0.3501 -0.2503
  149SAPE   H6X16521   6.509   3.612   9.556  0.9136 -1.2898  0.0217
  149SAPE   H6Y16522   6.325   3.592   9.545 -0.4340 -2.3072 -1.5209
  149SAPE   C3716523   6.421   3.423   9.495  0.1759  0.0432  0.6464
  149SAPE   H7X16524   6.320   3.379   9.507 -0.2785  1.1117  0.8135
  149SAPE   H7Y16525   6.491   3.344   9.528 -1.6200 -2.8756 -2.0059
  149SAPE   C3816526   6.437   3.461   9.344  0.8884 -0.2062  0.0869
  149SAPE   H8X16527   6.539   3.502   9.326  0.4788 -0.1971 -2.8069
  149SAPE   H8Y16528   6.362   3.537   9.310  2.1809  1.0713  0.0037
  149SAPE   C3916529   6.394   3.340   9.253  1.3527 -0.2099  0.3626
  149SAPE   H9X16530   6.286   3.326   9.276  0.7766  2.1223 -0.6312
  149SAPE   H9Y16531   6.464   3.255   9.269  2.3271  0.4815 -0.1132
  149SAPE  C31016532   6.397   3.364   9.103  0.6240 -0.0668  0.0441
  149SAPE  H10X16533   6.498   3.400   9.075  0.8136 -0.2084  0.5382
  149SAPE  H10Y16534   6.326   3.448   9.083 -0.3586 -0.2197  2.5966
  149SAPE  C31116535   6.365   3.242   9.016 -0.2841 -0.0609  0.1374
  149SAPE  H11X16536   6.262   3.203   9.033 -0.4505  0.1667 -0.3073
  149SAPE  H11Y16537   6.439   3.163   9.041  1.8469  1.9585  0.5153
  149SAPE  C31216538   6.378   3.280   8.869 -0.2277 -0.1423  0.2391
  149SAPE  H12X16539   6.473   3.333   8.847 -0.7885  1.0657  0.6763
  149SAPE  H12Y16540   6.311   3.365   8.844  1.5370  1.6900  1.4355
  149SAPE  C31316541   6.355   3.159   8.776  0.0256 -0.3307 -0.2639
  149SAPE  H13X16542   6.265   3.099   8.801 -0.1389  0.6756  1.7244
  149SAPE  H13Y16543   6.437   3.086   8.793 -0.5125 -0.6395  1.0960
  149SAPE  C31416544   6.352   3.210   8.630  0.0921 -0.9846  0.0975
  149SAPE  H14X16545   6.396   3.127   8.570  1.4522 -0.2608  0.0444
  149SAPE  H14Y16546   6.436   3.282   8.620  0.6197 -1.4399  1.0635
  149SAPE  C31516547   6.213   3.262   8.584  0.1453 -0.3695  0.0520
  149SAPE  H15X16548   6.172   3.344   8.647  1.5369  1.6309 -1.5106
  149SAPE  H15Y16549   6.134   3.185   8.598 -0.7246  0.5309  0.1962
  149SAPE  C31616550   6.212   3.307   8.436  0.1564 -0.1569  0.5398
  149SAPE  H16X16551   6.194   3.216   8.376 -0.4595  1.4907 -1.9537
  149SAPE  H16Y16552   6.313   3.347   8.415  1.0286 -2.9605 -1.1278
  149SAPE  C31716553   6.096   3.415   8.409 -0.2772  0.7562 -0.0770
  149SAPE  H17X16554   6.107   3.441   8.301  0.0411  1.3169  0.0878
  149SAPE  H17Y16555   6.114   3.501   8.477  2.2123 -0.8939  1.5270
  149SAPE  C31816556   5.950   3.361   8.442 -0.3111  0.5491 -0.2752
  149SAPE  H18X16557   5.866   3.432   8.432 -1.9313 -0.8075  2.5327
  149SAPE  H18Y16558   5.938   3.305   8.537 -0.8035 -0.4314 -0.9009
  149SAPE  H18Z16559   5.925   3.290   8.361  1.8999 -1.1056  0.3955
  150SAPE     N16560   1.806   0.702  10.444  0.7167 -0.0619  0.2207
  150SAPE   HN116561   1.737   0.714  10.520  2.0369  3.5504  1.0614
  150SAPE   HN216562   1.857   0.615  10.473 -0.3667  0.2008  3.2518
  150SAPE   HN316563   1.871   0.783  10.445  0.7102 -0.0251 -0.8299
  150SAPE   C1216564   1.735   0.675  10.315 -0.5474 -0.8704 -0.0428
  150SAPE  H12A16565   1.806   0.657  10.232 -0.3112  0.3813 -0.1372
  150SAPE  H12B16566   1.667   0.760  10.290 -1.3403 -1.4488  0.0992
  150SAPE   C1116567   1.642   0.547  10.326 -0.7356  0.1462 -0.2258
  150SAPE  H11A16568   1.708   0.458  10.339  0.7832  1.3959  0.9985
  150SAPE  H11B16569   1.600   0.541  10.223 -0.8326  0.7567 -0.2260
  150SAPE     P16570   1.514   0.500  10.549  0.4249  0.0871  0.1308
  150SAPE   O1316571   1.642   0.474  10.607 -1.0476 -0.3884 -0.0839
  150SAPE   O1416572   1.429   0.588  10.630  0.2177  0.1742  0.5013
  150SAPE   O1216573   1.535   0.569  10.412 -0.2023  0.0213  0.0075
  150SAPE   O1116574   1.449   0.360  10.515 -0.5093  0.4744 -0.7506
  150SAPE    C116575   1.313   0.369  10.463 -0.1062  0.4127 -0.0390
  150SAPE    HA16576   1.237   0.347  10.541 -1.8850  0.2596 -1.7443
  150SAPE    HB16577   1.282   0.468  10.423  0.1421 -0.4347 -2.4453
  150SAPE    C216578   1.270   0.272  10.352 -0.7317 -0.1274  0.8849
  150SAPE    HS16579   1.304   0.170  10.380 -1.1985 -0.2639  0.9685
  150SAPE   O2116580   1.315   0.326  10.224 -0.2602 -0.3098  0.6775
  150SAPE   C2116581   1.421   0.267  10.167 -0.6389  0.4149 -0.2099
  150SAPE   O2216582   1.494   0.189  10.225 -0.3686  0.3190  0.4114
  150SAPE   C2216583   1.446   0.327  10.025 -0.3126 -0.5640 -0.3972
  150SAPE   H2R16584   1.437   0.436  10.043  2.0965 -0.8072  3.3592
  150SAPE   H2S16585   1.551   0.313   9.993 -0.2841 -0.9267 -0.1524
  150SAPE    C316586   1.117   0.266  10.340  0.3859 -0.1282 -0.4522
  150SAPE    HX16587   1.093   0.370  10.310  1.0127  0.4114  0.8173
  150SAPE    HY16588   1.073   0.235  10.437  1.3297  0.6123  0.2284
  150SAPE   O3116589   1.082   0.173  10.234 -0.6825  0.0438  0.0487
  150SAPE   C3116590   0.948   0.144  10.241  0.0154  0.6929  0.7427
  150SAPE   O3216591   0.875   0.175  10.330  0.8885 -0.6656 -0.0875
  150SAPE   C3216592   0.909   0.053  10.125 -0.3566 -0.3259 -0.2048
  150SAPE   H2X16593   0.967  -0.041  10.132  1.0740  0.6481  2.5511
  150SAPE   H2Y16594   0.946   0.100  10.031  0.1548 -2.3500 -1.0630
  150SAPE   C2316595   1.357   0.273   9.907  0.0185 -0.2365 -0.1208
  150SAPE   H3R16596   1.286   0.352   9.874 -1.0769 -0.8730  0.6338
  150SAPE   H3S16597   1.286   0.196   9.945  0.7168 -0.0591  1.6318
  150SAPE   C2416598   1.422   0.225   9.778  0.1280 -0.8525 -0.0094
  150SAPE   H4R16599   1.352   0.157   9.725 -0.3851  0.4590 -1.0825
  150SAPE   H4S16600   1.508   0.158   9.796 -0.3977 -1.3108  0.8680
  150SAPE   C2516601   1.465   0.339   9.698 -0.0340 -0.6431  0.4933
  150SAPE   H5R16602   1.546   0.395   9.746  0.2611  0.4680 -1.2274
  150SAPE   C2616603   1.429   0.378   9.571  0.5173 -0.3795 -0.0354
  150SAPE   H6R16604   1.478   0.460   9.515 -1.3773  0.2120 -0.9273
  150SAPE   C2716605   1.333   0.305   9.482 -0.4608 -0.2173  0.6135
  150SAPE   H7R16606   1.264   0.380   9.439  2.3213  2.1400 -0.0481
  150SAPE   H7S16607   1.278   0.247   9.559  1.0879 -0.5096  1.5581
  150SAPE   C2816608   1.385   0.205   9.377  0.1524 -0.4886 -0.0514
  150SAPE   H8R16609   1.381   0.096   9.390 -0.2606 -0.8712 -2.8850
  150SAPE   C2916610   1.439   0.245   9.261 -0.5844 -0.1903  0.1277
  150SAPE   H9R16611   1.462   0.171   9.184 -0.6996  0.2728 -0.3606
  150SAPE  C21016612   1.462   0.388   9.207  0.1830  0.2765 -0.0706
  150SAPE  H10R16613   1.376   0.457   9.224  0.0299 -0.4041  2.2384
  150SAPE  H10S16614   1.457   0.366   9.098  0.1267 -0.3067  0.0469
  150SAPE  C21116615   1.593   0.448   9.252  0.3177 -0.0964 -0.1415
  150SAPE  H11R16616   1.653   0.388   9.323  0.2978 -2.8599 -2.2701
  150SAPE  C21216617   1.631   0.575   9.224  0.2166  0.1281 -1.0948
  150SAPE  H12R16618   1.726   0.608   9.270  0.2161  0.5171 -1.3617
  150SAPE  C21316619   1.552   0.682   9.152 -0.2763 -0.6953  0.1670
  150SAPE  H13R16620   1.555   0.768   9.222 -0.5824 -1.1323  0.7366
  150SAPE  H13S16621   1.444   0.657   9.142 -0.6000 -0.4317  2.4571
  150SAPE  C21416622   1.616   0.709   9.019 -0.0056 -0.5620 -0.0759
  150SAPE  H14R16623   1.725   0.699   9.026 -0.0031 -0.0289  0.7955
  150SAPE  C21516624   1.550   0.759   8.906  0.1306 -0.1705 -0.5024
  150SAPE  H15R16625   1.612   0.775   8.816 -0.1826 -0.0702 -0.7026
  150SAPE  C21616626   1.404   0.802   8.892  0.1555 -0.2323 -0.4786
  150SAPE  H16R16627   1.405   0.913   8.883  0.3983  0.0224  2.0788
  150SAPE  H16S16628   1.347   0.781   8.984  1.2679  0.3747  0.3716
  150SAPE  C21716629   1.338   0.747   8.769  0.3177  0.1549 -0.1460
  150SAPE  H17R16630   1.376   0.786   8.672 -0.0222  2.8227  0.6870
  150SAPE  H17S16631   1.243   0.804   8.776  0.5437  0.7291 -1.4973
  150SAPE  C21816632   1.316   0.601   8.760 -0.7881 -0.1165  0.3827
  150SAPE  H18R16633   1.316   0.556   8.862 -1.2135 -0.0565  0.4135
  150SAPE  H18S16634   1.405   0.545   8.726 -0.2076  0.8509  0.2881
  150SAPE  C21916635   1.195   0.546   8.681  0.0144 -0.6464  0.5646
  150SAPE  H19R16636   1.220   0.571   8.576 -0.2698  0.0305  0.6558
  150SAPE  H19S16637   1.108   0.611   8.702  0.2139 -0.0314 -0.4259
  150SAPE  C22016638   1.177   0.392   8.700  0.5137  0.1981 -0.0375
  150SAPE  H20R16639   1.125   0.347   8.613 -1.5152  1.9622  0.1601
  150SAPE  H20S16640   1.110   0.372   8.787  0.7094 -1.2079 -0.1840
  150SAPE  H20T16641   1.273   0.348   8.733  0.1171 -0.4062  0.3330
  150SAPE   C3316642   0.756   0.021  10.112  0.1830 -0.8335  0.0962
  150SAPE   H3X16643   0.703   0.111  10.074  0.7670 -1.1285 -1.4943
  150SAPE   H3Y16644   0.719  -0.008  10.213 -1.6637 -0.6043 -0.4703
  150SAPE   C3416645   0.744  -0.088  10.003 -0.0022  0.7093 -0.4581
  150SAPE   H4X16646   0.640  -0.126   9.997  0.2579 -0.1489  0.2118
  150SAPE   H4Y16647   0.802  -0.181  10.024 -0.1193  0.0310 -2.9050
  150SAPE   C3516648   0.777  -0.039   9.853 -0.0083  0.2738  0.1772
  150SAPE   H5X16649   0.871   0.021   9.856 -0.9602  1.8324 -0.2731
  150SAPE   H5Y16650   0.699   0.036   9.826  1.7241  2.1828  0.1676
  150SAPE   C3616651   0.779  -0.151   9.753  0.4794 -0.4644 -0.4997
  150SAPE   H6X16652   0.845  -0.236   9.783  3.6314  2.4438  1.5637
  150SAPE   H6Y16653   0.813  -0.103   9.658 -1.0128  4.8735  1.2988
  150SAPE   C3716654   0.636  -0.206   9.739  0.1579 -0.0906 -0.9395
  150SAPE   H7X16655   0.559  -0.126   9.744  1.7938  1.6790 -2.5996
  150SAPE   H7Y16656   0.618  -0.271   9.828 -2.9464 -0.5508 -1.7587
  150SAPE   C3816657   0.625  -0.303   9.624  1.0747  0.2686  0.0867
  150SAPE   H8X16658   0.708  -0.377   9.624 -0.5220 -1.6281 -1.2326
  150SAPE   H8Y16659   0.627  -0.237   9.535 -2.1800  1.3582  0.6880
  150SAPE   C3916660   0.488  -0.374   9.626 -1.0110 -0.2298 -0.5161
  150SAPE   H9X16661   0.415  -0.290   9.626 -2.0316 -1.0977  0.0055
  150SAPE   H9Y16662   0.466  -0.436   9.715 -0.5129 -0.8236 -0.7948
  150SAPE  C31016663   0.472  -0.445   9.491 -0.5638  0.4603  0.0939
  150SAPE  H10X16664   0.486  -0.367   9.413 -0.9491 -0.1649 -0.6007
  150SAPE  H10Y16665   0.379  -0.501   9.471 -1.4325  1.5174  1.0289
  150SAPE  C31116666   0.583  -0.548   9.458  0.7680  0.2342 -0.3242
  150SAPE  H11X16667   0.581  -0.632   9.531 -0.2635 -0.4442 -1.0963
  150SAPE  H11Y16668   0.683  -0.501   9.461  2.4528 -3.1114  0.4112
  150SAPE  C31216669   0.564  -0.621   9.322  0.0347 -0.0675 -0.4852
  150SAPE  H12X16670   0.460  -0.661   9.325  0.2946 -0.7048  2.5514
  150SAPE  H12Y16671   0.624  -0.714   9.325 -1.2338 -0.8956  2.3216
  150SAPE  C31316672   0.577  -0.530   9.198 -0.4151  0.5182  0.5244
  150SAPE  H13X16673   0.682  -0.508   9.168 -1.2643 -0.1964 -3.4676
  150SAPE  H13Y16674   0.521  -0.435   9.210 -1.1912  0.6655 -3.2257
  150SAPE  C31416675   0.525  -0.599   9.068 -0.0984 -0.0251  0.0886
  150SAPE  H14X16676   0.416  -0.614   9.085 -0.4805  1.2737 -1.0538
  150SAPE  H14Y16677   0.566  -0.699   9.044  0.0295 -0.0834  0.5383
  150SAPE  C31516678   0.536  -0.503   8.947  0.6950 -0.2861  0.5078
  150SAPE  H15X16679   0.514  -0.564   8.857 -0.3910 -0.3092  0.7832
  150SAPE  H15Y16680   0.637  -0.460   8.932 -0.5844  2.6914 -0.2388
  150SAPE  C31616681   0.435  -0.383   8.936 -0.2375  0.2051  0.3511
  150SAPE  H16X16682   0.453  -0.325   8.843  0.7524  0.3866  0.6487
  150SAPE  H16Y16683   0.460  -0.319   9.024  3.9930 -2.3937  1.3229
  150SAPE  C31716684   0.284  -0.429   8.935 -0.6721 -0.6571 -0.5573
  150SAPE  H17X16685   0.264  -0.484   9.030  0.1180  1.8634  1.1480
  150SAPE  H17Y16686   0.279  -0.492   8.844  0.2241 -1.7282  0.1044
  150SAPE  C31816687   0.192  -0.304   8.914  0.3703 -0.1032 -0.0748
  150SAPE  H18X16688   0.227  -0.239   8.831  1.8160 -1.1878 -0.3580
  150SAPE  H18Y16689   0.189  -0.240   9.005 -1.9152 -1.2266  0.7027
  150SAPE  H18Z16690   0.091  -0.341   8.889  0.6726  0.3743 -2.2410
  151SAPE     N16691   0.898   5.558  10.870  1.1222  0.2582  0.1090
  151SAPE   HN116692   0.957   5.616  10.934  1.3823  1.1005 -0.8715
  151SAPE   HN216693   0.865   5.471  10.917  0.8591  0.6605  0.6823
  151SAPE   HN316694   0.961   5.520  10.797 -0.1533 -0.1727 -0.7921
  151SAPE   C1216695   0.781   5.625  10.795 -0.3249  0.5001 -0.6326
  151SAPE  H12A16696   0.794   5.732  10.766  0.7098  0.1485 -1.5180
  151SAPE  H12B16697   0.699   5.627  10.871  2.5077  0.6267  2.6819
  151SAPE   C1116698   0.759   5.550  10.665  0.0652  1.2544 -0.2688
  151SAPE  H11A16699   0.852   5.518  10.613  0.0781  1.2793 -0.2602
  151SAPE  H11B16700   0.693   5.615  10.604 -0.7630 -0.1506 -0.9019
  151SAPE     P16701   0.620   5.319  10.628  0.0758 -0.2372  0.2763
  151SAPE   O1316702   0.654   5.211  10.719  0.2231  0.0969 -0.0515
  151SAPE   O1416703   0.476   5.337  10.602  0.8662 -0.1954  0.0817
  151SAPE   O1216704   0.676   5.444  10.698 -0.1625  0.0452 -0.1240
  151SAPE   O1116705   0.689   5.300  10.490  0.0599  0.0758 -0.2359
  151SAPE    C116706   0.821   5.250  10.489 -0.7049 -0.4003 -0.2697
  151SAPE    HA16707   0.890   5.337  10.482 -0.3935 -0.4484  1.6988
  151SAPE    HB16708   0.846   5.193  10.581  0.1710 -0.9381 -0.8275
  151SAPE    C216709   0.839   5.155  10.368 -0.6590  0.0909  0.3975
  151SAPE    HS16710   0.945   5.123  10.371 -0.2539  1.4435  1.9139
  151SAPE   O2116711   0.813   5.225  10.245  0.3872 -0.2978 -0.1142
  151SAPE   C2116712   0.905   5.307  10.203  0.1274  0.4929 -0.0105
  151SAPE   O2216713   1.004   5.348  10.266 -0.0581 -0.2602 -0.3358
  151SAPE   C2216714   0.889   5.329  10.054 -0.4596  0.5517  0.9345
  151SAPE   H2R16715   0.924   5.232  10.012  1.0333  0.5480  2.1009
  151SAPE   H2S16716   0.786   5.359  10.026 -0.2533 -0.6141 -1.4101
  151SAPE    C316717   0.750   5.032  10.371  0.6837 -0.1567 -0.0999
  151SAPE    HX16718   0.646   5.061  10.392  1.1743  2.0539 -0.5343
  151SAPE    HY16719   0.776   4.963  10.455  1.0267 -0.9097 -0.8159
  151SAPE   O3116720   0.751   4.955  10.249 -0.3897  0.0945 -0.2498
  151SAPE   C3116721   0.656   4.967  10.164  0.2050  0.3934  0.0611
  151SAPE   O3216722   0.553   5.033  10.176  1.0159 -0.0229  0.3141
  151SAPE   C3216723   0.688   4.878  10.034  0.1096 -0.5180 -0.9916
  151SAPE   H2X16724   0.628   4.785  10.035  1.9736 -1.7997 -2.2515
  151SAPE   H2Y16725   0.797   4.853  10.035  0.8698  2.3301 -2.0817
  151SAPE   C2316726   0.997   5.418   9.986 -0.1270  0.8661 -1.1742
  151SAPE   H3R16727   0.995   5.399   9.877 -3.8665  1.7224 -1.3663
  151SAPE   H3S16728   1.095   5.386  10.028 -2.3860 -2.6838  2.0323
  151SAPE   C2416729   0.958   5.565  10.001 -0.5559 -0.2079  0.2682
  151SAPE   H4R16730   0.937   5.596  10.105 -5.0951 -0.5250 -0.3690
  151SAPE   H4S16731   0.860   5.573   9.950  0.2094 -0.4987 -1.3280
  151SAPE   C2516732   1.066   5.656   9.940  0.6210 -0.5043  0.0796
  151SAPE   H5R16733   1.107   5.730  10.010 -0.7969  0.2062  0.1796
  151SAPE   C2616734   1.114   5.659   9.815  0.4201 -0.1904  0.1693
  151SAPE   H6R16735   1.202   5.725   9.805  1.0190 -1.1480 -1.1089
  151SAPE   C2716736   1.073   5.580   9.691 -0.5478 -0.4243 -0.4780
  151SAPE   H7R16737   0.974   5.530   9.687  1.0659 -4.0948  0.9332
  151SAPE   H7S16738   1.134   5.487   9.690  1.5818  0.8739  0.2056
  151SAPE   C2816739   1.101   5.663   9.563  0.2912 -0.5788 -0.7268
  151SAPE   H8R16740   1.030   5.741   9.532 -1.8685 -0.8933  2.8325
  151SAPE   C2916741   1.208   5.647   9.480 -0.4645 -1.6213 -0.5897
  151SAPE   H9R16742   1.211   5.713   9.392  1.7083 -0.5952  0.1815
  151SAPE  C21016743   1.324   5.550   9.495  0.3637 -0.2849 -0.7608
  151SAPE  H10R16744   1.324   5.466   9.422 -0.1160 -1.0166  0.0753
  151SAPE  H10S16745   1.336   5.502   9.594  0.0785  2.2622  0.5833
  151SAPE  C21116746   1.442   5.638   9.478  0.3633 -1.0262  0.2672
  151SAPE  H11R16747   1.433   5.740   9.518  0.3085 -1.1788  0.6543
  151SAPE  C21216748   1.566   5.596   9.436  0.3133  0.6368 -0.6937
  151SAPE  H12R16749   1.658   5.657   9.447 -0.2861  1.1926  1.8616
  151SAPE  C21316750   1.591   5.451   9.401  1.0475  0.1490 -0.9777
  151SAPE  H13R16751   1.519   5.385   9.454 -0.3894  0.8479 -1.9982
  151SAPE  H13S16752   1.692   5.426   9.440 -0.9358 -1.3650  3.9375
  151SAPE  C21416753   1.579   5.411   9.253  0.6361  0.6505  0.0596
  151SAPE  H14R16754   1.500   5.466   9.201  0.0468  0.0901  0.3558
  151SAPE  C21516755   1.659   5.328   9.182  0.2351 -0.6815  0.0242
  151SAPE  H15R16756   1.651   5.326   9.073 -0.0731 -3.4727  0.0340
  151SAPE  C21616757   1.779   5.251   9.237  0.1265  0.4015 -0.2685
  151SAPE  H16R16758   1.774   5.272   9.346  0.3627 -1.2915  0.0954
  151SAPE  H16S16759   1.878   5.286   9.200 -0.2227  0.6103 -1.0045
  151SAPE  C21716760   1.763   5.102   9.219  0.1579 -0.0949  0.1292
  151SAPE  H17R16761   1.666   5.073   9.265 -0.3193  2.6096  1.0317
  151SAPE  H17S16762   1.849   5.054   9.270  0.6875  1.2727  0.5663
  151SAPE  C21816763   1.765   5.043   9.080 -0.6745 -0.2755  0.0641
  151SAPE  H18R16764   1.859   5.062   9.023 -1.2484 -1.2537 -1.2837
  151SAPE  H18S16765   1.674   5.074   9.024 -1.3709 -3.1247 -0.5352
  151SAPE  C21916766   1.763   4.891   9.086 -0.0787  0.1033  0.3831
  151SAPE  H19R16767   1.687   4.874   9.165 -0.5676  1.2667  0.1868
  151SAPE  H19S16768   1.862   4.849   9.113  1.8819  2.6319 -2.1945
  151SAPE  C22016769   1.713   4.837   8.952  0.2755 -0.1807  0.5266
  151SAPE  H20R16770   1.782   4.867   8.869  0.8278  0.8191  1.3270
  151SAPE  H20S16771   1.609   4.866   8.927  0.6420 -0.9155 -2.2771
  151SAPE  H20T16772   1.706   4.727   8.943  0.9843 -0.1122 -1.4573
  151SAPE   C3316773   0.658   4.955   9.908 -0.3228 -0.5741 -0.5065
  151SAPE   H3X16774   0.723   4.921   9.825 -1.4276  0.5139 -1.8856
  151SAPE   H3Y16775   0.674   5.065   9.921 -1.9522 -0.4236  0.5500
  151SAPE   C3416776   0.516   4.946   9.849  0.1556 -0.7302  0.1738
  151SAPE   H4X16777   0.440   4.986   9.919 -0.1801  1.9350 -1.5416
  151SAPE   H4Y16778   0.497   4.837   9.844 -1.5685 -0.4146 -1.0450
  151SAPE   C3516779   0.492   5.021   9.714 -0.0931  0.4460  0.8432
  151SAPE   H5X16780   0.551   5.114   9.729  3.0797 -1.1983 -0.6361
  151SAPE   H5Y16781   0.382   5.022   9.700 -0.0103 -0.8095 -0.0674
  151SAPE   C3616782   0.565   4.949   9.595 -0.1649 -0.1106 -0.4690
  151SAPE   H6X16783   0.521   4.848   9.579 -1.0551  0.0810  0.6565
  151SAPE   H6Y16784   0.673   4.944   9.618  0.3708  0.9636 -2.5067
  151SAPE   C3716785   0.565   5.016   9.457  0.5049 -0.0182 -0.2481
  151SAPE   H7X16786   0.593   5.122   9.474 -0.8258  0.1824  0.8589
  151SAPE   H7Y16787   0.464   5.033   9.413  0.1206 -0.5961  0.3958
  151SAPE   C3816788   0.643   4.948   9.349 -0.3057  0.7212  0.3352
  151SAPE   H8X16789   0.633   4.839   9.331  2.1000  0.3859  0.6859
  151SAPE   H8Y16790   0.748   4.947   9.386 -0.5052 -2.4582  1.1262
  151SAPE   C3916791   0.650   5.029   9.209 -0.2946 -0.3397  0.1247
  151SAPE   H9X16792   0.547   5.029   9.167 -0.2156  1.7625 -0.1571
  151SAPE   H9Y16793   0.729   4.984   9.144 -0.9689 -0.7029 -0.4546
  151SAPE  C31016794   0.669   5.181   9.215  0.3181  0.3855  0.0460
  151SAPE  H10X16795   0.761   5.196   9.275  1.0443  2.4190 -1.4670
  151SAPE  H10Y16796   0.592   5.232   9.277 -0.3063 -0.2771 -0.1728
  151SAPE  C31116797   0.675   5.243   9.076 -0.3380 -0.7497  0.2744
  151SAPE  H11X16798   0.601   5.197   9.006  0.0895 -1.4634  0.2793
  151SAPE  H11Y16799   0.774   5.216   9.032 -1.0560 -1.3530 -1.0307
  151SAPE  C31216800   0.671   5.393   9.070  0.9563 -0.4231 -0.4153
  151SAPE  H12X16801   0.775   5.431   9.075  1.6065 -2.1089 -0.5489
  151SAPE  H12Y16802   0.597   5.435   9.141  0.7549  0.1007 -0.9261
  151SAPE  C31316803   0.630   5.438   8.924 -0.5503 -0.9039 -0.0497
  151SAPE  H13X16804   0.540   5.381   8.889 -1.3072  1.4343 -2.2067
  151SAPE  H13Y16805   0.718   5.416   8.860 -0.3971  1.0375 -0.5773
  151SAPE  C31416806   0.609   5.592   8.895  0.3891  0.5328 -0.1448
  151SAPE  H14X16807   0.578   5.611   8.790 -1.3841  2.6006  0.6645
  151SAPE  H14Y16808   0.704   5.649   8.898  1.1822 -0.7906  0.9180
  151SAPE  C31516809   0.514   5.655   9.000 -0.2375 -0.4397  0.3123
  151SAPE  H15X16810   0.575   5.643   9.092  0.4098 -1.4979 -0.2317
  151SAPE  H15Y16811   0.412   5.613   9.008 -1.7837  2.9656  0.3886
  151SAPE  C31616812   0.492   5.801   8.972  0.7992 -0.5573  0.3025
  151SAPE  H16X16813   0.584   5.851   8.934  1.5048 -2.8346 -1.1647
  151SAPE  H16Y16814   0.467   5.844   9.072 -1.8232 -0.8207 -0.1669
  151SAPE  C31716815   0.382   5.838   8.872  0.6849  0.0221 -0.4048
  151SAPE  H17X16816   0.286   5.808   8.922  1.1878  0.6588  1.0123
  151SAPE  H17Y16817   0.402   5.780   8.780  2.0184 -2.8713  1.5281
  151SAPE  C31816818   0.368   5.989   8.835 -0.2655 -0.6570 -0.1835
  151SAPE  H18X16819   0.448   6.025   8.767 -0.8540 -0.8921 -1.0086
  151SAPE  H18Y16820   0.360   6.053   8.925  1.4667 -1.8004  0.8419
  151SAPE  H18Z16821   0.270   6.001   8.783  0.4335  1.6922 -1.0637
  152SAPE     N16822   6.342   5.631  10.641  0.2526 -0.6686 -0.2318
  152SAPE   HN116823   6.420   5.695  10.617 -2.7681  2.4605 -2.7172
  152SAPE   HN216824   6.303   5.598  10.550  2.6229  0.5478 -1.7930
  152SAPE   HN316825   6.273   5.692  10.689 -1.2948 -0.3494 -2.7104
  152SAPE   C1216826   6.383   5.517  10.717  0.1151  0.5105 -0.0937
  152SAPE  H12A16827   6.377   5.544  10.825 -1.7360 -0.0285 -0.0279
  152SAPE  H12B16828   6.489   5.496  10.692  0.0751  0.3504 -0.1299
  152SAPE   C1116829   6.294   5.398  10.696 -0.3416  0.5545  0.6030
  152SAPE  H11A16830   6.331   5.314  10.758  1.2046  1.0713  0.4065
  152SAPE  H11B16831   6.300   5.359  10.592  0.7123 -3.1994  1.8863
  152SAPE     P16832   6.047   5.328  10.689 -0.1667  0.3617 -0.0661
  152SAPE   O1316833   6.078   5.190  10.728  0.1373 -0.1395 -0.0653
  152SAPE   O1416834   5.913   5.381  10.721  0.4083  0.0288  0.2208
  152SAPE   O1216835   6.163   5.431  10.739 -0.4383 -0.5074 -0.1095
  152SAPE   O1116836   6.065   5.337  10.535  0.6625  0.3445  0.3324
  152SAPE    C116837   6.063   5.222  10.446  0.1355 -0.7619 -0.7993
  152SAPE    HA16838   6.153   5.158  10.463  0.7005  0.2612  0.1709
  152SAPE    HB16839   5.978   5.157  10.475 -0.0311  0.8301  2.7641
  152SAPE    C216840   6.034   5.257  10.305 -0.1491  0.2513 -0.5429
  152SAPE    HS16841   6.022   5.163  10.248  1.3620  1.3429 -2.7948
  152SAPE   O2116842   6.150   5.329  10.246  0.5489  0.1230  0.1793
  152SAPE   C2116843   6.219   5.265  10.152  0.3694  0.8197  0.3056
  152SAPE   O2216844   6.177   5.160  10.103  0.5388  0.1002  0.4171
  152SAPE   C2216845   6.355   5.321  10.125  0.0625  0.2261  0.3798
  152SAPE   H2R16846   6.357   5.431  10.111  2.6155  0.5196  2.2153
  152SAPE   H2S16847   6.423   5.303  10.212  1.1466  0.9042 -0.3015
  152SAPE    C316848   5.902   5.331  10.293  0.4831  0.1450  0.1112
  152SAPE    HX16849   5.885   5.398  10.380  1.8464  2.4552 -1.2690
  152SAPE    HY16850   5.828   5.248  10.292  0.8013 -0.1682 -1.8942
  152SAPE   O3116851   5.891   5.398  10.155 -0.0670  0.4049 -1.0821
  152SAPE   C3116852   5.936   5.519  10.141  0.4371  0.2972 -0.5644
  152SAPE   O3216853   5.979   5.588  10.231 -0.5933 -0.8648 -0.1815
  152SAPE   C3216854   5.945   5.566   9.996  0.7135 -0.8270  0.5421
  152SAPE   H2X16855   5.988   5.668   9.988  3.3877 -1.8129  1.2412
  152SAPE   H2Y16856   5.839   5.573   9.964  0.5182 -1.4205  1.0387
  152SAPE   C2316857   6.433   5.269   9.998  0.2398 -0.2650  0.0253
  152SAPE   H3R16858   6.437   5.159   9.994 -0.5119 -0.2800 -4.2832
  152SAPE   H3S16859   6.536   5.310   9.999  0.3044 -0.4140 -0.6116
  152SAPE   C2416860   6.372   5.307   9.861  0.4079 -0.3829 -0.3432
  152SAPE   H4R16861   6.361   5.417   9.864  0.0218 -0.4119  2.2232
  152SAPE   H4S16862   6.276   5.252   9.850 -0.5887  0.0821  4.0442
  152SAPE   C2516863   6.466   5.287   9.744 -0.1641 -0.3275 -0.2485
  152SAPE   H5R16864   6.537   5.366   9.717  1.3154 -1.6884 -0.4952
  152SAPE   C2616865   6.477   5.174   9.674 -0.1400 -0.1419 -0.2983
  152SAPE   H6R16866   6.548   5.172   9.590 -1.8071  0.9602 -1.8092
  152SAPE   C2716867   6.384   5.056   9.697 -0.0494  0.7192  0.2771
  152SAPE   H7R16868   6.282   5.084   9.664  1.4691  3.5614 -2.5059
  152SAPE   H7S16869   6.394   5.028   9.804  1.2585 -1.2924 -0.2954
  152SAPE   C2816870   6.413   4.934   9.612 -0.6751 -0.0804  0.2303
  152SAPE   H8R16871   6.452   4.851   9.672  1.2893  1.2669  0.9167
  152SAPE   C2916872   6.424   4.913   9.474 -0.1932 -0.0130 -0.3676
  152SAPE   H9R16873   6.464   4.818   9.435 -0.2935 -0.6865  1.0918
  152SAPE  C21016874   6.410   5.018   9.365 -0.0696  0.6260 -0.0229
  152SAPE  H10R16875   6.411   5.115   9.419 -0.4977 -0.8777  2.8442
  152SAPE  H10S16876   6.313   5.003   9.314 -0.6831  0.6113  1.1183
  152SAPE  C21116877   6.518   5.018   9.262 -0.1446 -0.4084  0.1769
  152SAPE  H11R16878   6.618   5.020   9.308  0.7498  0.0566 -1.7109
  152SAPE  C21216879   6.505   5.000   9.132  0.3513  0.2468  0.9764
  152SAPE  H12R16880   6.591   5.010   9.065  0.2368 -0.0991  0.7777
  152SAPE  C21316881   6.382   4.980   9.051  0.4839  0.3401 -0.5677
  152SAPE  H13R16882   6.380   5.043   8.960  1.9850  1.0005 -0.1731
  152SAPE  H13S16883   6.289   5.004   9.107 -0.6638 -0.7733 -1.9296
  152SAPE  C21416884   6.362   4.838   9.014 -0.4046 -0.5493 -0.3504
  152SAPE  H14R16885   6.311   4.778   9.091  1.2101 -3.0887 -1.1552
  152SAPE  C21516886   6.409   4.775   8.909  0.3412  0.2802  0.0758
  152SAPE  H15R16887   6.387   4.667   8.902  1.1091  0.1660 -0.7958
  152SAPE  C21616888   6.477   4.831   8.788 -0.3407 -1.1937 -0.5064
  152SAPE  H16R16889   6.448   4.938   8.774  1.1042 -0.7256 -0.0485
  152SAPE  H16S16890   6.448   4.775   8.697  1.6095 -1.9020 -0.7359
  152SAPE  C21716891   6.627   4.820   8.805  0.4069  0.1444 -0.0687
  152SAPE  H17R16892   6.655   4.713   8.816  0.1167  0.2874  2.7148
  152SAPE  H17S16893   6.663   4.870   8.898  0.0425  1.1072 -0.4360
  152SAPE  C21816894   6.689   4.889   8.678  0.9317 -0.0281  0.2287
  152SAPE  H18R16895   6.685   5.000   8.679 -1.7701 -0.0566  2.3135
  152SAPE  H18S16896   6.638   4.857   8.585 -1.0588 -0.8254  1.5337
  152SAPE  C21916897   6.836   4.829   8.664  0.0767  0.1701  0.0882
  152SAPE  H19R16898   6.882   4.825   8.765  1.3160  2.2094 -0.3437
  152SAPE  H19S16899   6.891   4.913   8.617 -0.2731  0.0978 -0.4491
  152SAPE  C22016900   6.844   4.689   8.596  0.4073  0.2949  0.4763
  152SAPE  H20R16901   6.827   4.686   8.487 -1.0872 -0.1922  0.7014
  152SAPE  H20S16902   6.774   4.616   8.642  0.0310 -1.3962 -2.5462
  152SAPE  H20T16903   6.949   4.655   8.601  0.3573  0.0135 -0.2538
  152SAPE   C3316904   6.012   5.464   9.909  0.4249 -0.8221  0.0412
  152SAPE   H3X16905   5.997   5.357   9.937 -1.3376 -0.4242  0.7084
  152SAPE   H3Y16906   6.122   5.481   9.911  0.4144 -0.6405 -0.5920
  152SAPE   C3416907   5.962   5.483   9.765 -0.4465  0.0070  0.4125
  152SAPE   H4X16908   5.994   5.584   9.730 -0.9498  0.5194  1.3859
  152SAPE   H4Y16909   5.851   5.487   9.767 -0.4783 -0.8016  0.5495
  152SAPE   C3516910   6.005   5.381   9.659  0.0884  0.0135 -0.0589
  152SAPE   H5X16911   5.923   5.307   9.644 -0.9295  0.7112  1.7557
  152SAPE   H5Y16912   6.105   5.342   9.685  0.3756  0.5084 -0.4125
  152SAPE   C3616913   6.044   5.445   9.525  0.5829 -0.3216  0.4871
  152SAPE   H6X16914   6.120   5.524   9.548 -0.9763  0.6206  2.8263
  152SAPE   H6Y16915   5.954   5.492   9.479 -0.8013 -2.0530  1.3203
  152SAPE   C3716916   6.093   5.340   9.424 -0.7059 -0.0170  0.7802
  152SAPE   H7X16917   6.037   5.244   9.425 -0.1540 -0.3922 -1.1421
  152SAPE   H7Y16918   6.193   5.304   9.455 -0.1056  0.0753 -0.9638
  152SAPE   C3816919   6.108   5.389   9.282 -0.2589 -0.2042 -0.3166
  152SAPE   H8X16920   6.169   5.482   9.272  0.5931 -0.8750 -1.5546
  152SAPE   H8Y16921   6.007   5.414   9.244 -1.2875 -2.0021  1.0790
  152SAPE   C3916922   6.150   5.280   9.176 -0.4495  0.5017  0.0813
  152SAPE   H9X16923   6.098   5.182   9.191 -0.3138 -0.0071 -2.4232
  152SAPE   H9Y16924   6.261   5.277   9.171 -0.4468 -3.6931 -0.9365
  152SAPE  C31016925   6.110   5.317   9.034  0.1440  0.6930  0.4812
  152SAPE  H10X16926   6.146   5.421   9.021  0.6245  1.0063  3.5583
  152SAPE  H10Y16927   6.000   5.314   9.020  0.0486 -1.7388  1.3199
  152SAPE  C31116928   6.179   5.225   8.927  0.9839  0.0602 -0.2568
  152SAPE  H11X16929   6.169   5.115   8.937 -0.3828  0.2250  0.4816
  152SAPE  H11Y16930   6.286   5.253   8.929  1.5049 -1.4320 -2.8096
  152SAPE  C31216931   6.136   5.256   8.781 -0.4216 -0.3754  0.7578
  152SAPE  H12X16932   6.076   5.350   8.776  1.4024  0.7934 -0.4730
  152SAPE  H12Y16933   6.051   5.193   8.746 -1.3471  1.0366  0.3636
  152SAPE  C31316934   6.248   5.274   8.680  0.2004 -0.3829 -0.2893
  152SAPE  H13X16935   6.327   5.203   8.713 -0.4671 -1.5386 -1.0992
  152SAPE  H13Y16936   6.299   5.373   8.688 -0.8227  0.4674 -3.0896
  152SAPE  C31416937   6.206   5.234   8.542  0.0250 -0.7899 -0.2860
  152SAPE  H14X16938   6.162   5.133   8.548 -0.1197 -0.6754  0.8360
  152SAPE  H14Y16939   6.295   5.214   8.479 -1.9593 -2.2755 -2.8028
  152SAPE  C31516940   6.114   5.339   8.481 -0.3098  0.0541 -0.5614
  152SAPE  H15X16941   6.174   5.433   8.480 -0.6898  0.2964 -1.7932
  152SAPE  H15Y16942   6.023   5.340   8.545  0.1420 -1.8776  0.1893
  152SAPE  C31616943   6.061   5.301   8.337  0.6389  0.3341 -0.1238
  152SAPE  H16X16944   6.151   5.300   8.272 -0.9114 -0.5156 -2.3779
  152SAPE  H16Y16945   5.982   5.364   8.292 -0.3278  1.6481  3.1331
  152SAPE  C31716946   6.004   5.160   8.312  0.1833 -0.5048 -0.7432
  152SAPE  H17X16947   5.926   5.133   8.387  3.1333 -0.2010  2.6940
  152SAPE  H17Y16948   6.084   5.085   8.332 -1.1493 -1.9201 -0.4632
  152SAPE  C31816949   5.969   5.133   8.167 -0.1475  0.1945 -0.2718
  152SAPE  H18X16950   5.940   5.029   8.142  2.9842 -0.8096 -0.1455
  152SAPE  H18Y16951   6.058   5.153   8.103 -0.7450  0.2582 -1.1011
  152SAPE  H18Z16952   5.891   5.207   8.140 -0.7308 -0.3006  0.0294
  153SAPE     N16953   6.095   6.402  10.727 -0.0956 -0.2084 -0.7673
  153SAPE   HN116954   6.003   6.437  10.693 -0.2032 -1.7931 -2.2446
  153SAPE   HN216955   6.078   6.304  10.759  2.7267 -0.1811  1.2253
  153SAPE   HN316956   6.145   6.456  10.801 -1.8236 -0.0544  0.3582
  153SAPE   C1216957   6.186   6.385  10.606  0.1252 -0.4997 -0.1051
  153SAPE  H12A16958   6.287   6.354  10.639 -0.2361 -0.5010  1.0659
  153SAPE  H12B16959   6.177   6.481  10.551 -1.7950  0.0840  1.1011
  153SAPE   C1116960   6.127   6.284  10.516 -0.8447  0.7508  0.7739
  153SAPE  H11A16961   6.191   6.280  10.425  1.7414 -2.1700  2.4984
  153SAPE  H11B16962   6.029   6.306  10.469  0.9557  2.0087 -2.7524
  153SAPE     P16963   6.242   6.058  10.576  0.0783 -0.2645 -0.4414
  153SAPE   O1316964   6.367   6.119  10.621  0.6904  0.2002 -0.0648
  153SAPE   O1416965   6.204   5.930  10.643  0.0567  0.0628 -0.7523
  153SAPE   O1216966   6.123   6.160  10.588  0.0636 -0.8472  0.2670
  153SAPE   O1116967   6.259   6.018  10.419  0.0579 -0.0151  0.4138
  153SAPE    C116968   6.268   5.878  10.382  0.1822  0.0150 -0.0892
  153SAPE    HA16969   6.353   5.833  10.437  0.0524  0.9651  0.9310
  153SAPE    HB16970   6.171   5.827  10.402 -0.1786  0.7672  0.1203
  153SAPE    C216971   6.309   5.865  10.235  0.0904 -0.0189  0.6198
  153SAPE    HS16972   6.291   5.758  10.212  0.8074 -0.3848  1.7000
  153SAPE   O2116973   6.443   5.911  10.197 -0.5464  0.0435 -0.1002
  153SAPE   C2116974   6.536   5.822  10.240  0.0981 -0.2552 -0.0237
  153SAPE   O2216975   6.509   5.716  10.298 -0.1678 -0.0554 -0.8658
  153SAPE   C2216976   6.672   5.874  10.201  0.5208  0.5545  0.1244
  153SAPE   H2R16977   6.673   5.934  10.107 -3.1579 -0.4739 -0.7260
  153SAPE   H2S16978   6.703   5.944  10.281  0.2214 -0.9748  1.6305
  153SAPE    C316979   6.209   5.935  10.136  0.6220 -0.6667  0.8873
  153SAPE    HX16980   6.201   6.044  10.153  1.0892 -0.8022  2.0529
  153SAPE    HY16981   6.110   5.894  10.165 -0.9806  1.3049 -1.4162
  153SAPE   O3116982   6.243   5.905  10.001 -0.4355 -0.4094  0.1383
  153SAPE   C3116983   6.313   5.998   9.938  0.8395 -0.0036  0.3317
  153SAPE   O3216984   6.345   6.105   9.985  0.0850 -0.6590  0.1748
  153SAPE   C3216985   6.350   5.964   9.790 -0.3370 -0.6013 -0.3243
  153SAPE   H2X16986   6.379   5.857   9.785  2.5385  0.1385 -0.9688
  153SAPE   H2Y16987   6.442   6.020   9.766  0.0206 -0.5516  1.0766
  153SAPE   C2316988   6.770   5.753  10.211  0.5464 -0.1671  0.1683
  153SAPE   H3R16989   6.754   5.681  10.294 -0.7577  1.3574  1.3008
  153SAPE   H3S16990   6.868   5.793  10.246  0.3416 -0.1801  0.7739
  153SAPE   C2416991   6.799   5.679  10.083  0.4837  0.9191  0.7862
  153SAPE   H4R16992   6.892   5.619  10.093 -0.4458 -1.5620 -3.2050
  153SAPE   H4S16993   6.835   5.755  10.009  1.2716  1.8294  2.0668
  153SAPE   C2516994   6.689   5.588  10.043 -0.1202 -1.1808  0.1958
  153SAPE   H5R16995   6.665   5.507  10.114 -1.5310  0.0333  1.1613
  153SAPE   C2616996   6.617   5.604   9.926 -0.2665 -0.5818 -0.2481
  153SAPE   H6R16997   6.537   5.531   9.906 -0.9968  0.3360 -0.7068
  153SAPE   C2716998   6.629   5.708   9.818 -0.6567 -0.2219 -0.3216
  153SAPE   H7R16999   6.653   5.808   9.860  0.3062 -0.9577  0.9337
  153SAPE   H7S17000   6.530   5.707   9.768 -0.2632  0.5958 -1.1609
  153SAPE   C2817001   6.730   5.646   9.723  0.3626 -0.2966 -0.5891
  153SAPE   H8R17002   6.833   5.632   9.758  0.9132  1.6419 -1.3287
  153SAPE   C2917003   6.704   5.633   9.593  1.2525  0.1479 -0.0363
  153SAPE   H9R17004   6.769   5.574   9.526  0.0983  0.2660 -1.3197
  153SAPE  C21017005   6.574   5.675   9.516  0.0262  0.3134 -1.4580
  153SAPE  H10R17006   6.598   5.708   9.413 -0.9632 -0.9750 -2.1328
  153SAPE  H10S17007   6.538   5.763   9.574 -0.3295 -0.8395  0.1720
  153SAPE  C21117008   6.461   5.583   9.509  0.0728  0.0538  0.2530
  153SAPE  H11R17009   6.367   5.598   9.564 -0.9448 -3.2404 -0.3890
  153SAPE  C21217010   6.461   5.464   9.437 -0.3394 -0.9015 -1.0254
  153SAPE  H12R17011   6.363   5.414   9.432 -0.4121 -0.7382 -1.2621
  153SAPE  C21317012   6.561   5.403   9.349 -0.4131  0.0367 -0.0181
  153SAPE  H13R17013   6.525   5.303   9.316  3.3023 -2.4614  2.6560
  153SAPE  H13S17014   6.647   5.380   9.416  1.0620  2.1185 -1.0936
  153SAPE  C21417015   6.615   5.485   9.235 -0.4599 -0.1858 -0.2752
  153SAPE  H14R17016   6.679   5.568   9.269  1.8990 -2.9857  2.8257
  153SAPE  C21517017   6.584   5.475   9.105  0.6083 -0.7032 -0.5379
  153SAPE  H15R17018   6.610   5.560   9.040 -3.1850  0.3291 -0.9417
  153SAPE  C21617019   6.492   5.375   9.044  0.2202  0.6129  0.3456
  153SAPE  H16R17020   6.397   5.422   9.011  0.2176  0.8658  0.7089
  153SAPE  H16S17021   6.474   5.296   9.120 -2.9525  2.2734  1.4931
  153SAPE  C21717022   6.570   5.298   8.934 -0.2988  0.3656  0.2457
  153SAPE  H17R17023   6.511   5.208   8.905  2.5117 -1.5999  0.2554
  153SAPE  H17S17024   6.660   5.245   8.972 -0.5821 -0.6329 -0.4131
  153SAPE  C21817025   6.593   5.380   8.805  0.1309  0.2179  0.7759
  153SAPE  H18R17026   6.660   5.460   8.844  0.4214  0.2651  0.1815
  153SAPE  H18S17027   6.491   5.417   8.780  0.6949 -0.5156 -3.2776
  153SAPE  C21917028   6.657   5.301   8.687  0.2932 -0.6019  0.5360
  153SAPE  H19R17029   6.578   5.234   8.647 -0.1611 -0.8543  1.8120
  153SAPE  H19S17030   6.731   5.223   8.718  2.2489  0.7908 -0.4180
  153SAPE  C22017031   6.731   5.388   8.586  0.5058  0.2732 -0.0102
  153SAPE  H20R17032   6.786   5.459   8.651 -1.5717  0.8788  1.1983
  153SAPE  H20S17033   6.655   5.449   8.531 -1.2187 -2.3522 -0.7314
  153SAPE  H20T17034   6.791   5.326   8.516  2.1577  2.4972 -0.6772
  153SAPE   C3317035   6.233   6.004   9.699 -0.2411  0.0173  0.5479
  153SAPE   H3X17036   6.236   6.115   9.699  0.4537  0.0252 -1.0360
  153SAPE   H3Y17037   6.135   5.967   9.736 -0.8926  1.5033  0.3979
  153SAPE   C3417038   6.254   5.969   9.551  0.3425  0.2559 -0.3654
  153SAPE   H4X17039   6.266   5.859   9.539 -3.0817  0.0193 -2.9585
  153SAPE   H4Y17040   6.347   6.007   9.504 -0.0480  0.0629 -1.3143
  153SAPE   C3517041   6.151   6.030   9.463  0.0023 -0.2516  0.2169
  153SAPE   H5X17042   6.176   6.136   9.441  0.8183 -0.5370 -0.2812
  153SAPE   H5Y17043   6.055   6.027   9.518 -0.0011 -0.7952  0.1932
  153SAPE   C3617044   6.128   5.948   9.337  0.8508 -0.5495 -0.5179
  153SAPE   H6X17045   6.034   5.974   9.282  0.2720 -0.0309  0.6863
  153SAPE   H6Y17046   6.112   5.844   9.371  1.2540  0.2082  2.2127
  153SAPE   C3717047   6.240   5.952   9.231 -0.2883 -0.1345  0.2902
  153SAPE   H7X17048   6.331   5.909   9.279  0.6299  0.9189 -0.4607
  153SAPE   H7Y17049   6.246   6.055   9.192 -0.7224 -0.5297 -0.8576
  153SAPE   C3817050   6.204   5.861   9.113 -0.0265  0.4220  0.3600
  153SAPE   H8X17051   6.125   5.917   9.058 -1.0624 -1.0810  0.2816
  153SAPE   H8Y17052   6.161   5.764   9.143  1.7567 -0.3407  0.5708
  153SAPE   C3917053   6.332   5.838   9.030 -0.5859 -0.1177  0.3802
  153SAPE   H9X17054   6.419   5.799   9.087 -1.4815 -0.2033  1.7539
  153SAPE   H9Y17055   6.360   5.937   8.990  1.5499 -1.0160 -0.5224
  153SAPE  C31017056   6.314   5.751   8.901 -0.4113 -0.3354 -0.4075
  153SAPE  H10X17057   6.317   5.642   8.925  1.2792 -0.4637 -1.0609
  153SAPE  H10Y17058   6.402   5.776   8.839 -0.7017  1.8423 -0.0180
  153SAPE  C31117059   6.191   5.783   8.819  0.5804 -0.9473 -0.0243
  153SAPE  H11X17060   6.188   5.893   8.809  0.4864 -1.0081 -0.7137
  153SAPE  H11Y17061   6.116   5.750   8.895  1.1632  1.3094  1.6349
  153SAPE  C31217062   6.174   5.713   8.682  0.0527  0.1275 -0.8997
  153SAPE  H12X17063   6.065   5.694   8.672  0.1533 -1.1557  0.1491
  153SAPE  H12Y17064   6.228   5.616   8.692 -1.0528 -0.8349 -3.3347
  153SAPE  C31317065   6.222   5.794   8.561 -0.2780 -0.0284  0.0035
  153SAPE  H13X17066   6.325   5.823   8.591 -0.2750  2.4351 -2.1273
  153SAPE  H13Y17067   6.150   5.877   8.545 -0.1822  0.1609  0.5207
  153SAPE  C31417068   6.239   5.715   8.426  0.2481  0.0772 -0.6018
  153SAPE  H14X17069   6.141   5.685   8.383  0.8517  0.0674 -2.0421
  153SAPE  H14Y17070   6.300   5.625   8.447 -0.0763 -0.0708 -0.2904
  153SAPE  C31517071   6.306   5.802   8.317  0.1375 -0.1296 -0.5679
  153SAPE  H15X17072   6.386   5.859   8.369 -0.6268  0.5182 -0.0761
  153SAPE  H15Y17073   6.223   5.869   8.283  1.5108  1.1281 -1.5672
  153SAPE  C31617074   6.367   5.712   8.208  0.4426 -0.6978 -0.1496
  153SAPE  H16X17075   6.304   5.620   8.205  0.0543 -0.4471  0.1445
  153SAPE  H16Y17076   6.468   5.677   8.235  0.6652 -0.3730 -0.5477
  153SAPE  C31717077   6.371   5.769   8.064  0.0046 -0.0110 -0.2411
  153SAPE  H17X17078   6.461   5.834   8.070  0.8719 -1.2837  2.0506
  153SAPE  H17Y17079   6.286   5.837   8.040 -1.7450 -2.0573 -0.1543
  153SAPE  C31817080   6.394   5.670   7.956 -0.0082  0.0555  0.1922
  153SAPE  H18X17081   6.301   5.615   7.930 -1.0478  2.3468 -1.3169
  153SAPE  H18Y17082   6.469   5.595   7.991 -0.3738 -0.3939  0.0266
  153SAPE  H18Z17083   6.427   5.723   7.864 -1.1180  0.1823 -0.1448
  154SAPE     N17084   1.572   2.201  10.748 -0.2499 -0.4501 -0.3188
  154SAPE   HN117085   1.627   2.270  10.803  0.0525 -0.0677 -1.0918
  154SAPE   HN217086   1.483   2.181  10.798  0.2447 -2.5135 -0.1890
  154SAPE   HN317087   1.627   2.114  10.735 -0.2695 -0.5438  0.2056
  154SAPE   C1217088   1.538   2.233  10.604  0.0217  0.0196 -0.7200
  154SAPE  H12A17089   1.636   2.254  10.555  1.2587 -0.4340  1.4047
  154SAPE  H12B17090   1.481   2.329  10.611  1.9179  1.1503  0.0853
  154SAPE   C1117091   1.441   2.128  10.544 -0.1590 -0.5718 -0.8084
  154SAPE  H11A17092   1.516   2.052  10.512 -0.1751 -0.6141 -0.7429
  154SAPE  H11B17093   1.396   2.177  10.455 -2.4844 -1.2627 -0.0616
  154SAPE     P17094   1.235   1.981  10.611 -0.1646  0.1260  0.6902
  154SAPE   O1317095   1.293   1.850  10.568 -0.4381 -0.6632 -0.0325
  154SAPE   O1417096   1.153   1.976  10.732  0.2600 -0.8365  0.1733
  154SAPE   O1217097   1.349   2.084  10.646 -0.2166  0.2010  0.7739
  154SAPE   O1117098   1.154   2.050  10.487 -0.0591  0.0722  0.2221
  154SAPE    C117099   1.093   1.959  10.401  0.3446 -0.1245 -0.0134
  154SAPE    HA17100   1.073   2.005  10.302 -0.2221 -1.5041 -0.5634
  154SAPE    HB17101   1.156   1.870  10.376  0.2219  0.0655 -1.0675
  154SAPE    C217102   0.943   1.927  10.448 -0.2109 -0.9434 -0.6286
  154SAPE    HS17103   0.948   1.886  10.551 -0.4219  0.2325 -0.1251
  154SAPE   O2117104   0.898   1.823  10.366  0.0237 -0.2912  0.3735
  154SAPE   C2117105   0.788   1.753  10.385  0.9785 -0.4367  0.1093
  154SAPE   O2217106   0.717   1.754  10.486  0.2267  0.1880 -0.1123
  154SAPE   C2217107   0.745   1.679  10.257  0.6269 -0.2920 -0.0622
  154SAPE   H2R17108   0.823   1.679  10.177 -1.2521  2.1089 -2.0671
  154SAPE   H2S17109   0.716   1.573  10.275 -0.0523 -0.0429  0.3331
  154SAPE    C317110   0.853   2.055  10.452 -0.2923  1.0997 -0.3999
  154SAPE    HX17111   0.896   2.123  10.529  0.3093  0.8927 -0.5535
  154SAPE    HY17112   0.748   2.035  10.483 -0.8067  3.1553 -0.6152
  154SAPE   O3117113   0.860   2.120  10.324 -0.1632 -0.4188  0.0854
  154SAPE   C3117114   0.824   2.246  10.325 -1.0553  0.6278 -0.2014
  154SAPE   O3217115   0.834   2.317  10.423  0.3008 -1.1627  0.4250
  154SAPE   C3217116   0.770   2.281  10.186  0.4579 -0.0043 -0.1685
  154SAPE   H2X17117   0.819   2.374  10.150  2.3890 -0.9077 -0.0290
  154SAPE   H2Y17118   0.669   2.313  10.220  1.5228  0.6860  2.6188
  154SAPE   C2317119   0.623   1.745  10.187 -0.1476 -0.2315  0.5640
  154SAPE   H3R17120   0.655   1.842  10.142 -1.0155  1.0900  2.6481
  154SAPE   H3S17121   0.544   1.770  10.261 -0.9688  3.2294 -1.2498
  154SAPE   C2417122   0.576   1.659  10.067 -0.3502 -0.2072  0.2210
  154SAPE   H4R17123   0.475   1.684  10.029 -0.5243  0.1308  0.8721
  154SAPE   H4S17124   0.576   1.552  10.094  1.1457 -0.7056 -1.5224
  154SAPE   C2517125   0.667   1.679   9.957  0.5102 -0.1101 -0.8347
  154SAPE   H5R17126   0.765   1.723   9.981  0.7092  0.7772 -2.9835
  154SAPE   C2617127   0.628   1.677   9.833  0.0863  0.4403  0.0247
  154SAPE   H6R17128   0.704   1.701   9.757 -0.1806  1.3350  0.0317
  154SAPE   C2717129   0.492   1.641   9.785  0.0673  0.2710  0.1836
  154SAPE   H7R17130   0.441   1.731   9.745  0.2679 -0.6010 -2.2188
  154SAPE   H7S17131   0.423   1.606   9.865 -0.5293  1.2955  0.1381
  154SAPE   C2817132   0.512   1.536   9.678 -0.0810 -0.1143  0.5101
  154SAPE   H8R17133   0.500   1.431   9.711 -2.8032 -0.2754 -0.7450
  154SAPE   C2917134   0.519   1.569   9.548  0.2026  0.4292  1.0159
  154SAPE   H9R17135   0.524   1.490   9.471 -1.8877  1.3271 -0.1128
  154SAPE  C21017136   0.513   1.711   9.484  0.1581  0.3583  0.2621
  154SAPE  H10R17137   0.616   1.752   9.476 -0.4426  1.8738  0.0020
  154SAPE  H10S17138   0.457   1.778   9.553 -1.4580  0.4780 -1.0784
  154SAPE  C21117139   0.451   1.709   9.345  0.4378 -0.0425  0.1903
  154SAPE  H11R17140   0.537   1.710   9.277  0.3924 -0.8724  0.1092
  154SAPE  C21217141   0.322   1.692   9.307 -0.3293 -0.1515  0.1423
  154SAPE  H12R17142   0.317   1.680   9.198  2.5726  2.2222 -0.3983
  154SAPE  C21317143   0.200   1.681   9.399 -0.5488 -0.4288  0.2029
  154SAPE  H13R17144   0.114   1.718   9.340  0.3322  0.3509 -0.6253
  154SAPE  H13S17145   0.216   1.755   9.480  0.9669 -1.7877  1.2238
  154SAPE  C21417146   0.191   1.544   9.447  0.4416  0.4173 -0.5939
  154SAPE  H14R17147   0.239   1.462   9.391  1.6925  0.2334  0.6769
  154SAPE  C21517148   0.115   1.505   9.555  0.6429 -0.4049  0.1993
  154SAPE  H15R17149   0.102   1.401   9.588  0.8453 -0.1177  1.2226
  154SAPE  C21617150   0.043   1.599   9.654  0.1224 -0.2718 -0.0964
  154SAPE  H16R17151  -0.063   1.567   9.665  0.1805 -0.1747  0.7741
  154SAPE  H16S17152   0.028   1.705   9.623  1.0240  0.0428  0.5223
  154SAPE  C21717153   0.108   1.573   9.794 -0.2562  0.0449 -0.8673
  154SAPE  H17R17154   0.216   1.596   9.795 -0.2354  0.0707  1.3595
  154SAPE  H17S17155   0.104   1.464   9.817 -2.4246  0.3426  0.5102
  154SAPE  C21817156   0.034   1.646   9.901  0.0197 -0.0729 -0.3891
  154SAPE  H18R17157  -0.075   1.628   9.902 -0.5398  2.3785 -2.9617
  154SAPE  H18S17158   0.042   1.755   9.883  0.4068 -0.1113 -0.4636
  154SAPE  C21917159   0.078   1.615  10.043  0.5923 -0.4392 -0.3173
  154SAPE  H19R17160   0.189   1.614  10.036  0.7019  2.1303  0.0585
  154SAPE  H19S17161   0.043   1.513  10.068 -0.4147 -0.4922 -1.7791
  154SAPE  C22017162   0.048   1.714  10.150 -0.1039  0.1658  0.7167
  154SAPE  H20R17163  -0.059   1.712  10.182 -1.1130 -1.1087 -2.3144
  154SAPE  H20S17164   0.066   1.816  10.109 -1.0114 -0.1207 -0.4460
  154SAPE  H20T17165   0.109   1.704  10.242  3.4490 -1.2029 -1.6066
  154SAPE   C3317166   0.766   2.174  10.080 -0.2361  0.0205 -0.0206
  154SAPE   H3X17167   0.705   2.092  10.124 -1.3312  1.1522  0.6194
  154SAPE   H3Y17168   0.868   2.141  10.049 -1.0003 -1.2434 -1.3198
  154SAPE   C3417169   0.701   2.219   9.948 -1.2650  0.7108  0.6885
  154SAPE   H4X17170   0.751   2.309   9.905 -1.1287  0.5801  0.5740
  154SAPE   H4Y17171   0.592   2.237   9.964 -0.8411  2.8849  1.4752
  154SAPE   C3517172   0.703   2.109   9.846 -0.1636  0.3638  0.8341
  154SAPE   H5X17173   0.646   2.027   9.896  0.2910 -0.3927  0.1251
  154SAPE   H5Y17174   0.809   2.082   9.830 -0.1264  0.7858  0.3430
  154SAPE   C3617175   0.631   2.153   9.714 -0.6204  0.0793 -0.4302
  154SAPE   H6X17176   0.646   2.262   9.703 -1.1240  0.2477  0.4186
  154SAPE   H6Y17177   0.524   2.131   9.738  0.2997 -0.4658  4.0505
  154SAPE   C3717178   0.686   2.086   9.591 -0.6589  0.2575  0.2491
  154SAPE   H7X17179   0.682   1.978   9.619  1.0560 -0.1393 -0.8576
  154SAPE   H7Y17180   0.789   2.118   9.564 -1.0171  0.3458 -1.0983
  154SAPE   C3817181   0.582   2.108   9.478 -0.1187 -0.3174  0.3456
  154SAPE   H8X17182   0.558   2.216   9.477 -1.3560 -0.5744  0.8335
  154SAPE   H8Y17183   0.487   2.052   9.490  0.8794 -2.2579 -0.2832
  154SAPE   C3917184   0.647   2.073   9.344  0.1241 -0.3641  0.0137
  154SAPE   H9X17185   0.662   1.963   9.346  2.1585 -0.2027 -1.6952
  154SAPE   H9Y17186   0.747   2.120   9.329 -0.1453  0.3224  0.3076
  154SAPE  C31017187   0.547   2.104   9.233 -0.3678 -0.4092 -0.3054
  154SAPE  H10X17188   0.508   2.208   9.237 -1.3607 -0.6452 -2.2994
  154SAPE  H10Y17189   0.461   2.035   9.250  0.4305 -1.2295  0.5025
  154SAPE  C31117190   0.601   2.077   9.094  0.4735 -0.5684  0.2341
  154SAPE  H11X17191   0.614   1.966   9.086  0.4875 -0.9144  3.4671
  154SAPE  H11Y17192   0.698   2.124   9.066 -0.2333  0.1470 -1.0560
  154SAPE  C31217193   0.510   2.124   8.977 -0.2329 -0.2794 -0.3258
  154SAPE  H12X17194   0.495   2.233   8.992  0.8522 -0.3535  1.5605
  154SAPE  H12Y17195   0.405   2.090   8.988 -1.1466  2.3408 -0.2485
  154SAPE  C31317196   0.555   2.089   8.838  0.5267 -0.7902  0.6322
  154SAPE  H13X17197   0.601   1.989   8.822 -0.5887 -1.1060 -0.7752
  154SAPE  H13Y17198   0.633   2.166   8.816 -0.0281 -0.8711 -1.9311
  154SAPE  C31417199   0.452   2.085   8.725  0.0368  0.1635  0.5201
  154SAPE  H14X17200   0.515   2.088   8.633  0.1622 -0.4460  0.5770
  154SAPE  H14Y17201   0.394   2.180   8.726 -0.7763 -0.3180  0.8292
  154SAPE  C31517202   0.349   1.972   8.730  0.9076 -0.1824  0.7413
  154SAPE  H15X17203   0.302   1.965   8.831  1.3856 -0.3363  0.9543
  154SAPE  H15Y17204   0.403   1.877   8.711 -0.6144 -1.0615  0.6157
  154SAPE  C31617205   0.230   1.989   8.630  0.0182  0.3124  0.4395
  154SAPE  H16X17206   0.270   1.992   8.526 -3.6078  1.3355 -1.1176
  154SAPE  H16Y17207   0.180   2.084   8.658 -2.1514 -0.6558  0.0616
  154SAPE  C31717208   0.142   1.860   8.614 -0.1766 -0.9800 -0.1968
  154SAPE  H17X17209   0.048   1.889   8.562 -0.4582  1.6990  1.5737
  154SAPE  H17Y17210   0.120   1.817   8.714  1.1214 -1.5051 -0.1201
  154SAPE  C31817211   0.205   1.756   8.536 -0.2704  0.2795  0.2133
  154SAPE  H18X17212   0.251   1.789   8.441 -4.7016  0.0314 -2.2910
  154SAPE  H18Y17213   0.128   1.683   8.502 -0.7955  0.2025  1.4901
  154SAPE  H18Z17214   0.285   1.711   8.599  1.4731  1.7274 -0.8967
  155SAPE     N17215   0.737   0.230  10.951  0.0457 -0.1922 -0.1579
  155SAPE   HN117216   0.739   0.133  10.989 -0.9396 -0.6710 -1.2623
  155SAPE   HN217217   0.810   0.283  11.002  1.4888 -0.4841 -1.8100
  155SAPE   HN317218   0.642   0.268  10.970 -0.3980 -0.4436 -1.6843
  155SAPE   C1217219   0.751   0.224  10.801 -0.3691  0.2440  0.1545
  155SAPE  H12A17220   0.763   0.325  10.757 -0.5164  0.3981  0.4651
  155SAPE  H12B17221   0.654   0.186  10.762  1.0778 -0.6429 -2.9222
  155SAPE   C1117222   0.862   0.128  10.762 -0.1215 -0.9609 -0.1586
  155SAPE  H11A17223   0.852   0.113  10.652 -0.1302 -1.7843 -0.0517
  155SAPE  H11B17224   0.835   0.033  10.813 -0.6552 -1.4503 -1.3169
  155SAPE     P17225   1.120   0.091  10.803  0.1978 -0.2452 -0.2443
  155SAPE   O1317226   1.238   0.169  10.759  0.3364  0.2450 -0.0231
  155SAPE   O1417227   1.119   0.038  10.942  0.1804 -0.0650  0.2789
  155SAPE   O1217228   0.989   0.176  10.787  0.4254  0.4824  0.2315
  155SAPE   O1117229   1.093  -0.029  10.703  0.1624  0.1045  0.1726
  155SAPE    C117230   1.106  -0.004  10.556 -0.1140 -0.0348 -0.7762
  155SAPE    HA17231   1.005   0.012  10.512 -0.5734  1.2346  0.6330
  155SAPE    HB17232   1.173   0.083  10.537 -0.8405  0.5525 -0.6732
  155SAPE    C217233   1.178  -0.127  10.492 -0.0680 -0.8710  0.4851
  155SAPE    HS17234   1.257  -0.157  10.563 -1.2477 -0.6445  1.9513
  155SAPE   O2117235   1.225  -0.094  10.359 -0.0908  0.7190  0.1645
  155SAPE   C2117236   1.311  -0.184  10.305  0.2390 -0.0315  0.2307
  155SAPE   O2217237   1.350  -0.287  10.363  0.0037  0.3328  0.0328
  155SAPE   C2217238   1.363  -0.140  10.170  0.1349  0.4144  0.1073
  155SAPE   H2R17239   1.413  -0.042  10.181 -0.1560  0.4813  0.9591
  155SAPE   H2S17240   1.447  -0.209  10.145  0.4969 -0.0456  2.3398
  155SAPE    C317241   1.070  -0.251  10.488  0.0360  0.3108 -0.2073
  155SAPE    HX17242   1.034  -0.277  10.590  0.3419  0.3971 -0.0760
  155SAPE    HY17243   1.136  -0.335  10.458 -1.3738 -0.4052 -1.4586
  155SAPE   O3117244   0.964  -0.226  10.393 -0.2913  0.8197 -0.2484
  155SAPE   C3117245   0.849  -0.290  10.424 -0.1820 -0.0276  0.1127
  155SAPE   O3217246   0.818  -0.349  10.530  0.1260  0.4929  0.3101
  155SAPE   C3217247   0.757  -0.303  10.300 -0.0117 -0.1508  0.3263
  155SAPE   H2X17248   0.725  -0.205  10.259 -0.6323 -0.7865 -0.7411
  155SAPE   H2Y17249   0.661  -0.352  10.327 -0.2143 -1.0320 -1.7970
  155SAPE   C2317250   1.250  -0.134  10.059  0.1296  0.2012  0.4286
  155SAPE   H3R17251   1.292  -0.102   9.961  2.1385 -1.6005  0.6312
  155SAPE   H3S17252   1.165  -0.071  10.093 -0.4629 -0.6269  0.5360
  155SAPE   C2417253   1.196  -0.278  10.036  0.1086  0.4380 -0.3061
  155SAPE   H4R17254   1.100  -0.271   9.979 -0.7700 -0.1859  1.0496
  155SAPE   H4S17255   1.172  -0.336  10.127  1.8183 -1.3120 -0.9126
  155SAPE   C2517256   1.294  -0.374   9.975 -0.1360  0.4555  0.5716
  155SAPE   H5R17257   1.371  -0.425  10.035  1.5297 -1.3277 -2.8445
  155SAPE   C2617258   1.317  -0.412   9.849  0.6689 -0.0152 -0.2442
  155SAPE   H6R17259   1.406  -0.469   9.819  0.9032 -0.3596  1.0400
  155SAPE   C2717260   1.229  -0.349   9.739 -0.9996 -0.4307 -0.6530
  155SAPE   H7R17261   1.123  -0.356   9.774 -1.7289 -1.2975 -2.8401
  155SAPE   H7S17262   1.247  -0.413   9.650 -1.9780  0.7614 -1.7526
  155SAPE   C2817263   1.264  -0.206   9.696  0.5488 -0.1146  0.1270
  155SAPE   H8R17264   1.368  -0.172   9.714  1.1473 -2.0987  0.6554
  155SAPE   C2917265   1.184  -0.145   9.608 -0.2952  0.1622  0.7423
  155SAPE   H9R17266   1.207  -0.042   9.578  0.6372 -0.1848  0.2191
  155SAPE  C21017267   1.062  -0.203   9.552 -0.4497 -0.0822  0.5869
  155SAPE  H10R17268   0.991  -0.121   9.529  3.4069  3.0737 -1.4294
  155SAPE  H10S17269   1.001  -0.255   9.629 -0.5934 -1.8899 -0.6689
  155SAPE  C21117270   1.086  -0.295   9.440  0.4471  0.0851  0.0036
  155SAPE  H11R17271   1.140  -0.389   9.458 -1.4488 -0.9758  0.4225
  155SAPE  C21217272   1.048  -0.269   9.314  0.2669  0.0547  0.9672
  155SAPE  H12R17273   1.079  -0.339   9.235 -0.3507 -0.7597  1.4319
  155SAPE  C21317274   0.987  -0.145   9.261 -0.4500 -0.4949 -0.2628
  155SAPE  H13R17275   0.897  -0.127   9.323 -0.2293  0.5279 -0.2101
  155SAPE  H13S17276   0.953  -0.163   9.157 -0.9063  1.0289 -0.4067
  155SAPE  C21417277   1.090  -0.027   9.265  0.2614  0.2312 -0.1924
  155SAPE  H14R17278   1.122   0.004   9.366  1.7534  0.9509 -0.8536
  155SAPE  C21517279   1.148   0.037   9.160  0.8686  0.3498  0.1615
  155SAPE  H15R17280   1.222   0.116   9.176  0.4583  1.0191 -1.1240
  155SAPE  C21617281   1.111   0.012   9.018  0.3867  0.1870 -0.2128
  155SAPE  H16R17282   1.009   0.055   9.007 -0.1671 -0.6644  1.3461
  155SAPE  H16S17283   1.104  -0.093   8.983 -2.7217 -0.0266  0.7783
  155SAPE  C21717284   1.194   0.096   8.918 -0.1707 -0.6524  0.5223
  155SAPE  H17R17285   1.188   0.203   8.946 -1.6709 -1.0997  2.1288
  155SAPE  H17S17286   1.152   0.084   8.816  0.7333 -0.4181  0.1205
  155SAPE  C21817287   1.334   0.045   8.914 -0.5158  0.0697  0.6569
  155SAPE  H18R17288   1.326  -0.058   8.872  0.6149 -0.7242  2.2708
  155SAPE  H18S17289   1.377   0.046   9.016  0.5022 -0.8336  0.2628
  155SAPE  C21917290   1.424   0.133   8.829 -0.4931  0.1306  0.0670
  155SAPE  H19R17291   1.443   0.230   8.880  1.2430 -0.0953 -0.1062
  155SAPE  H19S17292   1.385   0.154   8.727 -0.4057 -0.1038 -0.0167
  155SAPE  C22017293   1.560   0.061   8.817 -0.4789 -0.0307 -0.4536
  155SAPE  H20R17294   1.540  -0.036   8.767  2.3529 -1.6923  1.3831
  155SAPE  H20S17295   1.603   0.039   8.917  2.8916  2.8790 -1.0366
  155SAPE  H20T17296   1.631   0.117   8.751  1.4060 -1.0288  0.6484
  155SAPE   C3317297   0.830  -0.400  10.205 -0.2669  0.1730  0.2412
  155SAPE   H3X17298   0.879  -0.474  10.272 -0.4388 -0.4751 -0.3348
  155SAPE   H3Y17299   0.909  -0.343  10.152  3.0710 -2.5316  1.9506
  155SAPE   C3417300   0.736  -0.455  10.092 -0.9264 -0.0393  0.0136
  155SAPE   H4X17301   0.687  -0.370  10.040  0.7413  1.7589  1.2392
  155SAPE   H4Y17302   0.647  -0.506  10.135  0.1038 -1.5023  0.4517
  155SAPE   C3517303   0.809  -0.554   9.997  0.6057  0.1506  0.1118
  155SAPE   H5X17304   0.826  -0.641  10.063  0.0415  0.1933  0.3223
  155SAPE   H5Y17305   0.899  -0.491   9.982 -0.2974  0.8988 -2.9542
  155SAPE   C3617306   0.744  -0.598   9.868  0.1985 -0.0954  0.1475
  155SAPE   H6X17307   0.707  -0.509   9.813 -0.7336  0.3234  1.3932
  155SAPE   H6Y17308   0.656  -0.658   9.900  0.2509 -0.2705 -0.0346
  155SAPE   C3717309   0.830  -0.667   9.761 -0.5237 -0.2253 -0.0617
  155SAPE   H7X17310   0.767  -0.696   9.675  0.0858  0.5036 -0.7740
  155SAPE   H7Y17311   0.866  -0.760   9.811 -0.0327 -1.0400 -1.8623
  155SAPE   C3817312   0.948  -0.587   9.706  0.4212 -0.2585  0.1552
  155SAPE   H8X17313   1.024  -0.579   9.787  0.5015 -3.0342  0.4295
  155SAPE   H8Y17314   0.909  -0.485   9.684 -0.2891 -0.3659  0.8408
  155SAPE   C3917315   1.010  -0.655   9.584  0.1873  0.6369  0.3783
  155SAPE   H9X17316   1.019  -0.762   9.611  1.4728  0.6487  0.0507
  155SAPE   H9Y17317   1.117  -0.626   9.581 -0.3710  2.8270 -0.2329
  155SAPE  C31017318   0.943  -0.642   9.448  0.4403  0.2162 -0.5479
  155SAPE  H10X17319   0.932  -0.538   9.409  0.2818  0.1133 -0.7793
  155SAPE  H10Y17320   0.840  -0.683   9.461 -0.7994  2.8140 -1.4643
  155SAPE  C31117321   1.023  -0.734   9.343  0.2174  0.4327  0.7687
  155SAPE  H11X17322   1.057  -0.831   9.383  0.8477 -1.0848 -3.0487
  155SAPE  H11Y17323   1.115  -0.676   9.320  1.6210 -0.6260  3.3922
  155SAPE  C31217324   0.929  -0.756   9.227  0.1167  0.1107  0.2457
  155SAPE  H12X17325   0.914  -0.661   9.171 -0.2944 -0.1554 -0.1025
  155SAPE  H12Y17326   0.839  -0.814   9.257 -0.0756 -0.6901 -1.6728
  155SAPE  C31317327   1.015  -0.846   9.127 -0.7575  0.7909  0.4317
  155SAPE  H13X17328   1.052  -0.941   9.172 -0.0019  1.2542  0.8135
  155SAPE  H13Y17329   1.109  -0.795   9.097 -1.1701  0.4610 -1.5469
  155SAPE  C31417330   0.930  -0.878   9.001  0.2267  0.7761 -0.3825
  155SAPE  H14X17331   0.871  -0.790   8.966 -1.4886 -0.6129 -1.1453
  155SAPE  H14Y17332   0.850  -0.943   9.044  2.1216 -0.9727  0.6365
  155SAPE  C31517333   1.005  -0.947   8.892  1.0113  0.3646  0.5409
  155SAPE  H15X17334   1.056  -1.032   8.941 -0.4008 -1.3316 -0.8064
  155SAPE  H15Y17335   1.084  -0.874   8.861 -0.6604  1.3632 -1.6811
  155SAPE  C31617336   0.919  -0.997   8.777 -0.0164 -0.8127 -0.4300
  155SAPE  H16X17337   0.842  -1.065   8.819  1.0640 -1.3039  0.8672
  155SAPE  H16Y17338   0.974  -1.043   8.692  0.5308  0.1351 -0.6033
  155SAPE  C31717339   0.850  -0.893   8.699 -0.6547  0.7285  0.2009
  155SAPE  H17X17340   0.927  -0.826   8.654  0.4285  0.0529  0.9776
  155SAPE  H17Y17341   0.798  -0.828   8.772 -0.4733  1.9174 -0.7071
  155SAPE  C31817342   0.753  -0.952   8.589  0.1534 -0.1728 -0.9429
  155SAPE  H18X17343   0.713  -0.875   8.519 -1.0815 -0.5157 -0.6364
  155SAPE  H18Y17344   0.658  -0.985   8.636 -0.4368  1.8786 -0.5895
  155SAPE  H18Z17345   0.806  -1.031   8.531  1.2655 -0.2897  0.1978
  156SAPE     N17346   5.699   5.493  10.601 -0.0401 -0.3277 -0.1910
  156SAPE   HN117347   5.746   5.576  10.560  0.1063  0.7210  1.9621
  156SAPE   HN217348   5.776   5.440  10.647  0.6282  2.1996  1.8380
  156SAPE   HN317349   5.656   5.437  10.525  2.3256 -0.2582 -1.6903
  156SAPE   C1217350   5.596   5.545  10.691 -0.1020  0.9715  0.8280
  156SAPE  H12A17351   5.538   5.623  10.637 -1.0954 -0.1286  0.2438
  156SAPE  H12B17352   5.633   5.584  10.789  0.7094  0.7268  0.6266
  156SAPE   C1117353   5.490   5.430  10.725  0.0220 -1.2340 -0.1462
  156SAPE  H11A17354   5.419   5.463  10.804 -1.1666  0.2680 -1.7633
  156SAPE  H11B17355   5.560   5.361  10.777 -0.9182 -2.2684 -0.2119
  156SAPE     P17356   5.292   5.401  10.557 -0.0664 -0.3526 -0.0255
  156SAPE   O1317357   5.189   5.320  10.626 -0.1846  0.3249 -0.5366
  156SAPE   O1417358   5.278   5.549  10.568  0.4718  0.2326 -0.1336
  156SAPE   O1217359   5.431   5.353  10.616 -0.8052  0.0124  0.1162
  156SAPE   O1117360   5.298   5.361  10.403  0.3064  0.6554 -0.6343
  156SAPE    C117361   5.259   5.230  10.375  0.5191  0.3136  0.1155
  156SAPE    HA17362   5.334   5.162  10.420  0.0024 -0.1799  0.2353
  156SAPE    HB17363   5.156   5.216  10.414 -0.4239 -0.8147 -2.5658
  156SAPE    C217364   5.247   5.197  10.221 -0.3107  0.3443 -0.1625
  156SAPE    HS17365   5.228   5.087  10.217 -0.9301  0.3341  2.0056
  156SAPE   O2117366   5.365   5.238  10.153  0.0639 -0.3819  0.0869
  156SAPE   C2117367   5.471   5.165  10.150 -0.4299  0.0840  0.1473
  156SAPE   O2217368   5.483   5.051  10.194  0.5422 -0.5185 -0.1567
  156SAPE   C2217369   5.567   5.222  10.045  0.2023  0.2902 -0.1850
  156SAPE   H2R17370   5.531   5.320  10.006  0.5627  0.5533  0.1302
  156SAPE   H2S17371   5.659   5.231  10.108  0.0970 -1.9022  0.3654
  156SAPE    C317372   5.128   5.263  10.150  0.1526 -0.9681  1.1088
  156SAPE    HX17373   5.128   5.373  10.160  1.4734 -1.0573  2.3146
  156SAPE    HY17374   5.033   5.235  10.200  0.3815 -0.4924  1.8133
  156SAPE   O3117375   5.117   5.212  10.012  0.4191  0.1825 -0.7275
  156SAPE   C3117376   5.157   5.290   9.920 -0.6243 -0.5179  0.2195
  156SAPE   O3217377   5.197   5.404   9.928 -0.7484 -0.2564  0.4285
  156SAPE   C3217378   5.122   5.218   9.793 -0.4523 -0.3457 -0.0034
  156SAPE   H2X17379   5.011   5.208   9.789 -0.3756 -1.3635  0.3233
  156SAPE   H2Y17380   5.147   5.110   9.796  1.0939 -0.0002  0.7324
  156SAPE   C2317381   5.588   5.119   9.929 -0.4329  0.5966  0.4737
  156SAPE   H3R17382   5.493   5.086   9.883  1.2388 -2.8222 -0.9243
  156SAPE   H3S17383   5.641   5.040   9.986  3.3311  2.9009  0.5299
  156SAPE   C2417384   5.679   5.165   9.815  1.0382 -0.1649 -0.1544
  156SAPE   H4R17385   5.690   5.064   9.771  2.8801  0.0528 -0.2358
  156SAPE   H4S17386   5.779   5.200   9.848  1.4026  0.9014 -2.2512
  156SAPE   C2517387   5.618   5.270   9.732  0.2402  0.1396 -0.3278
  156SAPE   H5R17388   5.592   5.362   9.786 -2.1396 -1.3063  1.1834
  156SAPE   C2617389   5.600   5.279   9.603 -0.3412  0.6820  0.0625
  156SAPE   H6R17390   5.539   5.364   9.568 -0.8794  0.9672  1.6146
  156SAPE   C2717391   5.649   5.186   9.499  0.3215  0.0319  0.4147
  156SAPE   H7R17392   5.563   5.133   9.453  0.3185  0.4153 -0.0329
  156SAPE   H7S17393   5.722   5.116   9.543  0.1133 -0.0839  0.5786
  156SAPE   C2817394   5.734   5.272   9.397  0.5132  0.0671 -0.5411
  156SAPE   H8R17395   5.776   5.361   9.445  0.6355 -1.2222  1.8893
  156SAPE   C2917396   5.749   5.244   9.272  0.1336 -0.1714 -0.1477
  156SAPE   H9R17397   5.817   5.308   9.213 -0.1730  1.3635  1.0876
  156SAPE  C21017398   5.698   5.128   9.194  0.0506  0.5724  0.1854
  156SAPE  H10R17399   5.639   5.059   9.258  1.8590 -0.9141  0.3501
  156SAPE  H10S17400   5.786   5.067   9.162 -0.1371 -0.2747  1.2537
  156SAPE  C21117401   5.625   5.178   9.079  0.1896  0.0650 -0.3363
  156SAPE  H11R17402   5.576   5.273   9.107 -0.6600 -0.2863 -0.5948
  156SAPE  C21217403   5.628   5.123   8.960 -0.4192 -0.1577  0.6612
  156SAPE  H12R17404   5.565   5.165   8.880 -0.1679 -0.0212  0.5360
  156SAPE  C21317405   5.703   5.001   8.909 -0.0907  0.3615  0.1522
  156SAPE  H13R17406   5.624   4.933   8.870 -0.0808 -0.1768  1.0426
  156SAPE  H13S17407   5.732   4.943   8.999 -1.2442 -1.1308 -0.3915
  156SAPE  C21417408   5.818   5.010   8.817  0.1016  0.4451  0.4083
  156SAPE  H14R17409   5.915   4.980   8.858  1.3047  0.5000 -2.1824
  156SAPE  C21517410   5.813   5.047   8.684  0.4278 -0.3255 -0.5845
  156SAPE  H15R17411   5.909   5.057   8.633  1.6688 -1.6235  1.3546
  156SAPE  C21617412   5.688   5.087   8.609 -0.1427 -0.5307  0.2285
  156SAPE  H16R17413   5.701   5.193   8.577 -1.1729 -0.4111  0.1971
  156SAPE  H16S17414   5.598   5.092   8.674  0.9001  0.5252  1.6650
  156SAPE  C21717415   5.656   5.010   8.484  0.1403  1.4097 -0.3277
  156SAPE  H17R17416   5.622   4.909   8.516  0.2609  0.5396 -2.7165
  156SAPE  H17S17417   5.747   4.996   8.422  0.4441  1.0574  0.1833
  156SAPE  C21817418   5.561   5.077   8.397  0.1295  0.2225 -0.3543
  156SAPE  H18R17419   5.600   5.173   8.358  1.1684  0.4121  1.0651
  156SAPE  H18S17420   5.478   5.117   8.460  1.0804  2.0438 -0.2014
  156SAPE  C21917421   5.515   4.989   8.280  0.0367 -0.5479  0.8699
  156SAPE  H19R17422   5.432   5.035   8.221  0.2061 -2.3362 -0.8710
  156SAPE  H19S17423   5.461   4.901   8.322 -1.3721 -0.1896 -0.0771
  156SAPE  C22017424   5.612   4.934   8.177  0.1093  0.2861 -0.3823
  156SAPE  H20R17425   5.700   4.888   8.227 -0.5736 -0.1884  0.4196
  156SAPE  H20S17426   5.659   5.003   8.104  0.3165  0.0925 -0.4341
  156SAPE  H20T17427   5.564   4.854   8.117 -1.6608  1.7213 -0.9858
  156SAPE   C3317428   5.171   5.285   9.662  0.3731  0.3986 -0.6556
  156SAPE   H3X17429   5.282   5.279   9.658  0.3436 -3.0604  0.7559
  156SAPE   H3Y17430   5.142   5.392   9.653 -0.3180  0.5405  2.3415
  156SAPE   C3417431   5.126   5.226   9.534 -0.4208 -0.8276 -0.5765
  156SAPE   H4X17432   5.019   5.248   9.518 -0.2502  0.2270 -0.3115
  156SAPE   H4Y17433   5.144   5.116   9.538  2.6668 -0.3985  0.2123
  156SAPE   C3517434   5.205   5.271   9.411 -0.6066 -0.0481 -0.3164
  156SAPE   H5X17435   5.307   5.227   9.417 -0.7401 -0.2513  0.7921
  156SAPE   H5Y17436   5.212   5.380   9.427  2.5575 -0.6030  4.0348
  156SAPE   C3617437   5.119   5.242   9.284 -0.0493 -0.5584 -0.4269
  156SAPE   H6X17438   5.014   5.276   9.296 -0.5241 -2.3139  0.6300
  156SAPE   H6Y17439   5.114   5.132   9.272  1.2835 -0.6467 -0.3470
  156SAPE   C3717440   5.175   5.301   9.153 -0.1788  0.4120  0.0127
  156SAPE   H7X17441   5.276   5.261   9.127  0.0600 -0.9969  2.7521
  156SAPE   H7Y17442   5.192   5.410   9.164  1.6536  0.4218 -2.1441
  156SAPE   C3817443   5.090   5.272   9.035 -0.3907 -0.2872  0.9925
  156SAPE   H8X17444   4.989   5.312   9.056  1.1830  3.6527  1.9709
  156SAPE   H8Y17445   5.074   5.163   9.020  1.5447 -0.2575 -2.2533
  156SAPE   C3917446   5.137   5.351   8.912 -0.0299  0.2189 -0.3765
  156SAPE   H9X17447   5.121   5.460   8.930  1.2797  0.2912  0.4887
  156SAPE   H9Y17448   5.071   5.327   8.827  3.4144 -2.5745 -2.5404
  156SAPE  C31017449   5.278   5.319   8.858  0.2843  0.4101  0.3448
  156SAPE  H10X17450   5.281   5.210   8.881 -2.1614  0.5569  1.6999
  156SAPE  H10Y17451   5.357   5.362   8.924  0.5318 -0.3885  0.5787
  156SAPE  C31117452   5.306   5.365   8.717 -0.0963  0.0608 -0.2610
  156SAPE  H11X17453   5.410   5.330   8.699 -1.0915 -4.6984  1.7020
  156SAPE  H11Y17454   5.309   5.476   8.717  1.2465  0.1568  3.4174
  156SAPE  C31217455   5.214   5.306   8.607  0.3948  0.2569  0.5779
  156SAPE  H12X17456   5.108   5.336   8.616  0.4481  0.2749  1.1795
  156SAPE  H12Y17457   5.219   5.195   8.608  0.3833  0.2374 -0.2931
  156SAPE  C31317458   5.256   5.347   8.459  0.6288  0.2525  0.2186
  156SAPE  H13X17459   5.348   5.293   8.429  1.2120  0.7377  1.1017
  156SAPE  H13Y17460   5.281   5.455   8.462  2.4459 -0.1650  0.9832
  156SAPE  C31417461   5.140   5.331   8.355 -1.0213  0.1009  0.0678
  156SAPE  H14X17462   5.153   5.401   8.270  0.1754  1.1796  1.0945
  156SAPE  H14Y17463   5.045   5.344   8.411  0.9239 -0.5565  3.8944
  156SAPE  C31517464   5.136   5.192   8.287 -0.1356  0.3864  0.2771
  156SAPE  H15X17465   5.172   5.110   8.354  3.7961  1.1290 -0.6511
  156SAPE  H15Y17466   5.208   5.194   8.202 -0.4452 -1.1413 -0.0614
  156SAPE  C31617467   4.999   5.150   8.234 -0.4949  0.2085 -0.2919
  156SAPE  H16X17468   4.942   5.139   8.329 -2.9658 -1.9613 -1.8911
  156SAPE  H16Y17469   5.004   5.045   8.200 -3.5759 -0.3595  0.6716
  156SAPE  C31717470   4.933   5.230   8.124  0.3148  0.3657 -0.0626
  156SAPE  H17X17471   5.011   5.252   8.048 -1.4108  0.1999 -1.9739
  156SAPE  H17Y17472   4.903   5.329   8.164  1.0738  2.2814 -3.8077
  156SAPE  C31817473   4.824   5.150   8.055 -0.3254 -0.1958 -0.8874
  156SAPE  H18X17474   4.776   5.208   7.974 -0.6918  0.9025  0.0786
  156SAPE  H18Y17475   4.748   5.113   8.127  0.2715 -1.6101 -0.9520
  156SAPE  H18Z17476   4.872   5.055   8.022 -0.2853  0.6174 -3.3482
  157SAPE     N17477   5.537   6.245  10.718 -0.4756  0.2235  0.2722
  157SAPE   HN117478   5.598   6.252  10.801  1.2271 -1.0314 -0.7963
  157SAPE   HN217479   5.588   6.291  10.639 -1.2208  2.1238  0.8515
  157SAPE   HN317480   5.447   6.293  10.738 -0.5333 -0.0877  0.7640
  157SAPE   C1217481   5.511   6.106  10.679  0.3131  0.0886  0.1228
  157SAPE  H12A17482   5.423   6.066  10.733  0.5887 -0.2461  0.3350
  157SAPE  H12B17483   5.601   6.044  10.703 -0.2663 -0.2001  1.6188
  157SAPE   C1117484   5.476   6.093  10.523 -0.2365 -0.0588 -0.8468
  157SAPE  H11A17485   5.453   5.987  10.499 -0.6752 -0.2677  0.4431
  157SAPE  H11B17486   5.577   6.121  10.485  0.8101 -1.1791  0.9222
  157SAPE     P17487   5.216   6.116  10.492 -0.3642 -0.2222 -0.5649
  157SAPE   O1317488   5.176   6.122  10.638  0.6780  0.2592  0.2551
  157SAPE   O1417489   5.128   6.190  10.397 -0.1586  0.0825  0.1400
  157SAPE   O1217490   5.366   6.169  10.473  0.5565 -0.4610 -0.0774
  157SAPE   O1117491   5.222   5.960  10.455 -0.0268  0.4120 -0.5020
  157SAPE    C117492   5.231   5.899  10.328 -0.7038 -0.6083  0.1676
  157SAPE    HA17493   5.140   5.839  10.310  0.7867 -3.0398  0.2799
  157SAPE    HB17494   5.249   5.977  10.250  1.9856 -0.7203  0.5863
  157SAPE    C217495   5.347   5.801  10.320 -0.2520  0.2360 -0.2115
  157SAPE    HS17496   5.369   5.791  10.429 -0.5226  2.3364  0.0737
  157SAPE   O2117497   5.468   5.853  10.264 -0.0382  0.6846  0.3263
  157SAPE   C2117498   5.576   5.779  10.301 -0.3486 -0.0723  0.1283
  157SAPE   O2217499   5.568   5.676  10.375 -0.1767 -0.9126  0.3715
  157SAPE   C2217500   5.697   5.852  10.241  0.3356  0.2330  0.7703
  157SAPE   H2R17501   5.702   5.948  10.296  0.2996  1.8563 -1.8712
  157SAPE   H2S17502   5.789   5.789  10.250  0.8366  0.8950  0.4047
  157SAPE    C317503   5.295   5.670  10.252 -0.5914  0.2653 -0.7195
  157SAPE    HX17504   5.202   5.648  10.308 -1.2909 -0.5253 -2.1323
  157SAPE    HY17505   5.359   5.579  10.257  1.0370  1.4125  0.3969
  157SAPE   O3117506   5.263   5.704  10.116  0.5107  0.3810  0.0652
  157SAPE   C3117507   5.359   5.673  10.024 -0.4569 -0.3355  0.0529
  157SAPE   O3217508   5.471   5.624  10.047  0.4179 -0.3024  0.0971
  157SAPE   C3217509   5.299   5.704   9.888  0.4944 -0.3858  0.5661
  157SAPE   H2X17510   5.284   5.815   9.886  0.0115 -0.4303 -2.0330
  157SAPE   H2Y17511   5.197   5.661   9.888  0.4853 -0.3836  1.6086
  157SAPE   C2317512   5.682   5.899  10.094 -0.2233 -0.3350  1.1475
  157SAPE   H3R17513   5.589   5.956  10.078 -0.9316 -1.3978  1.3976
  157SAPE   H3S17514   5.683   5.806  10.033  1.2249  0.7256 -0.5570
  157SAPE   C2417515   5.813   5.970  10.062 -0.2697 -0.3322 -0.0612
  157SAPE   H4R17516   5.890   5.891  10.047 -1.2889 -1.3758  0.1525
  157SAPE   H4S17517   5.845   6.020  10.156 -1.8704  1.6391 -0.4980
  157SAPE   C2517518   5.795   6.078   9.957 -0.1771 -1.0616 -0.2795
  157SAPE   H5R17519   5.758   6.175   9.994  0.4344 -1.1409  0.5422
  157SAPE   C2617520   5.805   6.058   9.827 -0.1065  0.4433 -0.6887
  157SAPE   H6R17521   5.789   6.136   9.751  0.0233  0.6165 -0.5367
  157SAPE   C2717522   5.847   5.927   9.766  0.4501 -0.0676 -0.5011
  157SAPE   H7R17523   5.941   5.894   9.814 -0.7238 -2.4489  0.2779
  157SAPE   H7S17524   5.881   5.955   9.663  0.2973 -0.5665 -0.6884
  157SAPE   C2817525   5.743   5.811   9.760 -1.0903  0.0192  0.2106
  157SAPE   H8R17526   5.666   5.802   9.839 -1.0964  1.6905  0.4260
  157SAPE   C2917527   5.736   5.725   9.656 -0.6259 -0.2011 -0.2049
  157SAPE   H9R17528   5.669   5.640   9.673 -1.5569  0.5035 -0.2842
  157SAPE  C21017529   5.810   5.728   9.520  0.5693 -1.2624  0.1714
  157SAPE  H10R17530   5.797   5.629   9.471  0.4644  0.1658 -2.8746
  157SAPE  H10S17531   5.921   5.740   9.527  0.2993  1.2293  1.0478
  157SAPE  C21117532   5.747   5.831   9.436  0.2906  0.0750  0.6718
  157SAPE  H11R17533   5.727   5.926   9.488 -0.2141  0.2740  0.1344
  157SAPE  C21217534   5.701   5.824   9.308 -0.1701  0.3043 -0.3555
  157SAPE  H12R17535   5.644   5.909   9.266  0.1175  0.1696 -1.0213
  157SAPE  C21317536   5.706   5.710   9.208 -0.3372 -0.1353  0.2655
  157SAPE  H13R17537   5.631   5.733   9.130  0.7873  0.6652 -0.6184
  157SAPE  H13S17538   5.680   5.614   9.258  1.0878  0.3432  2.0515
  157SAPE  C21417539   5.851   5.694   9.157  0.0951 -0.1520  0.0409
  157SAPE  H14R17540   5.928   5.749   9.213 -1.2040 -0.6290  2.4423
  157SAPE  C21517541   5.888   5.614   9.058  0.9741  0.7578  0.2693
  157SAPE  H15R17542   5.993   5.614   9.026 -0.0261  1.9290 -3.4834
  157SAPE  C21617543   5.795   5.523   8.980 -0.2899  0.0667 -0.5108
  157SAPE  H16R17544   5.688   5.549   8.993  0.0350  0.7565  0.9736
  157SAPE  H16S17545   5.800   5.413   8.998 -0.1896 -0.2981 -2.5138
  157SAPE  C21717546   5.816   5.537   8.827  0.3500  0.2639 -0.1430
  157SAPE  H17R17547   5.908   5.480   8.803  0.1040 -0.3303  0.3043
  157SAPE  H17S17548   5.835   5.642   8.795  1.7344 -0.1307 -0.6890
  157SAPE  C21817549   5.702   5.473   8.745  0.2660  0.1645 -0.0477
  157SAPE  H18R17550   5.606   5.512   8.784 -0.3697  0.1755 -1.5624
  157SAPE  H18S17551   5.704   5.364   8.766  0.4305  0.7503  3.7579
  157SAPE  C21917552   5.729   5.517   8.600 -0.8524  0.6504  0.6665
  157SAPE  H19R17553   5.696   5.441   8.526  0.6836  0.7200 -0.1187
  157SAPE  H19S17554   5.837   5.523   8.575 -0.7081 -1.9964  0.3289
  157SAPE  C22017555   5.659   5.649   8.558 -0.7273  0.2719 -0.3374
  157SAPE  H20R17556   5.549   5.647   8.569 -0.5817  0.1000  1.5290
  157SAPE  H20S17557   5.680   5.664   8.450 -0.8691 -2.3590 -0.8115
  157SAPE  H20T17558   5.694   5.731   8.624 -2.6083  0.5019  0.4200
  157SAPE   C3317559   5.368   5.656   9.759  0.9750  0.0386  0.5764
  157SAPE   H3X17560   5.382   5.546   9.765 -1.6447 -0.2971  2.4019
  157SAPE   H3Y17561   5.466   5.705   9.739  0.3582  1.8888  1.7797
  157SAPE   C3417562   5.289   5.673   9.624 -0.1448 -0.1077  0.6762
  157SAPE   H4X17563   5.244   5.774   9.634 -0.1276 -0.1418  1.1402
  157SAPE   H4Y17564   5.218   5.588   9.616 -0.1244 -0.1977  1.3677
  157SAPE   C3517565   5.372   5.683   9.489  0.3175  0.1374  0.0849
  157SAPE   H5X17566   5.450   5.606   9.477 -1.3433 -1.7945  0.9938
  157SAPE   H5Y17567   5.428   5.779   9.491  1.3499 -0.4589  0.5597
  157SAPE   C3617568   5.271   5.688   9.368 -0.1324 -0.3693 -0.1920
  157SAPE   H6X17569   5.217   5.785   9.372 -0.3929 -0.2592 -3.5721
  157SAPE   H6Y17570   5.202   5.603   9.387 -0.6836 -0.2558 -1.5863
  157SAPE   C3717571   5.338   5.687   9.232 -0.0630 -0.1944  1.0932
  157SAPE   H7X17572   5.393   5.595   9.205  0.8501  0.6968 -0.2522
  157SAPE   H7Y17573   5.414   5.768   9.234 -1.9142  1.7106 -0.7038
  157SAPE   C3817574   5.249   5.739   9.113 -0.4764  0.0815  0.6328
  157SAPE   H8X17575   5.214   5.838   9.149  0.1579 -0.7081  3.7737
  157SAPE   H8Y17576   5.165   5.666   9.110  0.3881 -1.1428  2.9343
  157SAPE   C3917577   5.332   5.735   8.988  0.1471  0.3621  1.0197
  157SAPE   H9X17578   5.347   5.626   8.969 -1.5408  0.6742 -3.3451
  157SAPE   H9Y17579   5.432   5.783   8.992  0.2259  0.3883 -0.4766
  157SAPE  C31017580   5.265   5.791   8.857  0.1936 -0.0786 -1.1439
  157SAPE  H10X17581   5.315   5.759   8.763  1.1806 -3.8740  0.4792
  157SAPE  H10Y17582   5.272   5.902   8.853 -0.7276  0.0769  0.7260
  157SAPE  C31117583   5.116   5.751   8.838 -0.0620  0.0031  0.0811
  157SAPE  H11X17584   5.050   5.805   8.908 -2.0337 -0.6382 -1.1893
  157SAPE  H11Y17585   5.111   5.640   8.846  3.2134 -0.3705 -1.4037
  157SAPE  C31217586   5.058   5.791   8.704 -0.3405  0.5619  0.1828
  157SAPE  H12X17587   5.094   5.893   8.676  1.3432 -0.7993 -3.0587
  157SAPE  H12Y17588   4.947   5.798   8.708 -0.7399 -3.4255  0.1600
  157SAPE  C31317589   5.096   5.701   8.583  0.2838 -0.0099  0.2277
  157SAPE  H13X17590   5.073   5.599   8.619  1.8590 -0.0773  1.1207
  157SAPE  H13Y17591   5.200   5.690   8.544 -0.1985 -0.6790 -0.9425
  157SAPE  C31417592   5.004   5.747   8.468 -0.2363 -0.1888  0.2498
  157SAPE  H14X17593   5.003   5.857   8.452 -1.2885 -0.5990 -3.4416
  157SAPE  H14Y17594   4.903   5.718   8.502 -0.8273  1.5919  0.1298
  157SAPE  C31517595   5.026   5.667   8.339 -0.4956  0.7085 -0.1706
  157SAPE  H15X17596   5.023   5.558   8.361  0.3876  0.6009 -0.5450
  157SAPE  H15Y17597   5.130   5.679   8.301  0.3505  0.0820  1.8141
  157SAPE  C31617598   4.927   5.715   8.228  0.0820 -0.0826  0.6745
  157SAPE  H16X17599   4.942   5.824   8.212 -0.6552  0.2843  2.2789
  157SAPE  H16Y17600   4.820   5.704   8.256 -0.1337  0.7725  0.2155
  157SAPE  C31717601   4.951   5.639   8.094  0.5200 -0.2948 -0.3010
  157SAPE  H17X17602   4.932   5.532   8.119 -0.1205  0.0440  0.7687
  157SAPE  H17Y17603   5.055   5.655   8.061  0.5444  1.0846  0.3326
  157SAPE  C31817604   4.851   5.675   7.985 -0.2433  0.7592  0.0056
  157SAPE  H18X17605   4.854   5.786   7.981  3.6161  0.8447  1.4553
  157SAPE  H18Y17606   4.748   5.635   7.997  0.8702 -1.7523  2.2857
  157SAPE  H18Z17607   4.890   5.630   7.891  2.7661  2.4131  0.3733
  158SAPE     N17608   2.104   4.278  10.472  0.7758 -0.0612 -0.0592
  158SAPE   HN117609   2.172   4.317  10.403  0.7183  1.8092  0.8867
  158SAPE   HN217610   2.071   4.183  10.444  0.3203  0.7458 -2.4692
  158SAPE   HN317611   2.020   4.337  10.482  0.0460 -0.8580 -1.2229
  158SAPE   C1217612   2.165   4.272  10.614  0.7778  0.6735  1.1051
  158SAPE  H12A17613   2.124   4.179  10.658  0.3061  0.3854  0.1079
  158SAPE  H12B17614   2.118   4.358  10.667  0.3713  0.0474  1.7781
  158SAPE   C1117615   2.318   4.284  10.610  0.0439 -0.6195 -0.2357
  158SAPE  H11A17616   2.355   4.307  10.712  0.8259  2.9269 -1.1776
  158SAPE  H11B17617   2.339   4.372  10.546  1.0496  0.5913  1.6734
  158SAPE     P17618   2.532   4.163  10.532 -0.3822  0.0879 -0.2184
  158SAPE   O1317619   2.604   4.256  10.626 -0.2919 -0.3651  0.1321
  158SAPE   O1417620   2.585   4.024  10.539  0.1297 -0.7788 -0.1319
  158SAPE   O1217621   2.375   4.166  10.561 -0.1314 -0.1977  0.2146
  158SAPE   O1117622   2.554   4.227  10.391 -0.1764  0.1906  0.0993
  158SAPE    C117623   2.675   4.192  10.321 -0.1258  0.2253  0.0362
  158SAPE    HA17624   2.696   4.271  10.246  0.3812  0.2533  0.2043
  158SAPE    HB17625   2.764   4.189  10.387  1.8613 -1.4015 -2.5139
  158SAPE    C217626   2.671   4.058  10.238  0.0266  0.3757  0.0379
  158SAPE    HS17627   2.664   3.978  10.315  0.9447  2.5401  2.5249
  158SAPE   O2117628   2.805   4.047  10.174  0.3492 -0.1802 -0.4175
  158SAPE   C2117629   2.837   3.932  10.133  0.2538 -0.2246 -0.3576
  158SAPE   O2217630   2.762   3.837  10.136  0.0133  0.8485 -1.1903
  158SAPE   C2217631   2.982   3.930  10.076  0.0779  0.8129  0.0031
  158SAPE   H2R17632   3.052   3.941  10.161  2.2413  0.6499 -1.6875
  158SAPE   H2S17633   2.998   3.828  10.034  0.9941  0.1751  1.8034
  158SAPE    C317634   2.551   4.050  10.143 -0.2999 -0.5987 -0.3691
  158SAPE    HX17635   2.453   4.041  10.195 -1.1049 -0.5547 -1.8364
  158SAPE    HY17636   2.560   3.956  10.084  2.8677  0.0488 -1.1037
  158SAPE   O3117637   2.556   4.171  10.065  0.0597 -0.3621  0.9955
  158SAPE   C3117638   2.434   4.211  10.014  1.0329 -0.0040 -0.9458
  158SAPE   O3217639   2.340   4.137  10.016  0.7741 -0.1087 -0.2805
  158SAPE   C3217640   2.447   4.350   9.958 -0.3378 -0.1090  0.7039
  158SAPE   H2X17641   2.551   4.353   9.921 -0.5553 -1.9271 -0.1291
  158SAPE   H2Y17642   2.444   4.421  10.044  4.0332  0.3993  0.6613
  158SAPE   C2317643   2.995   4.040   9.963  0.7202 -0.5471 -0.3625
  158SAPE   H3R17644   3.101   4.048   9.930  0.2912 -0.3442 -1.7583
  158SAPE   H3S17645   2.960   4.135  10.009  0.4008 -0.4661 -0.7637
  158SAPE   C2417646   2.918   4.003   9.835  0.2487  0.3482 -0.0977
  158SAPE   H4R17647   2.935   3.899   9.800  0.1626  0.1179  0.5508
  158SAPE   H4S17648   2.969   4.063   9.756  1.1498 -2.8345 -2.1068
  158SAPE   C2517649   2.767   4.035   9.831 -0.2000 -0.0576 -0.8112
  158SAPE   H5R17650   2.726   4.137   9.841 -2.0991 -0.6134 -2.2474
  158SAPE   C2617651   2.681   3.936   9.810 -0.4236  0.4884  0.1478
  158SAPE   H6R17652   2.578   3.966   9.788 -0.8066 -0.6294  0.3214
  158SAPE   C2717653   2.714   3.788   9.805  0.6991  0.1062 -0.1290
  158SAPE   H7R17654   2.764   3.757   9.900  1.4228  3.5557  0.7961
  158SAPE   H7S17655   2.789   3.773   9.724 -0.8762 -0.2833 -1.5665
  158SAPE   C2817656   2.600   3.691   9.802  0.1030 -1.0890 -0.0811
  158SAPE   H8R17657   2.539   3.695   9.893  0.0072  1.2330 -0.1687
  158SAPE   C2917658   2.569   3.619   9.699  0.3375 -0.0122  0.2994
  158SAPE   H9R17659   2.476   3.561   9.709 -1.0528  2.3383  1.6473
  158SAPE  C21017660   2.639   3.594   9.566 -0.1730 -0.4573  0.6331
  158SAPE  H10R17661   2.644   3.484   9.553  1.6714 -0.1668 -1.8825
  158SAPE  H10S17662   2.742   3.637   9.563  0.3141 -1.6280  0.0046
  158SAPE  C21117663   2.553   3.650   9.462  0.7708  0.5597  0.0976
  158SAPE  H11R17664   2.445   3.653   9.483  0.9127  0.2744  0.9237
  158SAPE  C21217665   2.592   3.701   9.342  0.4584 -0.2468 -0.5312
  158SAPE  H12R17666   2.517   3.725   9.265 -0.4858 -1.7489 -0.1049
  158SAPE  C21317667   2.734   3.709   9.294 -0.4495  0.3669 -0.2669
  158SAPE  H13R17668   2.733   3.704   9.183 -0.5121 -1.5094 -0.2243
  158SAPE  H13S17669   2.790   3.616   9.318  0.0904  1.2339  2.0568
  158SAPE  C21417670   2.807   3.833   9.345  0.1934  0.2816  0.8500
  158SAPE  H14R17671   2.888   3.803   9.414  0.8562 -1.9687 -0.8093
  158SAPE  C21517672   2.790   3.964   9.316 -0.5123 -0.6405  0.5541
  158SAPE  H15R17673   2.863   4.035   9.355  0.1703 -1.5737  1.0113
  158SAPE  C21617674   2.686   4.033   9.227 -0.2994  0.4987  0.1411
  158SAPE  H16R17675   2.620   3.958   9.178  2.8918 -2.6279  0.2490
  158SAPE  H16S17676   2.743   4.074   9.141  0.9968 -1.0334  0.2247
  158SAPE  C21717677   2.618   4.151   9.290 -0.0322 -0.7319 -0.1845
  158SAPE  H17R17678   2.552   4.194   9.212 -1.9787 -2.7883  0.2286
  158SAPE  H17S17679   2.691   4.228   9.322 -0.9247 -0.2515  0.7557
  158SAPE  C21817680   2.522   4.098   9.400  0.3857 -0.1407 -0.2698
  158SAPE  H18R17681   2.574   4.015   9.453 -1.0960 -1.0942 -0.2533
  158SAPE  H18S17682   2.438   4.049   9.346  1.7755  0.2420 -2.9482
  158SAPE  C21917683   2.477   4.205   9.495  0.3383 -0.1661  0.1091
  158SAPE  H19R17684   2.390   4.165   9.552  0.3834 -3.6312 -1.9247
  158SAPE  H19S17685   2.434   4.290   9.438 -0.4485 -1.1543 -0.8196
  158SAPE  C22017686   2.590   4.251   9.588  0.3398  0.2083  0.3140
  158SAPE  H20R17687   2.626   4.162   9.644 -1.1165 -1.3709 -1.1321
  158SAPE  H20S17688   2.561   4.337   9.652  1.5580  1.4270 -0.6998
  158SAPE  H20T17689   2.678   4.288   9.530  0.3360  2.1169  1.4429
  158SAPE   C3317690   2.353   4.365   9.835  0.3300  0.1399 -0.2680
  158SAPE   H3X17691   2.353   4.275   9.770  0.9677  0.4282 -0.6785
  158SAPE   H3Y17692   2.395   4.449   9.775 -0.4077  0.6102 -0.1292
  158SAPE   C3417693   2.201   4.393   9.864 -0.0254 -0.3957 -0.0037
  158SAPE   H4X17694   2.209   4.500   9.891  1.7082 -0.3558 -0.5146
  158SAPE   H4Y17695   2.174   4.329   9.951  1.9403  0.5870  1.4224
  158SAPE   C3517696   2.108   4.361   9.746  0.0984 -0.1584  0.7622
  158SAPE   H5X17697   2.006   4.384   9.782  0.3488  1.5498  0.4602
  158SAPE   H5Y17698   2.127   4.253   9.728  2.3568  0.3052 -0.0467
  158SAPE   C3617699   2.135   4.436   9.613 -0.4117  0.3499 -0.2359
  158SAPE   H6X17700   2.230   4.403   9.568 -0.8118  0.9923 -1.6101
  158SAPE   H6Y17701   2.148   4.547   9.615 -2.7230  0.7478 -2.2105
  158SAPE   C3717702   2.028   4.404   9.507 -0.3774 -0.0271 -0.1343
  158SAPE   H7X17703   1.931   4.450   9.534 -0.3296  1.1130 -1.7428
  158SAPE   H7Y17704   2.012   4.294   9.493  0.0911  0.0362 -1.2543
  158SAPE   C3817705   2.079   4.459   9.378  0.0460 -0.0755 -0.0720
  158SAPE   H8X17706   2.183   4.431   9.353 -0.6665 -1.5190 -1.6972
  158SAPE   H8Y17707   2.090   4.569   9.389  0.8390 -0.2313  0.7536
  158SAPE   C3917708   1.995   4.436   9.245 -0.4376  0.4159 -0.1475
  158SAPE   H9X17709   2.010   4.330   9.213  2.0434  0.6541  0.0468
  158SAPE   H9Y17710   2.037   4.512   9.176 -1.2943  0.4930 -0.6094
  158SAPE  C31017711   1.841   4.461   9.257  0.1859 -0.5637 -0.0717
  158SAPE  H10X17712   1.837   4.561   9.303  1.7613 -0.8508  0.7669
  158SAPE  H10Y17713   1.785   4.401   9.331 -1.7762  2.2074  0.8385
  158SAPE  C31117714   1.776   4.458   9.116  0.0811  0.3872 -0.8515
  158SAPE  H11X17715   1.823   4.535   9.051  0.7915  0.5674 -0.1319
  158SAPE  H11Y17716   1.679   4.508   9.137  0.4087  0.7496 -0.1878
  158SAPE  C31217717   1.777   4.322   9.040 -0.0181 -0.0607  0.2824
  158SAPE  H12X17718   1.726   4.248   9.106 -1.2943  0.6295  0.1093
  158SAPE  H12Y17719   1.879   4.291   9.012  0.1564  0.5269  0.2382
  158SAPE  C31317720   1.699   4.335   8.911 -0.4596  0.2466  0.2851
  158SAPE  H13X17721   1.747   4.408   8.842  1.5425  0.5972  1.9506
  158SAPE  H13Y17722   1.598   4.374   8.936  0.0489  0.0635  2.8217
  158SAPE  C31417723   1.680   4.202   8.828  0.4120  0.4886 -0.8072
  158SAPE  H14X17724   1.628   4.130   8.895 -1.5770  1.0182 -1.6940
  158SAPE  H14Y17725   1.783   4.163   8.812 -0.9464 -3.0469 -2.0168
  158SAPE  C31517726   1.591   4.225   8.710  0.9303 -0.3968 -0.5430
  158SAPE  H15X17727   1.618   4.317   8.653  1.4226  0.2552  0.6966
  158SAPE  H15Y17728   1.486   4.237   8.743  1.0953 -0.5603  0.0594
  158SAPE  C31617729   1.593   4.109   8.609 -0.2367  0.0740  0.3989
  158SAPE  H16X17730   1.697   4.072   8.602  0.0098  0.7192  0.6075
  158SAPE  H16Y17731   1.563   4.153   8.511  0.7669  0.3448  0.1998
  158SAPE  C31717732   1.506   3.990   8.652 -0.2598 -0.1553 -0.2766
  158SAPE  H17X17733   1.405   4.020   8.688 -0.3744 -0.9396  0.0963
  158SAPE  H17Y17734   1.556   3.934   8.734 -1.5484 -1.9398 -0.6348
  158SAPE  C31817735   1.491   3.880   8.541  0.0726  0.3221  0.2367
  158SAPE  H18X17736   1.417   3.803   8.572  0.5326  0.0634  0.7065
  158SAPE  H18Y17737   1.590   3.835   8.519 -1.1768 -1.4577 -2.2192
  158SAPE  H18Z17738   1.439   3.927   8.455  1.6956  0.2984 -0.8077
  159SAPE     N17739   4.693   2.296   6.454 -0.1598  0.8826  0.2158
  159SAPE   HN117740   4.772   2.233   6.429 -0.5356  0.7631 -0.7418
  159SAPE   HN217741   4.659   2.242   6.535  0.9078 -2.2334 -1.2576
  159SAPE   HN317742   4.621   2.293   6.379  0.5459  0.2837 -0.4524
  159SAPE   C1217743   4.730   2.435   6.498  0.0523  0.5442 -0.3241
  159SAPE  H12A17744   4.751   2.502   6.412  0.0802  2.6017  1.2103
  159SAPE  H12B17745   4.817   2.434   6.567  0.0655  2.0614 -0.2867
  159SAPE   C1117746   4.614   2.502   6.563 -0.1565 -0.1863  0.1585
  159SAPE  H11A17747   4.656   2.600   6.595 -1.8439  0.6443 -0.0564
  159SAPE  H11B17748   4.575   2.461   6.658 -2.5879  1.9219  0.1774
  159SAPE     P17749   4.376   2.431   6.450  0.1266  0.1824  0.3059
  159SAPE   O1317750   4.308   2.506   6.341 -0.0416  0.2892  0.3561
  159SAPE   O1417751   4.405   2.287   6.425  0.0816 -0.0394  0.9193
  159SAPE   O1217752   4.502   2.520   6.480 -0.8061 -0.0030  0.8585
  159SAPE   O1117753   4.290   2.437   6.586  0.0479 -0.3533 -0.2726
  159SAPE    C117754   4.257   2.566   6.632  0.6003 -1.3298 -0.6673
  159SAPE    HA17755   4.309   2.651   6.583  0.1855 -1.4212 -1.2815
  159SAPE    HB17756   4.150   2.586   6.608  1.1290  2.1636 -0.6855
  159SAPE    C217757   4.279   2.584   6.776  0.6482 -0.3072 -0.6661
  159SAPE    HS17758   4.386   2.561   6.799  0.9424 -1.1935 -2.6904
  159SAPE   O2117759   4.194   2.494   6.845 -0.1423  0.1047  0.6657
  159SAPE   C2117760   4.250   2.429   6.939  0.0448 -0.0504  0.3370
  159SAPE   O2217761   4.366   2.437   6.971 -0.3256  0.3784  0.1244
  159SAPE   C2217762   4.145   2.343   7.018 -0.0286  0.2211 -0.2736
  159SAPE   H2R17763   4.082   2.424   7.061  0.3711  0.5562 -0.3095
  159SAPE   H2S17764   4.088   2.279   6.947 -0.4841 -0.8628  1.0192
  159SAPE    C317765   4.238   2.729   6.823 -0.7986  0.6660 -0.4144
  159SAPE    HX17766   4.134   2.751   6.791 -0.5492 -0.6153 -2.2660
  159SAPE    HY17767   4.298   2.803   6.766  1.8685  0.7838  2.3093
  159SAPE   O3117768   4.259   2.759   6.963 -0.5068  0.8111 -0.0047
  159SAPE   C3117769   4.371   2.831   6.994  0.5433  0.0155 -0.3826
  159SAPE   O3217770   4.463   2.851   6.916 -0.2206  0.2984 -0.8391
  159SAPE   C3217771   4.377   2.864   7.146 -0.7715 -0.2772 -0.1738
  159SAPE   H2X17772   4.342   2.772   7.197  1.0992 -0.0366  1.6845
  159SAPE   H2Y17773   4.295   2.933   7.173 -0.8029 -1.0414  1.7986
  159SAPE   C2317774   4.192   2.241   7.120  0.5973 -0.6423  0.0281
  159SAPE   H3R17775   4.284   2.186   7.094  2.9348  2.3475  1.3554
  159SAPE   H3S17776   4.113   2.163   7.132 -1.4085  1.1108 -0.9650
  159SAPE   C2417777   4.202   2.304   7.260 -0.5534 -0.0469 -0.1293
  159SAPE   H4R17778   4.198   2.221   7.334  2.5005 -1.7905 -1.6900
  159SAPE   H4S17779   4.113   2.366   7.284 -1.5329 -1.6126  0.4137
  159SAPE   C2517780   4.330   2.371   7.310  0.3001 -0.0748 -0.5773
  159SAPE   H5R17781   4.399   2.399   7.229 -0.7032 -0.2368 -1.4925
  159SAPE   C2617782   4.366   2.390   7.438  0.0238  0.4986 -0.3205
  159SAPE   H6R17783   4.471   2.415   7.461  0.2768 -0.6113 -0.1943
  159SAPE   C2717784   4.275   2.345   7.556  0.2899  0.0485  0.5340
  159SAPE   H7R17785   4.167   2.339   7.532  0.8312 -1.6073 -1.8455
  159SAPE   H7S17786   4.282   2.425   7.633  0.8786 -1.5014  2.1668
  159SAPE   C2817787   4.339   2.219   7.612 -0.2010 -0.0633 -0.0621
  159SAPE   H8R17788   4.335   2.127   7.552 -0.2417  0.2274 -0.5121
  159SAPE   C2917789   4.363   2.202   7.746  0.5979  0.4968 -0.3449
  159SAPE   H9R17790   4.418   2.111   7.777  1.4085  1.3660  0.8778
  159SAPE  C21017791   4.330   2.296   7.863 -0.2731 -0.5031  0.5014
  159SAPE  H10R17792   4.339   2.230   7.953  0.6283 -2.0516 -0.6607
  159SAPE  H10S17793   4.226   2.332   7.865  0.0780  0.8759 -2.3434
  159SAPE  C21117794   4.435   2.405   7.882  0.8508  0.6338  0.1136
  159SAPE  H11R17795   4.439   2.473   7.795 -0.2705  1.0319  0.3611
  159SAPE  C21217796   4.514   2.414   7.988  0.2831 -0.4678  0.4851
  159SAPE  H12R17797   4.576   2.504   7.990 -1.1530  0.5818 -0.1769
  159SAPE  C21317798   4.527   2.344   8.119  0.3281  0.1910  0.0520
  159SAPE  H13R17799   4.627   2.362   8.164  0.6865  1.8456 -1.3086
  159SAPE  H13S17800   4.509   2.239   8.087 -2.0306  1.3593 -3.0150
  159SAPE  C21417801   4.411   2.380   8.213  0.4311  0.2325 -0.2659
  159SAPE  H14R17802   4.319   2.319   8.208 -1.2219  2.5103  0.5206
  159SAPE  C21517803   4.414   2.471   8.314  0.4668 -0.1664 -0.8610
  159SAPE  H15R17804   4.328   2.477   8.382  2.7151 -3.0899  2.5509
  159SAPE  C21617805   4.529   2.556   8.357  0.5184 -0.3756  0.4441
  159SAPE  H16R17806   4.498   2.654   8.398  0.8570  0.5097 -1.2979
  159SAPE  H16S17807   4.588   2.588   8.268  0.7945  0.9305  1.0761
  159SAPE  C21717808   4.626   2.485   8.452  0.5742  0.3436 -0.7287
  159SAPE  H17R17809   4.706   2.558   8.476  0.2471  0.3998  0.2058
  159SAPE  H17S17810   4.668   2.399   8.396 -0.0924 -0.7314  0.3805
  159SAPE  C21817811   4.566   2.436   8.580  0.1320 -0.0370  0.3721
  159SAPE  H18R17812   4.476   2.378   8.551  0.4500 -0.9032  1.0858
  159SAPE  H18S17813   4.549   2.521   8.649  1.6794 -1.0477  2.0582
  159SAPE  C21917814   4.657   2.346   8.657 -0.0128  0.1163  0.4175
  159SAPE  H19R17815   4.757   2.390   8.676 -0.0833  1.2321 -1.5207
  159SAPE  H19S17816   4.691   2.258   8.598  3.8129  0.9845  1.0464
  159SAPE  C22017817   4.611   2.283   8.791 -0.7593  0.0969 -0.2505
  159SAPE  H20R17818   4.700   2.250   8.847 -0.2795  1.8418  0.0699
  159SAPE  H20S17819   4.547   2.195   8.766  1.8016 -2.4226  1.3938
  159SAPE  H20T17820   4.552   2.354   8.853  0.9255  0.3078  1.1923
  159SAPE   C3317821   4.513   2.916   7.202  0.1939 -0.3133  0.0049
  159SAPE   H3X17822   4.525   3.018   7.161  0.7614  0.7429  2.6070
  159SAPE   H3Y17823   4.597   2.846   7.181  0.7611  0.9285 -2.0929
  159SAPE   C3417824   4.511   2.938   7.350 -0.0568  0.0985 -0.2191
  159SAPE   H4X17825   4.434   3.015   7.374  0.2538  0.6425 -0.9152
  159SAPE   H4Y17826   4.608   2.978   7.386  0.9621 -1.2241 -1.4081
  159SAPE   C3517827   4.481   2.818   7.439 -0.0468  0.3997 -0.0332
  159SAPE   H5X17828   4.557   2.739   7.423 -0.5746 -0.3178  0.8854
  159SAPE   H5Y17829   4.382   2.771   7.419  0.5226 -0.9458  0.2018
  159SAPE   C3617830   4.510   2.846   7.586 -0.7181  0.4311 -0.0845
  159SAPE   H6X17831   4.439   2.928   7.612 -0.4367  0.2241  1.4109
  159SAPE   H6Y17832   4.609   2.895   7.595 -0.3630 -0.0061 -1.3827
  159SAPE   C3717833   4.511   2.727   7.683  0.9537 -0.1656  0.0890
  159SAPE   H7X17834   4.596   2.660   7.655  0.4817 -1.5357  1.7398
  159SAPE   H7Y17835   4.423   2.659   7.677  1.4387 -0.8736  0.6954
  159SAPE   C3817836   4.538   2.771   7.834  0.1125 -0.3348  1.1306
  159SAPE   H8X17837   4.644   2.804   7.837  0.6485 -1.9400  1.1811
  159SAPE   H8Y17838   4.536   2.677   7.893  3.6307 -1.3519 -0.1065
  159SAPE   C3917839   4.424   2.852   7.897  0.4675  0.5651  0.4190
  159SAPE   H9X17840   4.334   2.816   7.842  1.1575  0.8758 -0.9429
  159SAPE   H9Y17841   4.438   2.961   7.885 -0.4844  1.1446  3.6266
  159SAPE  C31017842   4.401   2.819   8.047  0.1851 -0.2138 -0.4455
  159SAPE  H10X17843   4.496   2.839   8.101 -1.2547  2.0937  1.4496
  159SAPE  H10Y17844   4.390   2.710   8.065 -0.5967  0.1835  1.8286
  159SAPE  C31117845   4.295   2.906   8.116 -0.1195  0.2550  0.1573
  159SAPE  H11X17846   4.291   2.887   8.225  4.1367  2.1688  0.8651
  159SAPE  H11Y17847   4.198   2.884   8.066 -0.0411  0.8406 -0.2641
  159SAPE  C31217848   4.316   3.061   8.111 -0.3638 -0.0144 -0.3832
  159SAPE  H12X17849   4.318   3.090   8.003 -1.5557 -0.5436 -0.5578
  159SAPE  H12Y17850   4.418   3.090   8.145  0.5177 -1.1985 -1.8468
  159SAPE  C31317851   4.208   3.147   8.177  0.2565  0.6491 -1.1463
  159SAPE  H13X17852   4.185   3.100   8.275  2.9331 -0.4063 -0.9292
  159SAPE  H13Y17853   4.115   3.155   8.116 -0.9582 -1.0928  0.3810
  159SAPE  C31417854   4.247   3.295   8.183 -0.0403 -0.3974  0.0103
  159SAPE  H14X17855   4.264   3.312   8.074 -0.8806 -0.4397 -0.1301
  159SAPE  H14Y17856   4.346   3.307   8.233  0.7294 -0.7814 -1.3757
  159SAPE  C31517857   4.140   3.398   8.244 -0.2352 -0.3780  0.2978
  159SAPE  H15X17858   4.130   3.377   8.353  0.3675  1.2692  0.6991
  159SAPE  H15Y17859   4.043   3.367   8.201  0.0425  0.3939 -0.9313
  159SAPE  C31617860   4.178   3.548   8.215 -0.0030  0.5709 -0.6451
  159SAPE  H16X17861   4.100   3.612   8.261  2.0163  1.7569  1.2891
  159SAPE  H16Y17862   4.174   3.566   8.105 -2.8180  0.7626 -0.5981
  159SAPE  C31717863   4.319   3.584   8.275 -0.0948 -0.1026  0.3662
  159SAPE  H17X17864   4.403   3.537   8.221  0.6734  0.3627  1.1360
  159SAPE  H17Y17865   4.328   3.562   8.384  2.0892 -0.3324  0.1851
  159SAPE  C31817866   4.336   3.738   8.265  0.2137  0.2000 -0.6424
  159SAPE  H18X17867   4.330   3.779   8.162 -2.6443  0.5659 -0.3974
  159SAPE  H18Y17868   4.425   3.766   8.326 -0.5443 -2.0566  1.6914
  159SAPE  H18Z17869   4.246   3.778   8.316  0.4197 -0.4813  0.2822
  160SAPE     N17870   3.418   5.020   6.200  0.3871  0.4246 -0.1358
  160SAPE   HN117871   3.366   5.049   6.285  0.3285 -2.7716  1.0633
  160SAPE   HN217872   3.453   5.102   6.147  3.5404  0.0558  1.1883
  160SAPE   HN317873   3.339   4.976   6.149  0.0550 -2.7824  2.8004
  160SAPE   C1217874   3.538   4.930   6.228  0.5642  0.7335  0.0345
  160SAPE  H12A17875   3.607   4.991   6.290  1.4221 -0.7488  0.5983
  160SAPE  H12B17876   3.581   4.901   6.130 -1.2424 -1.0254 -0.2959
  160SAPE   C1117877   3.496   4.802   6.300 -0.7365  0.0056  0.2656
  160SAPE  H11A17878   3.388   4.809   6.323 -0.3509 -0.3344  2.4376
  160SAPE  H11B17879   3.548   4.798   6.398  2.8949  3.2836 -1.2732
  160SAPE     P17880   3.653   4.646   6.165  0.2148 -0.2251  0.5146
  160SAPE   O1317881   3.638   4.611   6.019  0.2851 -0.5816 -0.7896
  160SAPE   O1417882   3.763   4.736   6.204 -0.6364  0.0203  0.1624
  160SAPE   O1217883   3.517   4.693   6.214 -0.7698 -0.3386 -0.3663
  160SAPE   O1117884   3.672   4.522   6.253  0.0335  0.2256  0.0924
  160SAPE    C117885   3.580   4.459   6.343 -0.4389 -0.0435  0.0140
  160SAPE    HA17886   3.474   4.488   6.323 -0.0569 -0.1151 -2.5018
  160SAPE    HB17887   3.599   4.350   6.337 -0.5964  0.0031 -2.6535
  160SAPE    C217888   3.617   4.494   6.492 -0.6001  0.4378 -0.2619
  160SAPE    HS17889   3.637   4.603   6.495 -2.1144  0.7156  1.1670
  160SAPE   O2117890   3.741   4.420   6.522  0.5847  0.2241 -0.5678
  160SAPE   C2117891   3.834   4.481   6.593 -0.1794 -0.2594  0.2944
  160SAPE   O2217892   3.821   4.594   6.634  0.5324 -0.5190  0.2031
  160SAPE   C2217893   3.951   4.392   6.611 -0.5696  0.8627 -0.6218
  160SAPE   H2R17894   3.921   4.296   6.656 -0.4841  0.2623 -1.8106
  160SAPE   H2S17895   4.002   4.382   6.513 -0.5605  1.6831 -0.7102
  160SAPE    C317896   3.498   4.471   6.586 -0.2794 -0.3708 -0.5221
  160SAPE    HX17897   3.475   4.363   6.592 -0.7633 -0.2441 -0.0513
  160SAPE    HY17898   3.405   4.514   6.544  0.3011  0.7908 -0.6743
  160SAPE   O3117899   3.526   4.509   6.721 -0.7479 -0.1330 -0.8749
  160SAPE   C3117900   3.535   4.643   6.744  0.5729 -0.3641 -0.7282
  160SAPE   O3217901   3.509   4.731   6.667 -0.1757 -0.0530 -0.0428
  160SAPE   C3217902   3.572   4.678   6.888 -0.1186  0.5983  0.3980
  160SAPE   H2X17903   3.583   4.581   6.942 -1.8950  0.5697  0.7833
  160SAPE   H2Y17904   3.475   4.710   6.933 -0.5061  1.5164 -1.0190
  160SAPE   C2317905   4.053   4.450   6.714  0.3748 -0.2934 -1.0336
  160SAPE   H3R17906   4.070   4.557   6.692  0.5550 -0.0629  0.1264
  160SAPE   H3S17907   4.151   4.397   6.717 -0.2308 -1.5008 -1.6979
  160SAPE   C2417908   3.991   4.446   6.863 -0.4691 -0.2052 -0.0626
  160SAPE   H4R17909   3.975   4.338   6.886  3.4389 -0.9827 -0.1682
  160SAPE   H4S17910   3.887   4.483   6.870 -0.1589  0.6848 -0.0300
  160SAPE   C2517911   4.061   4.519   6.976  0.9064  0.1045  0.4013
  160SAPE   H5R17912   4.021   4.621   6.986 -0.7443 -0.5630  0.9451
  160SAPE   C2617913   4.135   4.475   7.079 -0.1278 -0.4514  0.5535
  160SAPE   H6R17914   4.171   4.550   7.150 -0.1802 -0.9559  1.1248
  160SAPE   C2717915   4.181   4.337   7.105  0.7936  0.2297 -0.0266
  160SAPE   H7R17916   4.202   4.284   7.010  0.3966  1.1325 -0.6365
  160SAPE   H7S17917   4.099   4.273   7.144  1.7015 -1.8628 -1.3822
  160SAPE   C2817918   4.301   4.336   7.204  0.0996  0.8215  0.3340
  160SAPE   H8R17919   4.400   4.311   7.163  0.5086  0.8300  1.2814
  160SAPE   C2917920   4.307   4.368   7.335  0.3066 -0.7227 -0.1155
  160SAPE   H9R17921   4.402   4.363   7.390  0.2436 -0.2537  0.0387
  160SAPE  C21017922   4.178   4.410   7.406 -0.5151  0.1248  0.2904
  160SAPE  H10R17923   4.108   4.323   7.407  0.4532 -0.6684  1.3974
  160SAPE  H10S17924   4.137   4.492   7.344 -1.4067 -0.0039  0.6893
  160SAPE  C21117925   4.189   4.457   7.545  0.6509  0.7712  0.0310
  160SAPE  H11R17926   4.159   4.560   7.570  1.5545  0.5607  2.1549
  160SAPE  C21217927   4.214   4.378   7.653  0.4386 -0.2664 -0.4004
  160SAPE  H12R17928   4.221   4.430   7.750 -0.4895 -1.7164  0.4792
  160SAPE  C21317929   4.224   4.230   7.662 -0.2458 -0.1629  0.3224
  160SAPE  H13R17930   4.162   4.175   7.588 -1.5018 -0.2438  1.4171
  160SAPE  H13S17931   4.178   4.206   7.760 -1.8133 -0.0852 -0.3718
  160SAPE  C21417932   4.364   4.169   7.637  0.4514 -0.5729 -0.2633
  160SAPE  H14R17933   4.385   4.164   7.529  1.1330 -1.8482 -0.0888
  160SAPE  C21517934   4.445   4.109   7.723 -0.2799 -0.3277  0.0682
  160SAPE  H15R17935   4.540   4.080   7.677  1.4146  3.2288  0.9957
  160SAPE  C21617936   4.431   4.081   7.871 -0.3814  0.2772 -1.0011
  160SAPE  H16R17937   4.441   3.971   7.878  0.3077  0.2449 -2.1796
  160SAPE  H16S17938   4.329   4.112   7.903 -0.7259 -0.6187 -1.2151
  160SAPE  C21717939   4.522   4.156   7.969 -0.5949 -0.0764 -0.1928
  160SAPE  H17R17940   4.626   4.150   7.931 -0.7457  0.3592 -0.6886
  160SAPE  H17S17941   4.516   4.114   8.072 -2.3208  0.1844 -0.1563
  160SAPE  C21817942   4.484   4.303   7.962  0.4083  0.0802 -0.0113
  160SAPE  H18R17943   4.476   4.339   7.857  4.6544  3.3471  0.5223
  160SAPE  H18S17944   4.560   4.369   8.010 -1.0971  1.5143  0.4796
  160SAPE  C21917945   4.368   4.362   8.033  0.1895 -0.5115 -0.1232
  160SAPE  H19R17946   4.268   4.326   8.000  0.3161 -0.4945 -0.5364
  160SAPE  H19S17947   4.369   4.470   8.008 -2.4895 -0.0239  1.4594
  160SAPE  C22017948   4.385   4.363   8.182  0.5361 -0.3898  0.5710
  160SAPE  H20R17949   4.483   4.405   8.211  0.9918 -1.5864  0.8175
  160SAPE  H20S17950   4.371   4.256   8.206  0.6051 -0.4577  0.3160
  160SAPE  H20T17951   4.296   4.418   8.220 -0.0220  0.3386 -1.5900
  160SAPE   C3317952   3.685   4.779   6.914 -0.0661  0.0977  0.1058
  160SAPE   H3X17953   3.651   4.870   6.859 -2.5551 -1.5734 -1.3136
  160SAPE   H3Y17954   3.773   4.743   6.857 -0.5520  1.7086 -1.7795
  160SAPE   C3417955   3.729   4.813   7.062 -0.3744 -0.0051 -0.0057
  160SAPE   H4X17956   3.653   4.869   7.122  1.1619 -0.5812  2.6574
  160SAPE   H4Y17957   3.829   4.861   7.060 -0.0497 -0.6873 -0.1792
  160SAPE   C3517958   3.750   4.681   7.143 -0.2887 -0.2617 -0.4038
  160SAPE   H5X17959   3.819   4.602   7.107  0.1372  0.6970 -1.7700
  160SAPE   H5Y17960   3.651   4.639   7.170  0.5700 -0.2888  3.1692
  160SAPE   C3617961   3.807   4.727   7.282  0.9797  0.8178 -0.0002
  160SAPE   H6X17962   3.749   4.817   7.311  0.4264  0.7205 -0.7860
  160SAPE   H6Y17963   3.915   4.738   7.258  0.9499  0.0420 -0.5496
  160SAPE   C3717964   3.804   4.617   7.389  0.5916 -0.3569  0.2438
  160SAPE   H7X17965   3.879   4.541   7.360 -0.1680 -0.0005 -2.9981
  160SAPE   H7Y17966   3.707   4.564   7.386 -0.8205  2.1106 -1.0685
  160SAPE   C3817967   3.835   4.677   7.526 -0.0102  0.2890  0.2555
  160SAPE   H8X17968   3.761   4.756   7.551 -1.6664 -0.6447 -1.4740
  160SAPE   H8Y17969   3.935   4.726   7.515  0.2012  0.4405  2.4110
  160SAPE   C3917970   3.859   4.573   7.638  0.5408  0.0445 -0.4925
  160SAPE   H9X17971   3.937   4.500   7.607 -0.4703 -0.2396 -2.4885
  160SAPE   H9Y17972   3.768   4.514   7.659 -0.5241  1.7497 -0.1606
  160SAPE  C31017973   3.906   4.653   7.763  0.3925 -0.2878 -0.0025
  160SAPE  H10X17974   3.824   4.719   7.796  0.2569 -0.3098 -0.2936
  160SAPE  H10Y17975   3.982   4.731   7.743 -1.1037  0.9181 -1.2184
  160SAPE  C31117976   3.941   4.574   7.890  0.1483 -1.2041  0.1089
  160SAPE  H11X17977   3.964   4.467   7.869  2.3107 -0.9307  0.8124
  160SAPE  H11Y17978   3.865   4.573   7.971  1.4887 -1.8623  1.4055
  160SAPE  C31217979   4.074   4.629   7.951 -0.1061  0.0994  0.0024
  160SAPE  H12X17980   4.142   4.649   7.866  0.3714 -0.1190  0.3246
  160SAPE  H12Y17981   4.136   4.547   7.995  0.3357  1.0552  1.2259
  160SAPE  C31317982   4.061   4.746   8.048  0.0644 -0.2198  0.5105
  160SAPE  H13X17983   3.987   4.724   8.128 -0.5744 -0.4939 -0.1509
  160SAPE  H13Y17984   4.040   4.831   7.979  2.6147 -0.7727 -1.0825
  160SAPE  C31417985   4.191   4.779   8.121 -0.3066 -0.6051  0.3213
  160SAPE  H14X17986   4.278   4.816   8.062 -0.2940 -0.2389  0.5689
  160SAPE  H14Y17987   4.235   4.684   8.159  1.7693  0.3473  0.4638
  160SAPE  C31517988   4.176   4.879   8.241  0.3373  0.3099  0.0979
  160SAPE  H15X17989   4.111   4.845   8.325 -0.6495  0.2350 -0.6837
  160SAPE  H15Y17990   4.125   4.970   8.205 -0.4238  0.5787  1.7887
  160SAPE  C31617991   4.314   4.925   8.281 -0.3581 -0.3168  0.9044
  160SAPE  H16X17992   4.352   4.980   8.192 -1.8523 -2.2027 -1.0096
  160SAPE  H16Y17993   4.378   4.838   8.307 -0.1146 -0.9445 -1.4786
  160SAPE  C31717994   4.331   5.020   8.405  1.1676  0.6804  0.0895
  160SAPE  H17X17995   4.298   4.965   8.496  1.7242  0.9397  0.4501
  160SAPE  H17Y17996   4.261   5.105   8.389 -0.3802 -0.9004 -2.1843
  160SAPE  C31817997   4.471   5.075   8.421  0.1672 -1.0836 -0.2112
  160SAPE  H18X17998   4.531   4.983   8.438 -1.3300 -1.7907  1.5703
  160SAPE  H18Y17999   4.494   5.153   8.497  0.4372 -3.2051  2.0235
  160SAPE  H18Z18000   4.508   5.118   8.326  0.5050 -1.1838 -0.1265
  161SAPE     N18001   6.622   2.173   6.395 -0.5131  0.8092 -0.3123
  161SAPE   HN118002   6.585   2.076   6.384 -0.0749  0.6372 -0.2768
  161SAPE   HN218003   6.539   2.236   6.405 -0.6728  0.7025 -0.8838
  161SAPE   HN318004   6.682   2.203   6.315  0.8707  0.3278  0.5358
  161SAPE   C1218005   6.696   2.174   6.523  0.9928  0.3468 -0.2762
  161SAPE  H12A18006   6.628   2.189   6.610  1.6124 -0.3916  0.3528
  161SAPE  H12B18007   6.758   2.267   6.525 -0.3688  1.2896 -0.2610
  161SAPE   C1118008   6.790   2.061   6.533 -0.3023  0.7694 -0.1994
  161SAPE  H11A18009   6.738   1.963   6.539 -2.2309  1.7573 -0.1054
  161SAPE  H11B18010   6.855   2.068   6.623 -0.4552  0.1417 -0.0297
  161SAPE     P18011   7.009   1.987   6.406  0.3265  0.2162 -0.3918
  161SAPE   O1318012   6.996   1.871   6.315 -0.2878  0.2895 -0.2207
  161SAPE   O1418013   7.115   2.087   6.389  0.2273  0.0236  0.7125
  161SAPE   O1218014   6.870   2.062   6.415  0.5573 -0.5664 -0.3020
  161SAPE   O1118015   7.025   1.933   6.550  0.8506  0.0442  0.2711
  161SAPE    C118016   7.007   1.802   6.582 -0.2158  0.6244 -0.1731
  161SAPE    HA18017   6.902   1.774   6.560 -0.2411  0.9205 -0.4375
  161SAPE    HB18018   7.081   1.745   6.523 -1.8995  1.3107 -3.2029
  161SAPE    C218019   7.015   1.792   6.738  0.3932 -0.8153  1.0272
  161SAPE    HS18020   6.934   1.855   6.781  1.2660  1.8628 -0.9322
  161SAPE   O2118021   7.135   1.844   6.787  0.0262 -0.3859  0.2268
  161SAPE   C2118022   7.149   1.975   6.808  0.0402  0.0229 -0.2867
  161SAPE   O2218023   7.056   2.051   6.805  0.6325 -0.0103  0.0520
  161SAPE   C2218024   7.291   2.011   6.839 -0.0422 -0.5951 -0.5950
  161SAPE   H2R18025   7.358   1.925   6.822 -0.3126 -1.0945  0.7047
  161SAPE   H2S18026   7.318   2.091   6.766  4.0220 -2.6550 -1.5933
  161SAPE    C318027   6.994   1.644   6.778  0.2614 -0.4848 -0.4660
  161SAPE    HX18028   7.077   1.584   6.736  0.0789 -0.7534 -0.4424
  161SAPE    HY18029   6.897   1.621   6.730 -0.7266  0.5019  0.9600
  161SAPE   O3118030   6.979   1.616   6.923 -0.0254 -0.2128  0.0828
  161SAPE   C3118031   6.977   1.490   6.968 -0.3500 -0.0087 -0.3074
  161SAPE   O3218032   6.956   1.396   6.898 -0.3206  0.2739  0.1515
  161SAPE   C3218033   6.983   1.494   7.119  0.5720 -0.1015  0.2643
  161SAPE   H2X18034   6.896   1.551   7.159 -0.7730 -2.1617  0.4075
  161SAPE   H2Y18035   7.079   1.541   7.150  0.1579  0.7333  0.3226
  161SAPE   C2318036   7.311   2.069   6.982  0.4561 -0.5061 -0.2191
  161SAPE   H3R18037   7.262   2.168   6.994 -0.5715 -1.0117 -0.1334
  161SAPE   H3S18038   7.419   2.092   6.997  0.0336  0.6537  1.3870
  161SAPE   C2418039   7.270   1.973   7.096  0.0753  0.8204 -0.9369
  161SAPE   H4R18040   7.309   1.870   7.085 -0.0722  0.5759  0.5701
  161SAPE   H4S18041   7.160   1.972   7.115  0.7856  0.1628  4.9853
  161SAPE   C2518042   7.329   2.013   7.232  0.9509 -0.2066 -0.0716
  161SAPE   H5R18043   7.439   2.023   7.229  1.0600 -0.9310  1.0321
  161SAPE   C2618044   7.274   2.034   7.356 -0.4210  0.8577  0.1823
  161SAPE   H6R18045   7.340   2.047   7.442 -0.2199 -1.4893  0.4490
  161SAPE   C2718046   7.129   2.019   7.394 -0.3025  0.1036  0.2551
  161SAPE   H7R18047   7.096   1.918   7.425 -1.9490  0.6214  0.2809
  161SAPE   H7S18048   7.066   2.037   7.304 -0.3862 -0.6650  0.1590
  161SAPE   C2818049   7.092   2.129   7.497 -0.6228  0.6978 -0.0611
  161SAPE   H8R18050   7.069   2.223   7.444  0.6764  1.7148  1.1279
  161SAPE   C2918051   7.079   2.118   7.629 -0.2291 -0.4094 -0.3398
  161SAPE   H9R18052   7.038   2.201   7.688  0.8716  0.0609 -0.2098
  161SAPE  C21018053   7.096   1.992   7.711  0.7068 -0.5200 -0.1830
  161SAPE  H10R18054   7.032   1.916   7.662 -1.9173  1.3092  0.1779
  161SAPE  H10S18055   7.050   2.007   7.811 -1.0859  2.0023 -1.2689
  161SAPE  C21118056   7.233   1.930   7.721  0.1676  0.1082 -0.7533
  161SAPE  H11R18057   7.304   1.964   7.643  0.3262  0.2743 -0.5376
  161SAPE  C21218058   7.277   1.847   7.817 -0.3481 -0.9675  0.4158
  161SAPE  H12R18059   7.381   1.812   7.812 -0.0016  0.1717 -1.4842
  161SAPE  C21318060   7.191   1.795   7.928  0.3835 -0.4381 -0.4817
  161SAPE  H13R18061   7.251   1.709   7.963  0.8282  0.3840  0.8435
  161SAPE  H13S18062   7.088   1.777   7.890 -0.6780  0.2166  1.8927
  161SAPE  C21418063   7.165   1.884   8.049 -0.1292  0.3796 -0.0204
  161SAPE  H14R18064   7.066   1.930   8.061 -0.4938 -0.6459  1.0380
  161SAPE  C21518065   7.252   1.915   8.148 -0.4771 -0.1220  0.3776
  161SAPE  H15R18066   7.209   1.953   8.241 -0.5005  0.2421  0.2199
  161SAPE  C21618067   7.390   1.861   8.160 -0.1077 -0.1343 -0.0309
  161SAPE  H16R18068   7.466   1.909   8.094 -0.1638 -0.9461 -0.7010
  161SAPE  H16S18069   7.390   1.751   8.143 -0.5032 -0.1145 -0.1725
  161SAPE  C21718070   7.430   1.867   8.311 -1.0016 -0.4096  0.4890
  161SAPE  H17R18071   7.351   1.844   8.385  0.0880 -2.0042  1.1981
  161SAPE  H17S18072   7.468   1.967   8.341 -1.8519 -0.3785  1.5067
  161SAPE  C21818073   7.545   1.771   8.340  0.5096  0.5492  0.4684
  161SAPE  H18R18074   7.640   1.793   8.286 -0.2572  0.3073 -1.0280
  161SAPE  H18S18075   7.513   1.670   8.306 -2.9020  2.0065 -1.0556
  161SAPE  C21918076   7.573   1.779   8.489  0.2105  0.4401 -0.3091
  161SAPE  H19R18077   7.603   1.882   8.520  2.8868  0.1361 -1.5411
  161SAPE  H19S18078   7.657   1.707   8.495 -2.2402 -2.6859 -1.0664
  161SAPE  C22018079   7.467   1.720   8.583 -0.1791  0.0166 -0.8882
  161SAPE  H20R18080   7.384   1.792   8.596 -0.5181 -0.5087  0.0099
  161SAPE  H20S18081   7.505   1.701   8.686  1.5765  0.4804 -1.4205
  161SAPE  H20T18082   7.443   1.619   8.544  0.9088 -1.1857  1.3225
  161SAPE   C3318083   6.988   1.357   7.181  0.3876  0.0200 -0.6224
  161SAPE   H3X18084   7.087   1.312   7.157  0.8276  0.2913  0.5915
  161SAPE   H3Y18085   6.913   1.283   7.148  1.9653 -1.2581 -1.5175
  161SAPE   C3418086   6.976   1.378   7.329 -0.6750 -0.6367 -1.3187
  161SAPE   H4X18087   6.974   1.282   7.384  1.1447  0.0720  0.0587
  161SAPE   H4Y18088   6.882   1.426   7.365  1.0323 -0.2102  3.1964
  161SAPE   C3518089   7.092   1.462   7.391 -0.3778  0.1698 -0.1674
  161SAPE   H5X18090   7.099   1.565   7.351 -0.1623 -0.3254 -1.4899
  161SAPE   H5Y18091   7.191   1.421   7.361  1.0663  0.5167  3.5935
  161SAPE   C3618092   7.097   1.468   7.540 -0.0210  0.5536 -0.3176
  161SAPE   H6X18093   7.194   1.507   7.576  0.9695 -0.5228 -1.6980
  161SAPE   H6Y18094   7.086   1.365   7.580 -0.0135  0.6029 -0.1905
  161SAPE   C3718095   6.999   1.567   7.604 -0.4804 -0.8929 -0.2600
  161SAPE   H7X18096   6.892   1.549   7.579 -0.6508 -1.9870  1.1392
  161SAPE   H7Y18097   7.031   1.667   7.567  4.2529 -1.9792  0.1650
  161SAPE   C3818098   6.997   1.557   7.753  0.1318  0.1241  0.5841
  161SAPE   H8X18099   6.939   1.646   7.785  0.9486  0.8300  0.1553
  161SAPE   H8Y18100   7.098   1.568   7.798  0.1616  1.3105  0.2591
  161SAPE   C3918101   6.943   1.423   7.796  0.1329 -0.2955 -0.3460
  161SAPE   H9X18102   7.013   1.338   7.783  2.0217  1.1034  0.2797
  161SAPE   H9Y18103   6.854   1.408   7.732 -0.0674  0.6722 -0.3135
  161SAPE  C31018104   6.907   1.433   7.943 -0.0840 -0.0805  0.3340
  161SAPE  H10X18105   6.993   1.455   8.011 -0.2637  0.1526  0.4884
  161SAPE  H10Y18106   6.878   1.332   7.980 -1.8241  0.7876  1.4709
  161SAPE  C31118107   6.776   1.503   7.977 -0.1049 -0.1958  0.7506
  161SAPE  H11X18108   6.694   1.475   7.908 -0.8141  0.2844  1.3852
  161SAPE  H11Y18109   6.795   1.612   7.972  2.0154 -0.5397  0.0349
  161SAPE  C31218110   6.747   1.470   8.122 -0.4851  0.2488  0.5513
  161SAPE  H12X18111   6.840   1.496   8.177  0.6031  0.6807 -1.4005
  161SAPE  H12Y18112   6.728   1.362   8.133 -1.7698 -0.0232 -2.9548
  161SAPE  C31318113   6.620   1.544   8.167  0.8260 -0.0002 -0.0163
  161SAPE  H13X18114   6.532   1.515   8.105  0.4488  0.9081  0.0816
  161SAPE  H13Y18115   6.626   1.653   8.147 -1.9308  0.4535  1.2097
  161SAPE  C31418116   6.584   1.520   8.308 -0.4507 -0.4371  0.0638
  161SAPE  H14X18117   6.660   1.542   8.385  0.4917  1.6889 -1.3667
  161SAPE  H14Y18118   6.575   1.411   8.325  0.8478 -0.5253  0.3295
  161SAPE  C31518119   6.454   1.584   8.348  0.1224 -0.0954  0.1960
  161SAPE  H15X18120   6.416   1.543   8.444 -1.8258 -0.9273 -0.8714
  161SAPE  H15Y18121   6.376   1.556   8.274  1.8482  1.1493 -2.2072
  161SAPE  C31618122   6.470   1.733   8.366 -0.4855 -0.2057  0.7807
  161SAPE  H16X18123   6.481   1.768   8.262  0.8908 -0.6699  0.7375
  161SAPE  H16Y18124   6.559   1.750   8.432  0.4058 -1.8945  0.0774
  161SAPE  C31718125   6.357   1.808   8.431 -0.1823  0.1279 -0.7173
  161SAPE  H17X18126   6.268   1.815   8.365 -0.9790 -0.1343  0.2878
  161SAPE  H17Y18127   6.390   1.913   8.446  0.6727 -0.3128  0.7404
  161SAPE  C31818128   6.303   1.746   8.561  0.4680 -0.4155  0.7995
  161SAPE  H18X18129   6.235   1.812   8.618  0.9245 -0.0673  0.9530
  161SAPE  H18Y18130   6.378   1.730   8.641  0.4982  0.9524  1.0728
  161SAPE  H18Z18131   6.241   1.656   8.541  0.3240  0.0556 -1.0834
  162SAPE     N18132   4.700   4.385   6.156 -0.2791 -0.1970  0.0811
  162SAPE   HN118133   4.784   4.326   6.137  1.0029  1.8932 -1.0995
  162SAPE   HN218134   4.705   4.473   6.102  0.1948 -0.0747  0.3147
  162SAPE   HN318135   4.706   4.395   6.259  3.1085 -0.2906 -0.0038
  162SAPE   C1218136   4.571   4.301   6.124  0.4383 -0.1727 -0.5390
  162SAPE  H12A18137   4.580   4.266   6.019 -0.2420 -0.4692 -0.5003
  162SAPE  H12B18138   4.487   4.373   6.136  1.1938  0.7984 -0.9566
  162SAPE   C1118139   4.567   4.182   6.216 -0.1265 -0.4187  0.0939
  162SAPE  H11A18140   4.465   4.139   6.199  1.0438 -2.5792 -2.0861
  162SAPE  H11B18141   4.571   4.204   6.325  0.6922 -0.2702  0.0360
  162SAPE     P18142   4.665   3.935   6.186 -0.2804 -0.2889 -0.1364
  162SAPE   O1318143   4.599   3.882   6.067 -0.0001  0.5488  0.0544
  162SAPE   O1418144   4.802   3.880   6.205  0.1682 -0.1977 -0.1216
  162SAPE   O1218145   4.680   4.092   6.179  0.2900  0.7062 -0.1772
  162SAPE   O1118146   4.573   3.904   6.311  0.3886 -0.3046  0.2225
  162SAPE    C118147   4.551   3.769   6.350  0.0077  0.2661  0.3468
  162SAPE    HA18148   4.456   3.723   6.314  0.5150 -0.4752 -0.0577
  162SAPE    HB18149   4.634   3.703   6.317  1.2580  1.6781  0.5657
  162SAPE    C218150   4.550   3.747   6.510  0.0504 -0.5572  0.2480
  162SAPE    HS18151   4.571   3.639   6.528 -1.6773 -0.8990  0.4144
  162SAPE   O2118152   4.419   3.788   6.561  0.1466  0.0346 -0.8792
  162SAPE   C2118153   4.340   3.678   6.592  0.9364  0.1554  0.2450
  162SAPE   O2218154   4.360   3.561   6.576 -0.0211 -0.0964 -0.1076
  162SAPE   C2218155   4.204   3.732   6.642 -0.3598 -0.5836  0.7235
  162SAPE   H2R18156   4.212   3.825   6.702  1.2458 -0.7452  0.8069
  162SAPE   H2S18157   4.149   3.763   6.551  1.0049 -1.3025 -0.3974
  162SAPE    C318158   4.661   3.826   6.581  0.3851 -0.6957  0.1043
  162SAPE    HX18159   4.647   3.936   6.568  3.4866 -0.1980 -0.0032
  162SAPE    HY18160   4.759   3.807   6.531  1.7347  1.3924  1.7611
  162SAPE   O3118161   4.662   3.797   6.721  0.0629  0.5413 -0.5821
  162SAPE   C3118162   4.777   3.758   6.772  0.2571  0.0727  0.1358
  162SAPE   O3218163   4.889   3.768   6.721 -0.3283 -0.2983 -0.2592
  162SAPE   C3218164   4.750   3.701   6.916 -0.3499 -0.2383  0.2099
  162SAPE   H2X18165   4.673   3.623   6.898  0.4380 -0.5500 -2.1259
  162SAPE   H2Y18166   4.699   3.781   6.975  0.5500 -0.3097  1.1085
  162SAPE   C2318167   4.126   3.620   6.709 -0.0917  0.1528  0.7961
  162SAPE   H3R18168   4.119   3.529   6.647  1.4313  0.8975 -0.5682
  162SAPE   H3S18169   4.025   3.665   6.709 -0.2960 -0.2271 -1.3796
  162SAPE   C2418170   4.183   3.592   6.853 -0.4042  0.8850 -0.1008
  162SAPE   H4R18171   4.206   3.696   6.885 -1.4430  1.7813 -2.1341
  162SAPE   H4S18172   4.272   3.525   6.854  0.1698  1.6360  0.2242
  162SAPE   C2518173   4.072   3.526   6.933 -0.5144 -0.0930  0.0415
  162SAPE   H5R18174   4.010   3.447   6.888 -1.0637 -1.1712  2.5754
  162SAPE   C2618175   4.039   3.551   7.055  0.4891 -0.0838 -0.1885
  162SAPE   H6R18176   3.976   3.481   7.112  1.1950  0.9608  1.9700
  162SAPE   C2718177   4.109   3.644   7.150  0.0890  0.5350  0.1779
  162SAPE   H7R18178   4.024   3.710   7.178 -0.8023  0.5341 -2.2957
  162SAPE   H7S18179   4.179   3.713   7.099  0.3315  0.0299 -0.1790
  162SAPE   C2818180   4.153   3.578   7.272  0.5063  0.0376 -0.0212
  162SAPE   H8R18181   4.074   3.571   7.347 -0.3311 -2.8050 -1.0246
  162SAPE   C2918182   4.279   3.535   7.299 -0.6058  0.8095 -0.5755
  162SAPE   H9R18183   4.306   3.487   7.394 -2.6269  2.2088  0.8033
  162SAPE  C21018184   4.407   3.541   7.213  0.2936 -0.1994  0.3443
  162SAPE  H10R18185   4.470   3.620   7.261 -3.2621  1.9272  1.9364
  162SAPE  H10S18186   4.387   3.584   7.113 -0.5935 -0.0931  0.5538
  162SAPE  C21118187   4.486   3.419   7.197 -0.4438 -0.7177  0.2080
  162SAPE  H11R18188   4.484   3.377   7.095 -1.9069  4.0031 -1.9910
  162SAPE  C21218189   4.563   3.363   7.293 -0.0999  0.6336  0.0464
  162SAPE  H12R18190   4.608   3.265   7.267 -1.6943  0.0113 -0.4651
  162SAPE  C21318191   4.590   3.406   7.440  0.3774 -0.1346  0.8073
  162SAPE  H13R18192   4.513   3.359   7.505 -0.6864  0.3738 -0.0419
  162SAPE  H13S18193   4.564   3.514   7.444  0.9323  0.2314 -2.5732
  162SAPE  C21418194   4.732   3.374   7.456 -0.5476  0.2667  0.2702
  162SAPE  H14R18195   4.796   3.415   7.377  2.2397  0.7784  2.5971
  162SAPE  C21518196   4.784   3.309   7.563 -0.3600  0.7439 -0.3788
  162SAPE  H15R18197   4.891   3.285   7.554 -0.4340  0.8417 -1.7360
  162SAPE  C21618198   4.715   3.241   7.681  0.1010 -0.6099 -0.4578
  162SAPE  H16R18199   4.766   3.146   7.708 -1.6655 -0.8813  2.2415
  162SAPE  H16S18200   4.608   3.222   7.659  0.1142 -0.8416 -0.3215
  162SAPE  C21718201   4.750   3.329   7.799 -0.8465  0.2085 -0.0184
  162SAPE  H17R18202   4.688   3.421   7.792 -0.6495  0.4055  0.7359
  162SAPE  H17S18203   4.854   3.365   7.785 -1.4044  1.5557 -0.9972
  162SAPE  C21818204   4.719   3.264   7.929  0.0058 -0.5662 -0.5203
  162SAPE  H18R18205   4.742   3.156   7.936  0.0948 -0.7344 -2.6573
  162SAPE  H18S18206   4.608   3.263   7.935 -0.1226 -1.5608 -2.2472
  162SAPE  C21918207   4.790   3.328   8.054 -0.3656 -0.1527  0.1540
  162SAPE  H19R18208   4.866   3.400   8.018 -0.1902 -1.0270 -1.3101
  162SAPE  H19S18209   4.846   3.243   8.099  0.1047  0.7428  1.2931
  162SAPE  C22018210   4.695   3.386   8.157 -0.1449  0.0716 -0.1274
  162SAPE  H20R18211   4.654   3.483   8.120  1.9287  0.6932 -0.9310
  162SAPE  H20S18212   4.741   3.413   8.254 -0.2501  0.5818 -0.2144
  162SAPE  H20T18213   4.611   3.317   8.180  1.0792 -2.2013 -2.0451
  162SAPE   C3318214   4.877   3.658   6.988 -0.3160 -0.0355  0.5482
  162SAPE   H3X18215   4.961   3.723   6.955 -0.5852  1.1041  1.9574
  162SAPE   H3Y18216   4.888   3.554   6.952 -0.0733  0.1771 -0.0158
  162SAPE   C3418217   4.858   3.643   7.141 -0.2789  0.2194 -0.1507
  162SAPE   H4X18218   4.770   3.577   7.160 -0.4530  0.4540 -0.1246
  162SAPE   H4Y18219   4.845   3.748   7.175 -1.3751  0.3016 -0.7724
  162SAPE   C3518220   4.983   3.599   7.206  0.7044 -0.4566 -0.3584
  162SAPE   H5X18221   5.077   3.644   7.167  1.8168 -1.6360  0.8193
  162SAPE   H5Y18222   4.995   3.489   7.193 -1.4259 -0.6904 -0.6292
  162SAPE   C3618223   4.990   3.630   7.360 -0.8712  0.1612  0.6678
  162SAPE   H6X18224   4.887   3.627   7.403 -0.2002 -1.1766  2.3053
  162SAPE   H6Y18225   5.023   3.732   7.389  0.0064 -0.7862  3.2290
  162SAPE   C3718226   5.079   3.519   7.434 -1.2119 -0.0923 -0.0975
  162SAPE   H7X18227   5.179   3.529   7.387 -0.2254 -1.2890  1.6377
  162SAPE   H7Y18228   5.046   3.420   7.398  0.9572 -0.6252 -0.7457
  162SAPE   C3818229   5.075   3.535   7.592  0.5585  0.9444  0.0038
  162SAPE   H8X18230   4.974   3.516   7.634  0.5078  0.8790 -0.1482
  162SAPE   H8Y18231   5.101   3.643   7.586  0.7198  0.8458 -1.9096
  162SAPE   C3918232   5.184   3.441   7.655 -0.0706 -0.5008  0.5385
  162SAPE   H9X18233   5.277   3.492   7.622 -0.5173 -0.8933 -1.4515
  162SAPE   H9Y18234   5.177   3.340   7.608 -1.0989  0.0161 -0.4393
  162SAPE  C31018235   5.167   3.434   7.802  0.7955 -0.8187 -0.7205
  162SAPE  H10X18236   5.065   3.394   7.820  1.2709 -1.8833 -0.3056
  162SAPE  H10Y18237   5.174   3.534   7.849  0.4301 -0.2305 -1.8599
  162SAPE  C31118238   5.276   3.339   7.858  0.7621  0.0751  0.1129
  162SAPE  H11X18239   5.380   3.374   7.841  0.1391  1.5196 -0.9791
  162SAPE  H11Y18240   5.272   3.254   7.787 -1.5603  0.3060 -0.1115
  162SAPE  C31218241   5.260   3.296   7.999 -0.4738  0.2127 -0.2418
  162SAPE  H12X18242   5.359   3.275   8.043 -1.1178 -0.0487  1.1500
  162SAPE  H12Y18243   5.198   3.203   8.004  0.6924 -0.5199  1.0873
  162SAPE  C31318244   5.193   3.390   8.100  0.5316 -0.0257  0.0727
  162SAPE  H13X18245   5.104   3.441   8.057 -0.4419 -0.2793  1.7281
  162SAPE  H13Y18246   5.267   3.472   8.115  4.0953 -2.7957 -0.8530
  162SAPE  C31418247   5.148   3.332   8.230 -0.1178  0.1674 -0.4934
  162SAPE  H14X18248   5.239   3.286   8.274 -0.3277 -0.8207 -1.0582
  162SAPE  H14Y18249   5.077   3.248   8.213  0.6693 -0.3930 -1.0604
  162SAPE  C31518250   5.096   3.436   8.333  0.3693 -0.1122  0.4083
  162SAPE  H15X18251   4.986   3.442   8.331  0.4171  0.7376 -0.3971
  162SAPE  H15Y18252   5.137   3.538   8.318 -1.1240  0.2685 -1.3261
  162SAPE  C31618253   5.123   3.404   8.482  0.0170 -0.3930 -0.0897
  162SAPE  H16X18254   5.077   3.489   8.536  0.7553  0.3893 -0.6721
  162SAPE  H16Y18255   5.234   3.405   8.487  0.0423 -1.7373  0.0764
  162SAPE  C31718256   5.062   3.271   8.524  0.3529  0.1474 -0.3368
  162SAPE  H17X18257   5.058   3.198   8.440  1.6531 -2.2233  1.5129
  162SAPE  H17Y18258   4.953   3.279   8.546  0.2407  0.8437 -1.1084
  162SAPE  C31818259   5.136   3.183   8.630  0.1779 -0.5208  0.3400
  162SAPE  H18X18260   5.063   3.103   8.655 -1.2409  0.5320 -0.3194
  162SAPE  H18Y18261   5.170   3.235   8.722  2.0738  0.2049 -0.7058
  162SAPE  H18Z18262   5.226   3.147   8.576 -1.0017 -1.2893 -1.2082
  163SAPE     N18263   2.716   3.227   6.321  0.3753  0.6414 -0.3429
  163SAPE   HN118264   2.774   3.148   6.355 -0.5467 -0.0974 -0.4267
  163SAPE   HN218265   2.662   3.201   6.236  0.1439 -1.3304  0.3631
  163SAPE   HN318266   2.780   3.305   6.295  0.4251  0.3612 -1.0827
  163SAPE   C1218267   2.614   3.269   6.423 -0.1076  0.0698 -0.3645
  163SAPE  H12A18268   2.556   3.349   6.374 -0.5160  0.1671  0.2731
  163SAPE  H12B18269   2.664   3.314   6.511 -0.0818 -1.3669  0.3867
  163SAPE   C1118270   2.513   3.153   6.458 -0.0643  0.2755 -0.2287
  163SAPE  H11A18271   2.420   3.182   6.512  0.1932  0.0132  0.3666
  163SAPE  H11B18272   2.565   3.095   6.537  1.1326 -0.3906 -1.4785
  163SAPE     P18273   2.342   3.036   6.282  0.0007 -0.0945 -0.3085
  163SAPE   O1318274   2.292   3.174   6.249 -0.1120  0.1363  0.1102
  163SAPE   O1418275   2.353   2.942   6.165 -0.7638  0.1625 -0.0082
  163SAPE   O1218276   2.486   3.060   6.346 -0.0448 -0.2352 -0.1364
  163SAPE   O1118277   2.258   2.976   6.397 -0.0587  0.6311  0.4194
  163SAPE    C118278   2.300   2.876   6.486  0.2404 -0.3602 -0.1193
  163SAPE    HA18279   2.217   2.802   6.493 -1.5173  1.6190  1.7720
  163SAPE    HB18280   2.390   2.818   6.456  0.2228 -1.2524  1.4368
  163SAPE    C218281   2.312   2.934   6.630  0.1725  0.2257 -0.4100
  163SAPE    HS18282   2.408   2.990   6.629 -0.6435  1.6938 -0.5627
  163SAPE   O2118283   2.318   2.823   6.723 -0.6440 -0.1701 -0.2198
  163SAPE   C2118284   2.406   2.843   6.827 -0.9427  0.5206  0.7461
  163SAPE   O2218285   2.474   2.944   6.844 -0.1221  0.3074  1.0536
  163SAPE   C2218286   2.415   2.711   6.902 -0.2031  0.7039  0.0818
  163SAPE   H2R18287   2.315   2.697   6.948  0.2309  1.6284  1.3814
  163SAPE   H2S18288   2.447   2.630   6.833  0.5500  0.3509  0.8263
  163SAPE    C318289   2.196   3.025   6.666  0.1247 -0.4903 -0.1463
  163SAPE    HX18290   2.103   2.966   6.648 -1.0735  1.6511 -1.3682
  163SAPE    HY18291   2.198   3.113   6.598  1.1869  0.1573  0.6893
  163SAPE   O3118292   2.191   3.065   6.804 -0.1120 -0.3041  0.2339
  163SAPE   C3118293   2.279   3.150   6.855  0.3752  0.0064 -0.6854
  163SAPE   O3218294   2.360   3.216   6.790  0.6047 -0.1050  0.4766
  163SAPE   C3218295   2.246   3.163   7.005  0.1440 -0.3683 -0.0611
  163SAPE   H2X18296   2.171   3.083   7.021 -0.5146  0.4877  1.2972
  163SAPE   H2Y18297   2.188   3.258   7.015 -2.8005 -1.9828 -0.6449
  163SAPE   C2318298   2.517   2.705   7.027  0.4781 -0.1200  0.5984
  163SAPE   H3R18299   2.485   2.784   7.099 -0.0480  2.2015 -2.0168
  163SAPE   H3S18300   2.609   2.748   6.982  0.6223  0.2863  1.2699
  163SAPE   C2418301   2.558   2.570   7.081  0.2702 -0.5023  0.0692
  163SAPE   H4R18302   2.647   2.589   7.145  0.9268  1.3748 -1.3178
  163SAPE   H4S18303   2.590   2.506   6.996  1.0096  0.0727 -0.1049
  163SAPE   C2518304   2.435   2.514   7.143  0.6454  0.2081  0.2258
  163SAPE   H5R18305   2.358   2.479   7.071 -0.8151  0.6748  1.5020
  163SAPE   C2618306   2.408   2.495   7.269 -0.0678  0.4555  0.6492
  163SAPE   H6R18307   2.316   2.438   7.285  1.3210 -2.6514 -1.4813
  163SAPE   C2718308   2.499   2.532   7.385  0.0300 -0.5597  0.0524
  163SAPE   H7R18309   2.437   2.566   7.470  0.3196 -1.8681  0.8129
  163SAPE   H7S18310   2.564   2.617   7.352  1.9697 -2.5175 -1.4458
  163SAPE   C2818311   2.583   2.419   7.450  0.4236 -0.7304 -0.6381
  163SAPE   H8R18312   2.643   2.354   7.385  1.5729 -0.0447 -0.2916
  163SAPE   C2918313   2.581   2.382   7.580  0.1745 -0.0148 -0.0175
  163SAPE   H9R18314   2.642   2.294   7.605 -2.0189 -1.7323 -0.4144
  163SAPE  C21018315   2.506   2.452   7.691  0.1584 -0.6394 -0.2193
  163SAPE  H10R18316   2.400   2.417   7.688  0.1058 -0.4135 -1.6276
  163SAPE  H10S18317   2.500   2.562   7.677 -0.3961 -0.6086  0.2047
  163SAPE  C21118318   2.570   2.431   7.823 -0.0335  0.2756  0.1192
  163SAPE  H11R18319   2.627   2.513   7.871 -0.7854  1.2815 -0.6792
  163SAPE  C21218320   2.548   2.330   7.904 -0.5919 -0.7626  0.6096
  163SAPE  H12R18321   2.603   2.320   7.999 -0.3758  0.7296  0.6582
  163SAPE  C21318322   2.463   2.211   7.869  0.0996  0.3204 -0.6098
  163SAPE  H13R18323   2.485   2.176   7.766  0.4515 -1.0983 -0.0769
  163SAPE  H13S18324   2.357   2.243   7.861 -0.2570 -0.5396  0.3893
  163SAPE  C21418325   2.460   2.096   7.970 -0.1665 -0.0433 -0.4600
  163SAPE  H14R18326   2.544   2.025   7.962  0.0802  0.2334 -0.3285
  163SAPE  C21518327   2.367   2.068   8.067 -0.0281  0.3240 -0.1687
  163SAPE  H15R18328   2.377   1.967   8.109 -1.5022 -0.1174 -0.8155
  163SAPE  C21618329   2.245   2.151   8.101 -0.0917  0.4211 -0.5269
  163SAPE  H16R18330   2.154   2.099   8.136 -1.8594  3.2932 -0.5101
  163SAPE  H16S18331   2.217   2.216   8.015 -0.7002  1.1385  0.2009
  163SAPE  C21718332   2.284   2.251   8.212 -0.0686 -0.7981 -0.3584
  163SAPE  H17R18333   2.187   2.283   8.257  1.0191  0.3617  1.2948
  163SAPE  H17S18334   2.347   2.335   8.176  0.4576 -2.0816 -2.5884
  163SAPE  C21818335   2.365   2.191   8.334 -0.2021 -0.1743 -0.0310
  163SAPE  H18R18336   2.463   2.164   8.289 -0.6084  1.6106 -2.1284
  163SAPE  H18S18337   2.325   2.109   8.397  3.7348 -2.1468  0.2113
  163SAPE  C21918338   2.398   2.296   8.441 -0.3135  0.0498 -0.6572
  163SAPE  H19R18339   2.320   2.374   8.451 -1.0652 -0.8153  0.4600
  163SAPE  H19S18340   2.494   2.342   8.410  2.0784 -2.0985  2.8819
  163SAPE  C22018341   2.444   2.245   8.576 -0.4399 -0.1066 -0.2454
  163SAPE  H20R18342   2.513   2.161   8.556  0.1961 -0.0521  1.5547
  163SAPE  H20S18343   2.358   2.217   8.641  1.7916  0.5133  3.2062
  163SAPE  H20T18344   2.501   2.326   8.627 -0.3338 -0.6141  0.4450
  163SAPE   C3318345   2.371   3.155   7.098  0.4905  0.4307  0.3726
  163SAPE   H3X18346   2.425   3.252   7.097  2.3172 -0.5441 -0.2420
  163SAPE   H3Y18347   2.440   3.078   7.057  0.9083 -0.3619  2.4124
  163SAPE   C3418348   2.326   3.099   7.232  0.2760 -0.6392 -0.3759
  163SAPE   H4X18349   2.302   2.991   7.220 -2.8482 -0.0161 -0.3914
  163SAPE   H4Y18350   2.230   3.148   7.256  0.1266 -1.0274 -0.1786
  163SAPE   C3518351   2.436   3.125   7.336  0.0485 -0.2588 -0.3535
  163SAPE   H5X18352   2.466   3.231   7.344  0.1130 -0.3742  1.2773
  163SAPE   H5Y18353   2.532   3.073   7.319  1.3692  1.9378  0.0043
  163SAPE   C3618354   2.399   3.100   7.481  0.0208  0.4957  0.1092
  163SAPE   H6X18355   2.377   2.992   7.494 -2.2267  0.8380 -0.3908
  163SAPE   H6Y18356   2.312   3.160   7.515 -0.7129 -0.5621  0.1433
  163SAPE   C3718357   2.521   3.144   7.575  0.3207  0.1761  0.3694
  163SAPE   H7X18358   2.555   3.238   7.526 -0.2237 -0.7009 -1.8329
  163SAPE   H7Y18359   2.613   3.083   7.573  0.0611 -0.2081 -0.2478
  163SAPE   C3818360   2.462   3.173   7.717 -0.2167 -0.1542 -0.0714
  163SAPE   H8X18361   2.441   3.071   7.755 -0.2704  0.4043  1.4748
  163SAPE   H8Y18362   2.369   3.233   7.728 -0.9378 -1.5735  2.4873
  163SAPE   C3918363   2.561   3.252   7.804  0.0014 -0.8444 -0.9202
  163SAPE   H9X18364   2.563   3.351   7.755 -1.5507 -1.0542 -1.4647
  163SAPE   H9Y18365   2.660   3.211   7.777  0.4950 -0.8917  0.8065
  163SAPE  C31018366   2.542   3.246   7.956 -0.0948 -0.1724 -0.1287
  163SAPE  H10X18367   2.534   3.143   7.996 -0.5221  0.4922  1.5787
  163SAPE  H10Y18368   2.441   3.291   7.960 -1.3812 -2.5593 -2.3953
  163SAPE  C31118369   2.642   3.334   8.030 -0.3737  1.0175 -0.3800
  163SAPE  H11X18370   2.632   3.439   7.993 -2.0418  0.9913 -0.0949
  163SAPE  H11Y18371   2.745   3.302   8.003  0.8912  2.5776  2.1847
  163SAPE  C31218372   2.623   3.329   8.184 -0.0691  0.4809  0.4867
  163SAPE  H12X18373   2.605   3.222   8.208  0.0319  0.3508 -0.0121
  163SAPE  H12Y18374   2.529   3.385   8.203  0.1657  2.4604 -3.3306
  163SAPE  C31318375   2.746   3.385   8.257 -0.5379 -0.6305  0.0935
  163SAPE  H13X18376   2.768   3.489   8.225  1.2766 -0.9853  0.1125
  163SAPE  H13Y18377   2.840   3.335   8.226 -0.4124  0.6370 -1.7673
  163SAPE  C31418378   2.743   3.400   8.410  0.5221 -0.4557  0.2140
  163SAPE  H14X18379   2.747   3.298   8.456  1.2981  0.0206  1.2424
  163SAPE  H14Y18380   2.646   3.449   8.434  0.8438  0.6235 -0.6238
  163SAPE  C31518381   2.845   3.498   8.470  0.4870 -0.0377 -0.4875
  163SAPE  H15X18382   2.842   3.489   8.581 -0.6619 -0.0663 -0.5136
  163SAPE  H15Y18383   2.818   3.603   8.448 -2.1031 -0.4471  0.4351
  163SAPE  C31618384   2.994   3.461   8.444  0.1147  0.4912 -0.0192
  163SAPE  H16X18385   3.058   3.541   8.487  0.4760 -0.6044  1.5497
  163SAPE  H16Y18386   3.025   3.454   8.337 -1.3083  0.6705 -0.4747
  163SAPE  C31718387   3.046   3.329   8.517 -0.0315 -0.3295  0.3147
  163SAPE  H17X18388   2.990   3.246   8.468  0.4146  0.4845 -1.6896
  163SAPE  H17Y18389   3.013   3.331   8.623  0.9890  0.4083  0.6226
  163SAPE  C31818390   3.198   3.317   8.510 -0.2630  0.1736  0.0050
  163SAPE  H18X18391   3.241   3.407   8.559  0.7498  0.2206 -0.9268
  163SAPE  H18Y18392   3.229   3.294   8.406  1.8460 -2.9046  1.1567
  163SAPE  H18Z18393   3.224   3.228   8.571  0.3202  1.0597  1.0936
  164SAPE     N18394   4.931   6.363   5.789 -0.0129  0.0405 -0.0236
  164SAPE   HN118395   4.976   6.436   5.730  0.3887  0.0158  0.2504
  164SAPE   HN218396   4.864   6.315   5.725 -1.5395  0.2629  1.3498
  164SAPE   HN318397   4.871   6.401   5.864 -0.1731 -0.6423  0.1975
  164SAPE   C1218398   5.037   6.286   5.865 -0.1222  0.4674  0.0210
  164SAPE  H12A18399   5.066   6.197   5.805 -0.8155  0.7127 -0.6969
  164SAPE  H12B18400   4.990   6.257   5.962 -0.2897  0.4292 -0.0711
  164SAPE   C1118401   5.161   6.370   5.902 -0.3840  0.4560  0.2043
  164SAPE  H11A18402   5.129   6.476   5.916 -5.2821 -0.8223  0.2696
  164SAPE  H11B18403   5.238   6.377   5.822 -1.2634  1.2541 -0.6025
  164SAPE     P18404   5.308   6.209   6.046  0.2681  0.0324  0.0282
  164SAPE   O1318405   5.270   6.100   5.951  0.3182 -0.1187  0.5042
  164SAPE   O1418406   5.447   6.264   6.051 -0.1335 -0.2196 -0.9145
  164SAPE   O1218407   5.213   6.329   6.027  0.6104 -0.3301  0.1576
  164SAPE   O1118408   5.272   6.157   6.187 -0.0065  0.4257 -0.0083
  164SAPE    C118409   5.138   6.098   6.214 -0.3487 -0.0201  0.7373
  164SAPE    HA18410   5.060   6.137   6.144 -1.0286  0.7847  1.9205
  164SAPE    HB18411   5.147   5.988   6.200  0.0587  0.3329 -2.8490
  164SAPE    C218412   5.093   6.136   6.363 -0.3744  0.0040 -0.2450
  164SAPE    HS18413   5.054   6.239   6.348 -1.0800 -0.2599 -0.2812
  164SAPE   O2118414   5.199   6.127   6.460 -0.3795  0.2228 -0.5107
  164SAPE   C2118415   5.261   6.243   6.480  0.7740  0.6214  0.7321
  164SAPE   O2218416   5.234   6.342   6.426 -0.1909 -0.9203  0.1987
  164SAPE   C2218417   5.379   6.225   6.577 -0.2627 -0.8107  0.2787
  164SAPE   H2R18418   5.461   6.163   6.535  0.1712  0.6682 -1.1806
  164SAPE   H2S18419   5.423   6.328   6.580  1.5694 -1.5111 -0.9614
  164SAPE    C318420   4.965   6.060   6.405 -0.3257  0.7389  0.0429
  164SAPE    HX18421   4.997   5.955   6.423  0.0478  0.1221 -3.5178
  164SAPE    HY18422   4.906   6.045   6.313  0.5705 -0.3412 -0.3770
  164SAPE   O3118423   4.907   6.116   6.524  0.0534 -0.0071 -0.1119
  164SAPE   C3118424   4.781   6.147   6.514 -0.5420 -0.1192 -0.3076
  164SAPE   O3218425   4.719   6.161   6.413  0.3535 -0.4630  0.2919
  164SAPE   C3218426   4.725   6.174   6.654  0.0321 -0.7097  1.0067
  164SAPE   H2X18427   4.642   6.247   6.644  2.1307  1.5187 -2.3895
  164SAPE   H2Y18428   4.794   6.225   6.724 -1.8649  1.2556  1.5580
  164SAPE   C2318429   5.352   6.184   6.720  0.1622  0.5071 -0.6996
  164SAPE   H3R18430   5.446   6.158   6.773 -0.5522  0.8189  0.7768
  164SAPE   H3S18431   5.293   6.090   6.721  0.0620  0.4814 -3.1703
  164SAPE   C2418432   5.285   6.280   6.816  0.4352 -0.5055 -0.2537
  164SAPE   H4R18433   5.321   6.382   6.794 -1.4982  0.3597  0.3288
  164SAPE   H4S18434   5.322   6.255   6.918  1.0371  2.1636  0.2349
  164SAPE   C2518435   5.139   6.274   6.803 -0.2190 -0.0512 -0.1240
  164SAPE   H5R18436   5.099   6.308   6.706  0.8747 -0.6693 -0.8196
  164SAPE   C2618437   5.059   6.212   6.893 -0.1259  0.1671 -0.1228
  164SAPE   H6R18438   4.951   6.215   6.870 -0.3812  1.6241  1.1224
  164SAPE   C2718439   5.104   6.137   7.021 -0.1955 -1.1931  1.1976
  164SAPE   H7R18440   5.200   6.177   7.059  1.2605 -1.7403 -1.6374
  164SAPE   H7S18441   5.133   6.033   6.996  0.1421 -0.9453  0.5283
  164SAPE   C2818442   4.998   6.144   7.133  0.5664  0.2738 -0.1016
  164SAPE   H8R18443   4.939   6.052   7.143  0.6798  0.0679 -1.1940
  164SAPE   C2918444   4.977   6.240   7.226  0.3165  0.4320 -1.1048
  164SAPE   H9R18445   4.890   6.229   7.292  0.9424 -0.8670 -0.4491
  164SAPE  C21018446   5.045   6.373   7.229  0.5316 -0.3685  0.0205
  164SAPE  H10R18447   5.147   6.357   7.188  0.0458  1.0882 -1.9049
  164SAPE  H10S18448   5.066   6.393   7.336  0.1379 -0.0504  0.0408
  164SAPE  C21118449   4.975   6.494   7.168  0.0677 -0.0455 -1.4037
  164SAPE  H11R18450   5.022   6.531   7.076 -0.2734  2.4174 -0.6385
  164SAPE  C21218451   4.890   6.584   7.225  0.0513  0.6686  0.0113
  164SAPE  H12R18452   4.851   6.667   7.164 -0.6307  1.8543  1.9897
  164SAPE  C21318453   4.829   6.584   7.363  0.2006 -0.7520  0.3923
  164SAPE  H13R18454   4.903   6.542   7.434  0.9409 -1.1790 -0.6109
  164SAPE  H13S18455   4.733   6.528   7.355  0.3742 -0.7516 -2.5182
  164SAPE  C21418456   4.794   6.727   7.400 -0.5367 -0.2392  0.0164
  164SAPE  H14R18457   4.874   6.800   7.386 -1.2228  0.5754  0.2541
  164SAPE  C21518458   4.685   6.777   7.452  0.4482 -0.4438  0.1855
  164SAPE  H15R18459   4.685   6.885   7.473 -1.1972 -0.4097  0.1486
  164SAPE  C21618460   4.568   6.702   7.502 -0.0041  0.3979 -0.7022
  164SAPE  H16R18461   4.572   6.591   7.512 -3.2514  0.2172 -0.2387
  164SAPE  H16S18462   4.469   6.721   7.454  1.1173 -1.1671 -3.8649
  164SAPE  C21718463   4.543   6.748   7.654  0.1655  0.7007 -0.2677
  164SAPE  H17R18464   4.464   6.674   7.681  0.3064  1.1022  1.3057
  164SAPE  H17S18465   4.494   6.848   7.651 -1.6793 -0.1728 -1.1015
  164SAPE  C21818466   4.664   6.737   7.747 -0.0867  0.2507  0.0301
  164SAPE  H18R18467   4.645   6.773   7.850  1.0751 -1.4498  0.8807
  164SAPE  H18S18468   4.747   6.801   7.711  0.0342  0.0615 -0.0282
  164SAPE  C21918469   4.731   6.601   7.758 -0.4622  1.0050 -0.2907
  164SAPE  H19R18470   4.764   6.554   7.663  1.4276  2.1148 -0.2308
  164SAPE  H19S18471   4.657   6.535   7.808  0.4219 -0.7030 -1.1539
  164SAPE  C22018472   4.852   6.604   7.847  0.3609 -0.0109 -0.5357
  164SAPE  H20R18473   4.927   6.669   7.798  0.2603 -0.1054 -0.8193
  164SAPE  H20S18474   4.904   6.511   7.877 -0.0220 -0.2991 -0.7582
  164SAPE  H20T18475   4.825   6.665   7.936 -1.6715 -0.6186 -0.6848
  164SAPE   C3318476   4.687   6.039   6.716 -0.4814 -0.1076  0.2379
  164SAPE   H3X18477   4.772   5.969   6.730 -0.0896  0.4236  0.5611
  164SAPE   H3Y18478   4.616   5.989   6.648 -1.4920  0.9536  0.4902
  164SAPE   C3418479   4.624   6.045   6.855  0.5183  0.0694  0.1778
  164SAPE   H4X18480   4.526   6.097   6.850  0.8533  0.9733  2.1395
  164SAPE   H4Y18481   4.680   6.110   6.925  0.8494 -0.1261  0.0960
  164SAPE   C3518482   4.593   5.903   6.909 -0.7055  0.1635  0.2686
  164SAPE   H5X18483   4.607   5.826   6.831 -0.2196  0.8424 -0.3290
  164SAPE   H5Y18484   4.489   5.896   6.949 -0.1191 -0.8895  1.6845
  164SAPE   C3618485   4.693   5.865   7.019  0.1829 -0.2705  0.9874
  164SAPE   H6X18486   4.792   5.910   6.996 -0.1987 -0.3827 -1.0248
  164SAPE   H6Y18487   4.708   5.755   7.013  0.7085 -0.1504 -0.0441
  164SAPE   C3718488   4.656   5.915   7.165  0.9026  0.2763 -0.3439
  164SAPE   H7X18489   4.548   5.891   7.176  0.5578  1.3820 -1.0803
  164SAPE   H7Y18490   4.673   6.025   7.170  3.6401  0.0005 -1.6620
  164SAPE   C3818491   4.748   5.856   7.273 -0.4527 -0.0042 -0.2029
  164SAPE   H8X18492   4.854   5.884   7.252 -0.8858  0.7678 -1.4167
  164SAPE   H8Y18493   4.744   5.745   7.268  1.1397 -0.2311  2.1250
  164SAPE   C3918494   4.721   5.910   7.414 -0.1360 -0.3731 -0.1096
  164SAPE   H9X18495   4.613   5.890   7.429 -0.0138 -0.9630  0.0045
  164SAPE   H9Y18496   4.738   6.020   7.418 -1.6178 -0.1483  0.7363
  164SAPE  C31018497   4.805   5.855   7.528  0.5080  0.1210 -0.1915
  164SAPE  H10X18498   4.781   5.748   7.549  0.6822 -0.1832 -1.4230
  164SAPE  H10Y18499   4.792   5.928   7.611  4.4745  0.8004  0.0048
  164SAPE  C31118500   4.949   5.861   7.506 -0.3790 -0.4732  0.6454
  164SAPE  H11X18501   4.974   5.969   7.507  0.6939 -0.7007  2.6237
  164SAPE  H11Y18502   4.970   5.821   7.404 -0.3053  2.6454 -0.6695
  164SAPE  C31218503   5.047   5.795   7.613  0.2591 -0.4917  0.5270
  164SAPE  H12X18504   5.156   5.802   7.590  0.5078  0.6783  1.8984
  164SAPE  H12Y18505   5.025   5.687   7.625 -0.9717 -0.5260 -1.5264
  164SAPE  C31318506   5.037   5.861   7.747 -0.3334 -0.4172  0.2020
  164SAPE  H13X18507   5.108   5.792   7.797 -1.5901 -1.9403 -0.0270
  164SAPE  H13Y18508   4.938   5.844   7.794 -0.2723  1.0246  0.9101
  164SAPE  C31418509   5.086   5.998   7.766  0.6236 -0.6536 -0.9095
  164SAPE  H14X18510   5.080   6.043   7.867  1.3832  0.5067 -1.3511
  164SAPE  H14Y18511   5.010   6.060   7.715  0.6163 -2.1820 -2.9141
  164SAPE  C31518512   5.226   6.022   7.708 -0.5864  0.2283 -0.1731
  164SAPE  H15X18513   5.294   5.936   7.726  0.7827  1.1339 -0.8513
  164SAPE  H15Y18514   5.277   6.096   7.774 -0.2240 -2.1069  2.3765
  164SAPE  C31618515   5.217   6.072   7.558 -0.8346  0.5802 -0.1434
  164SAPE  H16X18516   5.135   6.146   7.549 -0.0035  1.5644  0.2629
  164SAPE  H16Y18517   5.189   5.993   7.485  2.0035 -1.2526  0.5500
  164SAPE  C31718518   5.355   6.098   7.501 -0.6343 -0.2161 -0.6045
  164SAPE  H17X18519   5.420   6.008   7.499 -3.0525 -2.1635  1.4180
  164SAPE  H17Y18520   5.396   6.178   7.566  1.2467 -3.7078  2.9220
  164SAPE  C31818521   5.345   6.161   7.357 -0.8763 -0.3470  0.7669
  164SAPE  H18X18522   5.444   6.193   7.316 -0.2629 -1.2749  1.4863
  164SAPE  H18Y18523   5.272   6.245   7.352  0.9290  1.2680 -0.1679
  164SAPE  H18Z18524   5.303   6.091   7.282 -1.1583  0.7633 -0.1516
  165SAPE     N18525   0.029   2.953   6.481  0.6750 -0.3016 -0.3843
  165SAPE   HN118526   0.032   2.962   6.584 -0.6154  0.5602 -0.3932
  165SAPE   HN218527  -0.062   2.937   6.433  1.2142  0.2436 -1.6366
  165SAPE   HN318528   0.092   2.880   6.443 -0.1197  0.3693 -3.2104
  165SAPE   C1218529   0.072   3.087   6.440  0.0480 -0.5603 -0.1964
  165SAPE  H12A18530   0.008   3.159   6.494  2.8270  1.3547  0.7687
  165SAPE  H12B18531   0.053   3.090   6.330  1.0109  2.2641 -0.3495
  165SAPE   C1118532   0.217   3.113   6.475  0.0877  0.3263  0.4993
  165SAPE  H11A18533   0.228   3.114   6.586  0.2313  1.0530  0.4840
  165SAPE  H11B18534   0.253   3.211   6.436 -2.5303  1.5145  0.8485
  165SAPE     P18535   0.448   3.004   6.410 -0.2438 -0.0318  0.1803
  165SAPE   O1318536   0.493   2.889   6.493  0.1570  0.0091  0.1470
  165SAPE   O1418537   0.475   3.003   6.263  0.1551 -0.1161  0.1201
  165SAPE   O1218538   0.292   3.005   6.422 -0.5463  0.4901  0.3281
  165SAPE   O1118539   0.507   3.137   6.473  0.1076 -0.5569 -0.4463
  165SAPE    C118540   0.526   3.145   6.612  0.0187 -0.2103 -0.7959
  165SAPE    HA18541   0.516   3.253   6.635 -2.1640 -0.5118 -0.1421
  165SAPE    HB18542   0.451   3.097   6.678  2.2159 -0.1906  1.9251
  165SAPE    C218543   0.666   3.096   6.653  0.1071  0.1058  0.2463
  165SAPE    HS18544   0.673   2.987   6.636  0.5471  0.3906 -1.6203
  165SAPE   O2118545   0.682   3.131   6.790  0.1786  0.3752  0.2657
  165SAPE   C2118546   0.772   3.057   6.860 -0.1463 -0.0178 -0.5179
  165SAPE   O2218547   0.840   2.967   6.817  0.5017  0.2887 -0.0271
  165SAPE   C2218548   0.772   3.100   7.001  0.3433 -0.3383 -0.0888
  165SAPE   H2R18549   0.853   3.049   7.058 -0.4331 -2.5017 -0.8413
  165SAPE   H2S18550   0.814   3.203   7.006 -0.2836 -0.0816 -0.0172
  165SAPE    C318551   0.790   3.158   6.578 -0.3407 -0.1726  0.1004
  165SAPE    HX18552   0.775   3.146   6.469 -2.7352 -0.2830  0.3903
  165SAPE    HY18553   0.878   3.100   6.614 -0.8807  0.8897  3.5096
  165SAPE   O3118554   0.804   3.298   6.592 -0.7947  0.0808  0.1124
  165SAPE   C3118555   0.880   3.342   6.692  0.9283  0.8119  0.3366
  165SAPE   O3218556   0.937   3.272   6.772 -0.1657  0.0797 -0.1715
  165SAPE   C3218557   0.891   3.489   6.686 -0.0127 -0.9925  0.0559
  165SAPE   H2X18558   0.919   3.522   6.583  2.7049  0.0455  1.0485
  165SAPE   H2Y18559   0.966   3.526   6.759  0.1330 -1.0605 -0.0576
  165SAPE   C2318560   0.636   3.091   7.069  0.5194 -0.4931 -0.6656
  165SAPE   H3R18561   0.594   2.992   7.042  0.7361 -1.4112  2.0434
  165SAPE   H3S18562   0.566   3.162   7.019 -0.4308 -1.3511 -0.5851
  165SAPE   C2418563   0.643   3.107   7.218  0.3347  0.8141 -0.2991
  165SAPE   H4R18564   0.725   3.044   7.258 -1.0063  0.3621  1.8550
  165SAPE   H4S18565   0.548   3.061   7.253  0.3404 -0.3460 -1.7166
  165SAPE   C2518566   0.655   3.243   7.280  0.2828 -0.5541  0.0088
  165SAPE   H5R18567   0.563   3.304   7.268 -1.3831 -2.9926 -0.2716
  165SAPE   C2618568   0.761   3.292   7.355 -0.5606 -0.4042  0.5173
  165SAPE   H6R18569   0.771   3.396   7.390  0.0058  0.2636 -1.4931
  165SAPE   C2718570   0.888   3.211   7.373 -0.4202  0.2412  0.4713
  165SAPE   H7R18571   0.977   3.275   7.355  0.2422 -0.7404  0.2002
  165SAPE   H7S18572   0.909   3.144   7.287 -2.9682 -2.0826  1.4979
  165SAPE   C2818573   0.906   3.135   7.500  0.3347 -0.1281  1.1218
  165SAPE   H8R18574   0.847   3.042   7.499  1.1692 -0.7572 -2.1748
  165SAPE   C2918575   0.967   3.181   7.604 -0.1450 -0.9123 -0.3080
  165SAPE   H9R18576   0.973   3.112   7.690  0.7449  0.3575  0.6902
  165SAPE  C21018577   1.042   3.311   7.616  0.6571 -0.4013 -0.2964
  165SAPE  H10R18578   0.966   3.392   7.627  0.9677  0.2610 -2.4771
  165SAPE  H10S18579   1.098   3.346   7.527 -1.3229 -1.2408 -1.9761
  165SAPE  C21118580   1.141   3.305   7.730  0.2841  0.2841  0.3257
  165SAPE  H11R18581   1.227   3.239   7.712 -0.2434 -0.0381 -1.1572
  165SAPE  C21218582   1.125   3.362   7.850  1.2932 -0.2895 -0.2596
  165SAPE  H12R18583   1.197   3.350   7.931 -0.6288  3.5069  2.3303
  165SAPE  C21318584   1.003   3.448   7.883  0.4813  0.4520 -0.4088
  165SAPE  H13R18585   0.911   3.423   7.826 -1.2008  2.4031  1.2956
  165SAPE  H13S18586   1.021   3.553   7.854  0.6596  1.1418  1.9841
  165SAPE  C21418587   0.968   3.455   8.029  0.6059  0.8598 -0.5420
  165SAPE  H14R18588   0.996   3.371   8.096 -1.1664  0.2043 -0.5637
  165SAPE  C21518589   0.906   3.555   8.083 -0.4080 -0.1266 -0.6790
  165SAPE  H15R18590   0.883   3.548   8.191 -2.2237  0.4693 -1.0061
  165SAPE  C21618591   0.855   3.680   8.015  0.1397  0.6274  1.0317
  165SAPE  H16R18592   0.831   3.656   7.909  1.7473  2.0425  0.2869
  165SAPE  H16S18593   0.944   3.747   8.011  0.7606 -0.1359  1.7918
  165SAPE  C21718594   0.754   3.774   8.080  0.4112  0.9283 -0.3166
  165SAPE  H17R18595   0.787   3.808   8.181 -1.5909 -0.7469  0.9912
  165SAPE  H17S18596   0.661   3.719   8.106 -0.6962  2.9531  0.1950
  165SAPE  C21818597   0.720   3.881   7.979 -0.3457  0.3581 -0.1389
  165SAPE  H18R18598   0.681   3.822   7.893 -1.6364 -1.0496  1.3409
  165SAPE  H18S18599   0.806   3.942   7.944 -1.6941  1.8788 -0.9004
  165SAPE  C21918600   0.608   3.967   8.038  0.0983  0.3132 -0.7041
  165SAPE  H19R18601   0.642   4.026   8.125  1.0093 -0.9865 -0.1469
  165SAPE  H19S18602   0.525   3.907   8.080 -1.2843  2.0365 -0.9021
  165SAPE  C22018603   0.557   4.068   7.937 -0.1107  0.8279  0.8582
  165SAPE  H20R18604   0.518   4.021   7.844 -1.3758  0.0992  1.7265
  165SAPE  H20S18605   0.644   4.128   7.901 -1.4697  0.7725 -3.0388
  165SAPE  H20T18606   0.479   4.136   7.977  0.1656  1.0844  0.9658
  165SAPE   C3318607   0.753   3.549   6.705 -0.3674  0.2356  0.8551
  165SAPE   H3X18608   0.681   3.537   6.622  0.4403 -0.9871  0.2869
  165SAPE   H3Y18609   0.752   3.660   6.710  0.3254  0.2019  2.4973
  165SAPE   C3418610   0.685   3.503   6.834 -0.3566 -0.6515 -0.1235
  165SAPE   H4X18611   0.680   3.393   6.844 -0.0690 -0.6403  0.1343
  165SAPE   H4Y18612   0.580   3.534   6.814 -0.7773  1.3403  4.0607
  165SAPE   C3518613   0.747   3.570   6.961 -0.0314  0.2960 -0.0277
  165SAPE   H5X18614   0.736   3.679   6.940  0.0642  0.7310  2.0064
  165SAPE   H5Y18615   0.850   3.529   6.960  0.7976  2.1703  1.4063
  165SAPE   C3618616   0.673   3.546   7.095 -0.0345  0.4732  0.0742
  165SAPE   H6X18617   0.742   3.520   7.178 -1.7666  2.7529  2.3982
  165SAPE   H6Y18618   0.617   3.452   7.075  1.5097  0.0103 -2.4962
  165SAPE   C3718619   0.569   3.655   7.133 -0.7932 -0.0797 -0.0215
  165SAPE   H7X18620   0.493   3.673   7.054 -1.8508 -0.6251  0.8462
  165SAPE   H7Y18621   0.636   3.743   7.144 -0.6950  0.3776 -3.2030
  165SAPE   C3818622   0.495   3.620   7.264 -0.2753  0.1391  0.2365
  165SAPE   H8X18623   0.567   3.647   7.344  0.0316  1.2264 -0.3906
  165SAPE   H8Y18624   0.481   3.509   7.267  1.9529 -0.2390 -1.1907
  165SAPE   C3918625   0.348   3.682   7.274 -0.6369 -0.4458  0.1316
  165SAPE   H9X18626   0.292   3.660   7.181  1.7559  0.9341 -1.7308
  165SAPE   H9Y18627   0.358   3.792   7.275 -0.5124 -0.4508  1.1284
  165SAPE  C31018628   0.283   3.645   7.410 -0.2075 -0.5634  0.9135
  165SAPE  H10X18629   0.287   3.537   7.437  1.8216 -0.4189  1.3324
  165SAPE  H10Y18630   0.177   3.678   7.401  0.4751  1.2095 -1.8351
  165SAPE  C31118631   0.334   3.728   7.535 -0.3676  0.5739 -0.5503
  165SAPE  H11X18632   0.272   3.819   7.524 -3.0471 -0.9358  0.9897
  165SAPE  H11Y18633   0.437   3.769   7.524  0.4807 -1.2169  0.2819
  165SAPE  C31218634   0.322   3.649   7.671 -0.4449  0.3576  0.0611
  165SAPE  H12X18635   0.393   3.564   7.668 -0.0435  0.6776  0.4771
  165SAPE  H12Y18636   0.220   3.607   7.687 -0.4954  1.1768  2.3647
  165SAPE  C31318637   0.380   3.733   7.791  0.0128  1.2893 -0.0854
  165SAPE  H13X18638   0.322   3.828   7.789 -1.1191  0.6307 -2.1159
  165SAPE  H13Y18639   0.487   3.756   7.771  0.2324  0.4500  0.1100
  165SAPE  C31418640   0.375   3.667   7.926 -0.2991  0.5473 -1.2117
  165SAPE  H14X18641   0.412   3.746   7.995  3.2169  0.2711 -2.5910
  165SAPE  H14Y18642   0.444   3.580   7.930  0.7644  1.3985 -0.4458
  165SAPE  C31518643   0.232   3.624   7.984 -0.1813  0.1534  0.7570
  165SAPE  H15X18644   0.195   3.534   7.930  2.3268 -0.2060 -0.5248
  165SAPE  H15Y18645   0.159   3.704   7.959  0.0733  0.3536  0.6489
  165SAPE  C31618646   0.240   3.592   8.131  0.5519  0.1225  0.3089
  165SAPE  H16X18647   0.247   3.687   8.189 -1.4194  1.6118 -1.7163
  165SAPE  H16Y18648   0.323   3.520   8.150  0.7503  0.3517  0.3223
  165SAPE  C31718649   0.105   3.537   8.176  0.3029  0.4237 -0.6002
  165SAPE  H17X18650   0.072   3.457   8.106  1.4476 -2.4713  1.9027
  165SAPE  H17Y18651   0.023   3.611   8.163  0.6010  0.8016 -0.3421
  165SAPE  C31818652   0.098   3.475   8.318  0.3820  0.2616 -0.3790
  165SAPE  H18X18653   0.128   3.548   8.396 -0.3532  2.1579 -1.7875
  165SAPE  H18Y18654   0.167   3.388   8.314 -2.0001 -1.9808  2.8669
  165SAPE  H18Z18655  -0.008   3.445   8.332  1.2103 -2.4635  0.7416
  166SAPE     N18656   4.431   5.850   5.712 -0.6418 -0.8464  0.1985
  166SAPE   HN118657   4.370   5.933   5.696  0.1333 -0.5491 -1.3511
  166SAPE   HN218658   4.529   5.884   5.707 -0.0190 -2.3581  1.1593
  166SAPE   HN318659   4.410   5.775   5.643 -0.3953 -2.9283  2.2468
  166SAPE   C1218660   4.405   5.790   5.850 -0.0706 -0.2234  0.5629
  166SAPE  H12A18661   4.459   5.694   5.863  1.7991  0.7276  0.0978
  166SAPE  H12B18662   4.297   5.767   5.863  0.2901 -0.6465  3.7410
  166SAPE   C1118663   4.459   5.873   5.963  0.3559 -0.4553  0.1783
  166SAPE  H11A18664   4.569   5.888   5.953  0.4412 -1.4179 -0.5210
  166SAPE  H11B18665   4.455   5.816   6.059  0.2287 -2.2050 -0.8323
  166SAPE     P18666   4.261   6.027   6.051  0.0505  0.1006 -0.1118
  166SAPE   O1318667   4.240   6.173   6.030 -0.3158  0.0864  0.3367
  166SAPE   O1418668   4.157   5.936   5.998  0.6756  0.6811 -0.5952
  166SAPE   O1218669   4.396   5.994   5.976  0.1109 -0.3829 -0.3982
  166SAPE   O1118670   4.286   6.003   6.206  0.5978 -0.2876 -0.0004
  166SAPE    C118671   4.401   6.057   6.275  0.3978 -0.5622  0.3095
  166SAPE    HA18672   4.454   5.972   6.323  2.2938  0.1396 -0.4726
  166SAPE    HB18673   4.479   6.093   6.205  1.0287 -2.4247 -0.0225
  166SAPE    C218674   4.372   6.169   6.379  0.5053  0.0769 -0.0477
  166SAPE    HS18675   4.470   6.178   6.430  0.1678 -1.5929  0.9687
  166SAPE   O2118676   4.260   6.139   6.467  0.5174 -0.0060 -0.7740
  166SAPE   C2118677   4.281   6.042   6.550 -0.1004 -0.3430 -0.8431
  166SAPE   O2218678   4.380   5.971   6.551 -0.1325  0.3417 -0.0960
  166SAPE   C2218679   4.170   6.023   6.654  0.4046 -0.2373  0.3371
  166SAPE   H2R18680   4.099   5.980   6.580  2.1880 -0.7715 -1.1298
  166SAPE   H2S18681   4.196   5.937   6.719 -0.5905  0.5411  1.8399
  166SAPE    C318682   4.342   6.299   6.308 -0.2257  0.5513  0.3051
  166SAPE    HX18683   4.268   6.289   6.226  0.2702  0.4876 -0.1354
  166SAPE    HY18684   4.436   6.338   6.263 -0.9588 -1.0786 -2.9498
  166SAPE   O3118685   4.301   6.386   6.410  0.6501 -0.3828 -0.3079
  166SAPE   C3118686   4.169   6.407   6.428 -0.5139 -0.0370  0.4866
  166SAPE   O3218687   4.082   6.339   6.376  0.2270  0.0244 -0.2776
  166SAPE   C3218688   4.156   6.521   6.527 -0.7241  0.1346  0.2288
  166SAPE   H2X18689   4.178   6.613   6.467 -2.8216 -0.4608 -1.5918
  166SAPE   H2Y18690   4.218   6.494   6.615 -1.0616  0.5117  0.5863
  166SAPE   C2318691   4.129   6.153   6.727 -0.3536 -0.1148  0.2939
  166SAPE   H3R18692   4.034   6.145   6.783  0.7295 -1.7086  2.0409
  166SAPE   H3S18693   4.114   6.224   6.644 -0.6514 -1.2101 -0.6212
  166SAPE   C2418694   4.239   6.197   6.829  0.4067 -0.5114 -0.4672
  166SAPE   H4R18695   4.337   6.218   6.782 -0.2836 -0.8580 -2.1522
  166SAPE   H4S18696   4.261   6.115   6.900  0.1319 -0.4533 -0.3109
  166SAPE   C2518697   4.180   6.320   6.892  0.8239  0.0627  0.4448
  166SAPE   H5R18698   4.209   6.415   6.845 -1.1964  1.2660  1.5104
  166SAPE   C2618699   4.120   6.317   7.012 -0.2584  0.7062  0.0215
  166SAPE   H6R18700   4.086   6.411   7.057  1.0758  1.0248  0.4014
  166SAPE   C2718701   4.079   6.190   7.087  0.1003 -0.1648  0.1639
  166SAPE   H7R18702   4.059   6.105   7.018 -0.7874  0.2653 -0.1281
  166SAPE   H7S18703   3.973   6.199   7.117 -0.0993 -3.2673  0.6818
  166SAPE   C2818704   4.179   6.163   7.193 -0.9534 -0.4505  0.2526
  166SAPE   H8R18705   4.284   6.189   7.175 -1.2447  1.5422  1.2021
  166SAPE   C2918706   4.157   6.105   7.320 -0.9476  0.2457  0.7595
  166SAPE   H9R18707   4.241   6.081   7.387  0.2418  0.6983 -0.5213
  166SAPE  C21018708   4.017   6.062   7.362 -0.5255  0.0078 -0.0866
  166SAPE  H10R18709   3.963   6.025   7.272 -0.1827 -1.7312  0.3848
  166SAPE  H10S18710   3.953   6.150   7.385  0.6468  0.6346  0.8891
  166SAPE  C21118711   4.003   5.956   7.469 -0.2041  0.0052  1.1803
  166SAPE  H11R18712   3.982   5.852   7.440 -0.8711  0.6364 -0.7622
  166SAPE  C21218713   4.005   5.979   7.601  0.0491  0.1600  0.5888
  166SAPE  H12R18714   3.988   5.897   7.672 -0.5302  1.8739  2.5387
  166SAPE  C21318715   4.022   6.116   7.665  0.2239  0.1900  0.0539
  166SAPE  H13R18716   3.920   6.145   7.699  0.2425  0.0604  0.2205
  166SAPE  H13S18717   4.077   6.185   7.598  1.8299 -1.7143 -0.6860
  166SAPE  C21418718   4.101   6.098   7.790  0.6459 -0.2879 -0.0625
  166SAPE  H14R18719   4.202   6.053   7.789  1.2228  0.9006 -2.1399
  166SAPE  C21518720   4.058   6.116   7.920  0.3689  0.0046  0.1251
  166SAPE  H15R18721   4.134   6.094   7.996  0.3231  0.1742  0.2196
  166SAPE  C21618722   3.913   6.152   7.976  0.8721 -0.5632 -0.3106
  166SAPE  H16R18723   3.832   6.103   7.918  0.2438 -1.7587  1.4709
  166SAPE  H16S18724   3.899   6.258   8.004  2.1501 -0.5646  0.4321
  166SAPE  C21718725   3.903   6.072   8.114  0.1471  0.7257 -0.2229
  166SAPE  H17R18726   4.006   6.063   8.154  0.7080  0.6560 -1.5969
  166SAPE  H17S18727   3.877   5.965   8.101 -0.8986  0.8909  0.3776
  166SAPE  C21818728   3.812   6.126   8.225 -0.0272  0.7656  0.2052
  166SAPE  H18R18729   3.849   6.225   8.256 -1.0780  1.2648 -0.0717
  166SAPE  H18S18730   3.831   6.067   8.318 -0.8433  2.1200  1.2619
  166SAPE  C21918731   3.668   6.124   8.166 -0.1308  0.3543  0.1065
  166SAPE  H19R18732   3.647   6.023   8.126  1.0797 -0.1955  0.8356
  166SAPE  H19S18733   3.671   6.203   8.088  1.6118  0.3966  0.1829
  166SAPE  C22018734   3.564   6.154   8.270 -0.4413  0.2289  0.0168
  166SAPE  H20R18735   3.559   6.071   8.344 -1.5142  1.0279  0.8568
  166SAPE  H20S18736   3.467   6.171   8.218 -1.3403  0.6544  1.7589
  166SAPE  H20T18737   3.578   6.254   8.315 -1.6741  1.6971 -2.5961
  166SAPE   C3318738   4.017   6.539   6.592 -0.1694 -0.5077 -0.0711
  166SAPE   H3X18739   3.995   6.442   6.642 -0.7754 -0.4945 -0.3026
  166SAPE   H3Y18740   3.944   6.564   6.512 -3.5240  1.6549  3.2615
  166SAPE   C3418741   4.003   6.659   6.685  0.6041  0.1689 -0.0157
  166SAPE   H4X18742   3.896   6.683   6.699 -0.0250 -0.8124 -2.6103
  166SAPE   H4Y18743   4.046   6.750   6.639 -0.5523  0.3549 -0.7477
  166SAPE   C3518744   4.060   6.631   6.831  1.1437  0.0128 -0.0703
  166SAPE   H5X18745   4.164   6.595   6.818  0.6860 -3.1009  3.2812
  166SAPE   H5Y18746   4.003   6.547   6.876 -1.7850  1.0215 -1.6062
  166SAPE   C3618747   4.053   6.755   6.919 -0.4141 -0.1660 -0.0414
  166SAPE   H6X18748   3.952   6.799   6.910  0.2589  1.0980 -2.0356
  166SAPE   H6Y18749   4.126   6.834   6.892  2.1230 -2.1150  0.7261
  166SAPE   C3718750   4.069   6.715   7.066  0.2903 -0.2137 -0.3919
  166SAPE   H7X18751   4.009   6.626   7.096  1.3169 -1.4554 -1.8903
  166SAPE   H7Y18752   4.040   6.807   7.122  1.9721 -0.1502  0.4408
  166SAPE   C3818753   4.213   6.690   7.100  0.6179 -0.2034  0.1275
  166SAPE   H8X18754   4.279   6.773   7.067 -1.0020  0.6107 -1.2280
  166SAPE   H8Y18755   4.225   6.595   7.043 -2.6547  0.8602 -2.7375
  166SAPE   C3918756   4.243   6.672   7.243  1.0324 -0.0644 -0.5147
  166SAPE   H9X18757   4.222   6.757   7.312  1.3914 -0.1310 -0.3175
  166SAPE   H9Y18758   4.348   6.637   7.256  0.4938 -0.6272  3.4995
  166SAPE  C31018759   4.155   6.555   7.304 -0.1166 -0.2449 -0.4627
  166SAPE  H10X18760   4.181   6.464   7.244 -0.7885  1.4161 -3.4748
  166SAPE  H10Y18761   4.047   6.576   7.288 -0.0480 -0.8097 -1.8287
  166SAPE  C31118762   4.184   6.524   7.455 -0.6379  0.4600 -0.2278
  166SAPE  H11X18763   4.283   6.480   7.477 -0.2981  1.8692  1.1416
  166SAPE  H11Y18764   4.107   6.444   7.469 -0.4119  0.4751  1.2812
  166SAPE  C31218765   4.153   6.644   7.551 -0.5873 -0.0595 -0.8320
  166SAPE  H12X18766   4.055   6.692   7.529 -0.5004  0.4467 -0.1622
  166SAPE  H12Y18767   4.235   6.715   7.527  0.2830  0.0869  2.0885
  166SAPE  C31318768   4.161   6.597   7.700  0.1060 -0.2851 -0.1430
  166SAPE  H13X18769   4.261   6.554   7.722 -0.3951 -0.7199  1.4367
  166SAPE  H13Y18770   4.081   6.522   7.717  1.3557 -1.7490 -0.5013
  166SAPE  C31418771   4.155   6.720   7.794 -0.2648  0.3752  0.3829
  166SAPE  H14X18772   4.049   6.750   7.811 -0.7592 -0.7620 -0.5723
  166SAPE  H14Y18773   4.207   6.803   7.742 -2.2259  1.3518 -0.1522
  166SAPE  C31518774   4.224   6.681   7.924  0.2729 -0.0305 -0.7670
  166SAPE  H15X18775   4.232   6.767   7.994 -1.6447 -1.5751  1.5264
  166SAPE  H15Y18776   4.330   6.656   7.902  0.0117 -0.4267 -1.6192
  166SAPE  C31618777   4.154   6.565   8.004 -0.1195 -0.6597  0.3851
  166SAPE  H16X18778   4.207   6.475   7.967 -0.1871 -0.4750 -0.1705
  166SAPE  H16Y18779   4.049   6.573   7.968 -0.3717  0.5572  1.3078
  166SAPE  C31718780   4.161   6.574   8.155  0.5862  0.6965 -0.2315
  166SAPE  H17X18781   4.109   6.668   8.185 -0.9090  0.1394 -0.9849
  166SAPE  H17Y18782   4.266   6.568   8.191  0.4629 -2.7208 -0.1787
  166SAPE  C31818783   4.089   6.454   8.225 -0.0791 -0.4057 -0.7421
  166SAPE  H18X18784   4.143   6.361   8.198  1.6207 -0.6136  2.7416
  166SAPE  H18Y18785   3.982   6.455   8.196  0.2064  2.2935 -2.0051
  166SAPE  H18Z18786   4.087   6.459   8.336 -1.2988  0.8782 -0.7971
  167SAPE     N18787   0.191   6.007   6.030 -0.1048  0.0225  0.5065
  167SAPE   HN118788   0.094   5.974   6.014 -0.5315  1.7002 -0.6516
  167SAPE   HN218789   0.223   6.004   6.129 -0.4139 -2.6788  0.5990
  167SAPE   HN318790   0.205   6.102   5.989  3.2796 -0.3795  0.4307
  167SAPE   C1218791   0.286   5.928   5.959  0.0648 -0.3191 -0.2597
  167SAPE  H12A18792   0.382   5.983   5.966 -0.6809  1.0338 -0.2545
  167SAPE  H12B18793   0.259   5.924   5.851  0.9137  3.0441 -0.7347
  167SAPE   C1118794   0.296   5.793   6.029 -0.1735 -0.3578 -1.2870
  167SAPE  H11A18795   0.358   5.725   5.968  1.2646 -2.0160  1.8170
  167SAPE  H11B18796   0.200   5.739   6.041 -1.1899  1.5198 -0.4947
  167SAPE     P18797   0.464   5.735   6.220  0.6564  0.4874 -0.3288
  167SAPE   O1318798   0.395   5.627   6.292  0.3690 -0.0778  0.2007
  167SAPE   O1418799   0.554   5.695   6.112 -0.7896 -0.1593  0.1303
  167SAPE   O1218800   0.353   5.818   6.157  0.0022  0.0274 -0.7227
  167SAPE   O1118801   0.540   5.833   6.319  0.2830 -0.1198 -0.2135
  167SAPE    C118802   0.484   5.956   6.375 -0.1243 -0.8549 -0.2254
  167SAPE    HA18803   0.519   6.048   6.324 -2.1327  1.9267  2.9071
  167SAPE    HB18804   0.373   5.968   6.372 -0.2800 -2.1028 -0.1118
  167SAPE    C218805   0.518   5.963   6.523  0.3121  1.1041 -0.5497
  167SAPE    HS18806   0.625   5.944   6.544 -0.3840 -1.8591  0.8507
  167SAPE   O2118807   0.423   5.884   6.600 -0.3298 -0.0460 -0.4297
  167SAPE   C2118808   0.460   5.756   6.623 -0.0235  0.0353 -0.2332
  167SAPE   O2218809   0.554   5.699   6.567 -0.0502 -0.6869 -0.2650
  167SAPE   C2218810   0.360   5.694   6.714 -0.4590 -0.1684 -1.2908
  167SAPE   H2R18811   0.263   5.715   6.664  0.2072  0.5411 -2.3341
  167SAPE   H2S18812   0.373   5.583   6.706 -1.6710 -0.4426  0.1008
  167SAPE    C318813   0.502   6.114   6.572  0.8270 -0.4000 -0.4835
  167SAPE    HX18814   0.412   6.151   6.519  1.5922 -0.0177 -1.5434
  167SAPE    HY18815   0.590   6.177   6.547  0.9912 -0.0259  0.9416
  167SAPE   O3118816   0.475   6.125   6.714  0.0145  0.2087  0.5502
  167SAPE   C3118817   0.576   6.085   6.796 -0.4876  0.4283  0.8971
  167SAPE   O3218818   0.679   6.030   6.757  0.4859 -0.0352 -0.4267
  167SAPE   C3218819   0.537   6.105   6.941 -0.2940 -0.6758  0.1622
  167SAPE   H2X18820   0.544   6.013   7.003 -2.0332 -1.4522 -0.7254
  167SAPE   H2Y18821   0.429   6.133   6.944  0.2877  1.7486 -0.0371
  167SAPE   C2318822   0.370   5.738   6.861  0.0517  0.3844 -0.9559
  167SAPE   H3R18823   0.316   5.835   6.875 -1.9725 -0.9968  1.7598
  167SAPE   H3S18824   0.474   5.754   6.898  0.6516 -3.1638 -0.7803
  167SAPE   C2418825   0.318   5.635   6.962  0.5332 -0.2436 -0.1617
  167SAPE   H4R18826   0.344   5.677   7.062  2.4965  1.0747 -1.1752
  167SAPE   H4S18827   0.369   5.536   6.963  0.4880 -0.2689  0.7364
  167SAPE   C2518828   0.173   5.600   6.955 -0.6016  0.6268 -0.4565
  167SAPE   H5R18829   0.146   5.543   6.865 -1.1071 -0.3059  0.2680
  167SAPE   C2618830   0.079   5.618   7.046 -0.2521 -0.3431 -0.1472
  167SAPE   H6R18831  -0.024   5.595   7.015  0.5648 -1.5521 -2.0870
  167SAPE   C2718832   0.088   5.682   7.179 -0.1632  0.6713 -0.7633
  167SAPE   H7R18833  -0.003   5.739   7.204 -1.1156 -0.5260 -1.3551
  167SAPE   H7S18834   0.162   5.765   7.182 -1.4886  1.8543  1.9703
  167SAPE   C2818835   0.126   5.586   7.285  0.0528 -0.5579 -0.6412
  167SAPE   H8R18836   0.176   5.493   7.257  3.6524  0.7605  0.8189
  167SAPE   C2918837   0.114   5.604   7.418  0.1106 -0.7587 -0.0892
  167SAPE   H9R18838   0.131   5.527   7.494 -1.8204  0.2920  1.5246
  167SAPE  C21018839   0.047   5.727   7.481  0.9300  0.2467  0.3248
  167SAPE  H10R18840  -0.060   5.706   7.504  0.6709  2.7420  1.7847
  167SAPE  H10S18841   0.050   5.813   7.411  0.4421  1.5020  1.8046
  167SAPE  C21118842   0.121   5.756   7.610 -0.6579 -0.4647  0.0603
  167SAPE  H11R18843   0.106   5.678   7.686 -3.3720  1.0633  1.2423
  167SAPE  C21218844   0.194   5.861   7.635 -0.3425 -0.2225 -0.3255
  167SAPE  H12R18845   0.233   5.866   7.738 -0.8055  2.1538 -0.2072
  167SAPE  C21318846   0.222   5.982   7.552 -0.4143 -0.2784 -0.3590
  167SAPE  H13R18847   0.170   5.986   7.454  2.5686  0.1992 -2.0421
  167SAPE  H13S18848   0.327   5.983   7.516  0.9914  0.9206  3.2904
  167SAPE  C21418849   0.191   6.113   7.634  0.2146  0.0664 -0.0217
  167SAPE  H14R18850   0.276   6.181   7.640 -0.7352  1.4417 -1.4275
  167SAPE  C21518851   0.078   6.149   7.694  0.4919  0.2278  0.0346
  167SAPE  H15R18852   0.082   6.243   7.751 -0.5530 -2.3700  4.9107
  167SAPE  C21618853  -0.051   6.082   7.713  0.1254 -0.1956  0.6446
  167SAPE  H16R18854  -0.045   5.980   7.669  0.7831  0.5753 -1.1717
  167SAPE  H16S18855  -0.135   6.133   7.660  0.6667 -0.0219 -0.0590
  167SAPE  C21718856  -0.078   6.054   7.862 -0.1807  0.3002  0.0283
  167SAPE  H17R18857   0.004   5.995   7.909 -0.8885 -0.3766  0.4505
  167SAPE  H17S18858  -0.168   5.990   7.873  0.3660 -0.7466 -1.2787
  167SAPE  C21818859  -0.118   6.185   7.942 -0.7165 -0.1486 -0.9583
  167SAPE  H18R18860  -0.208   6.230   7.895 -1.4042  0.4413  0.8556
  167SAPE  H18S18861  -0.038   6.262   7.941 -0.7865 -0.0822 -1.7072
  167SAPE  C21918862  -0.157   6.156   8.083 -0.2058  0.9384 -0.6962
  167SAPE  H19R18863  -0.076   6.100   8.135 -0.3855  1.2148 -0.1160
  167SAPE  H19S18864  -0.251   6.097   8.086  1.1031 -1.2212  1.1108
  167SAPE  C22018865  -0.195   6.283   8.158  0.0044  0.4098  0.1122
  167SAPE  H20R18866  -0.289   6.334   8.126 -0.4470 -0.1094  0.5770
  167SAPE  H20S18867  -0.117   6.357   8.133  0.9761 -0.8474 -0.6948
  167SAPE  H20T18868  -0.215   6.255   8.263 -1.2007 -1.8476 -0.6580
  167SAPE   C3318869   0.605   6.220   7.015 -0.3449 -0.0034 -0.2116
  167SAPE   H3X18870   0.543   6.256   7.100 -1.8161 -2.7818  0.0374
  167SAPE   H3Y18871   0.626   6.307   6.949  2.0403  0.1491  0.6603
  167SAPE   C3418872   0.740   6.170   7.077  0.5561  0.3313  0.4258
  167SAPE   H4X18873   0.800   6.121   6.996 -1.3736  0.0308 -0.8932
  167SAPE   H4Y18874   0.720   6.083   7.143  2.8463 -1.2665 -0.8031
  167SAPE   C3518875   0.828   6.271   7.152  0.3248  0.3427  0.2987
  167SAPE   H5X18876   0.831   6.367   7.098 -1.3839  0.2241 -0.0742
  167SAPE   H5Y18877   0.932   6.234   7.163  0.0040 -0.9862 -0.8179
  167SAPE   C3618878   0.784   6.312   7.297  0.2320  0.2750 -0.4293
  167SAPE   H6X18879   0.766   6.233   7.373 -0.0127  1.4007  0.7193
  167SAPE   H6Y18880   0.685   6.359   7.278  0.7412  1.1210 -1.0547
  167SAPE   C3718881   0.886   6.408   7.366 -0.1533  0.1958  0.1097
  167SAPE   H7X18882   0.922   6.486   7.296 -0.1706  0.5086  0.4456
  167SAPE   H7Y18883   0.970   6.340   7.395 -0.5304 -0.8765 -1.2234
  167SAPE   C3818884   0.824   6.477   7.491 -0.1652  0.0843 -0.1599
  167SAPE   H8X18885   0.722   6.513   7.466  0.3189  2.6469  1.2555
  167SAPE   H8Y18886   0.898   6.558   7.507 -0.4824  0.1568  1.0053
  167SAPE   C3918887   0.818   6.398   7.617 -0.2211 -0.0596 -0.5580
  167SAPE   H9X18888   0.915   6.347   7.634 -0.7520 -0.9763 -0.1765
  167SAPE   H9Y18889   0.734   6.326   7.604 -0.6946 -0.6490  4.0700
  167SAPE  C31018890   0.784   6.485   7.736  0.0639  0.5936 -0.2116
  167SAPE  H10X18891   0.696   6.539   7.695 -0.5494 -0.9591 -1.0515
  167SAPE  H10Y18892   0.862   6.558   7.766  1.0831 -0.9245  0.9596
  167SAPE  C31118893   0.726   6.419   7.858  0.1825  0.1258 -0.6417
  167SAPE  H11X18894   0.639   6.355   7.831  0.0351 -0.5732  1.3475
  167SAPE  H11Y18895   0.680   6.503   7.914  0.1557 -1.1176  1.3057
  167SAPE  C31218896   0.826   6.363   7.962  0.2976  0.1772  1.1258
  167SAPE  H12X18897   0.901   6.441   7.986 -0.5850  0.9247  1.5056
  167SAPE  H12Y18898   0.885   6.278   7.923  0.4953  0.3409  1.0681
  167SAPE  C31318899   0.753   6.316   8.082  0.1013  0.2157 -0.1633
  167SAPE  H13X18900   0.669   6.247   8.055  1.0136 -0.6293 -0.9237
  167SAPE  H13Y18901   0.722   6.402   8.144  0.8285 -0.4771  1.1899
  167SAPE  C31418902   0.848   6.252   8.184 -0.0847 -0.0120 -0.6402
  167SAPE  H14X18903   0.904   6.339   8.222  1.6440 -1.5155  0.4272
  167SAPE  H14Y18904   0.914   6.182   8.127  0.3197 -0.7710  0.7249
  167SAPE  C31518905   0.786   6.186   8.307 -0.5985 -0.3228 -0.1748
  167SAPE  H15X18906   0.858   6.144   8.381  1.2323  1.4352 -0.8838
  167SAPE  H15Y18907   0.713   6.110   8.273 -0.8485 -0.2459  0.1846
  167SAPE  C31618908   0.703   6.297   8.392  0.9194  1.0217 -0.3346
  167SAPE  H16X18909   0.664   6.227   8.468  1.0800 -1.5097 -2.4208
  167SAPE  H16Y18910   0.618   6.332   8.330 -0.5626 -1.1247  0.3733
  167SAPE  C31718911   0.783   6.418   8.444 -0.0633 -0.0367 -0.1195
  167SAPE  H17X18912   0.787   6.500   8.369  0.0303 -0.1147 -0.1999
  167SAPE  H17Y18913   0.885   6.389   8.478 -1.0671 -0.8148  2.4811
  167SAPE  C31818914   0.716   6.482   8.565 -0.2461  0.3380  0.2620
  167SAPE  H18X18915   0.609   6.501   8.542 -0.2088  0.1047 -0.1033
  167SAPE  H18Y18916   0.774   6.573   8.593  1.5403 -0.2716 -1.2185
  167SAPE  H18Z18917   0.720   6.413   8.652 -0.8151  1.7204  1.4377
  168SAPE     N18918   1.412   5.370   6.511  0.1021 -0.7318 -1.1098
  168SAPE   HN118919   1.391   5.468   6.539 -1.3071 -0.6963 -2.2045
  168SAPE   HN218920   1.351   5.295   6.550  0.1221 -0.1199  0.1548
  168SAPE   HN318921   1.511   5.353   6.537  0.3346 -0.4467 -1.8018
  168SAPE   C1218922   1.413   5.377   6.363  0.6782 -0.2047 -0.1763
  168SAPE  H12A18923   1.512   5.340   6.328 -0.2571 -1.0416 -2.0921
  168SAPE  H12B18924   1.396   5.482   6.332 -0.6386  0.0416  1.2761
  168SAPE   C1118925   1.310   5.269   6.310 -0.3186 -0.2564  0.4578
  168SAPE  H11A18926   1.338   5.162   6.316 -0.8032 -0.5297 -1.5172
  168SAPE  H11B18927   1.308   5.299   6.203 -1.5774  0.4020  0.6459
  168SAPE     P18928   1.056   5.247   6.291  0.1199  0.0465  0.2084
  168SAPE   O1318929   1.036   5.352   6.191  0.4734  0.7290 -0.1843
  168SAPE   O1418930   1.080   5.109   6.236  0.2774 -0.8207  0.0791
  168SAPE   O1218931   1.183   5.285   6.371 -0.2133 -0.5373  0.8895
  168SAPE   O1118932   0.941   5.246   6.400  0.2780  0.7325 -0.1045
  168SAPE    C118933   0.954   5.182   6.533 -0.5515 -1.1838  0.2501
  168SAPE    HA18934   1.029   5.101   6.537  0.7381  0.0046  1.5558
  168SAPE    HB18935   0.988   5.256   6.609  1.6014 -1.7055 -0.1388
  168SAPE    C218936   0.830   5.109   6.588 -0.4074 -0.3871  0.1430
  168SAPE    HS18937   0.782   5.071   6.495  0.8455 -2.4045  0.2609
  168SAPE   O2118938   0.743   5.210   6.645  0.2812 -0.6117 -0.1008
  168SAPE   C2118939   0.615   5.171   6.657 -1.2633  0.6371 -0.3773
  168SAPE   O2218940   0.565   5.077   6.599 -0.4500 -0.4218  0.3008
  168SAPE   C2218941   0.544   5.287   6.728 -0.6858  0.2908 -0.0288
  168SAPE   H2R18942   0.600   5.306   6.823 -1.2719  2.8630 -0.1316
  168SAPE   H2S18943   0.554   5.372   6.658 -2.7582  1.0312  0.5076
  168SAPE    C318944   0.860   4.986   6.677 -0.5132 -0.4059  0.1475
  168SAPE    HX18945   0.922   4.918   6.615 -3.2156 -1.2697 -1.8186
  168SAPE    HY18946   0.767   4.933   6.708  0.4964 -2.4097 -0.1021
  168SAPE   O3118947   0.923   5.019   6.796 -0.0354  0.3320  0.2169
  168SAPE   C3118948   0.901   4.933   6.897 -0.2477 -0.0859 -0.3256
  168SAPE   O3218949   0.846   4.823   6.886 -0.5677 -0.5455 -0.4889
  168SAPE   C3218950   0.965   4.975   7.033 -0.2835  0.0020 -0.5437
  168SAPE   H2X18951   0.948   5.085   7.043 -1.3621 -0.0186 -1.7909
  168SAPE   H2Y18952   1.071   4.949   7.017  0.2848  1.3131  0.8659
  168SAPE   C2318953   0.393   5.254   6.752  0.4186 -0.0798 -0.0438
  168SAPE   H3R18954   0.348   5.191   6.672  0.7698  0.4052 -0.6390
  168SAPE   H3S18955   0.345   5.354   6.748  1.6340  0.5724  1.0045
  168SAPE   C2418956   0.370   5.204   6.900 -1.0361 -0.1097 -0.0484
  168SAPE   H4R18957   0.259   5.212   6.906 -1.1764 -1.9786  0.4528
  168SAPE   H4S18958   0.410   5.269   6.980  2.0951  0.6181 -2.0519
  168SAPE   C2518959   0.402   5.058   6.909  0.2122 -0.0835 -0.2934
  168SAPE   H5R18960   0.379   4.998   6.820  1.0206 -0.7740 -0.0446
  168SAPE   C2618961   0.451   5.000   7.015  0.5248 -0.2840  0.9026
  168SAPE   H6R18962   0.473   4.892   7.004 -0.3652 -0.3319 -0.7038
  168SAPE   C2718963   0.469   5.063   7.150 -0.4369  0.1148  0.6220
  168SAPE   H7R18964   0.487   4.978   7.219  2.2986 -0.3502 -0.5404
  168SAPE   H7S18965   0.370   5.108   7.176  0.4491  3.4287 -1.1166
  168SAPE   C2818966   0.576   5.169   7.166 -1.0208  0.1461  0.7502
  168SAPE   H8R18967   0.661   5.174   7.096 -0.7839 -0.6630  0.9793
  168SAPE   C2918968   0.582   5.247   7.278 -0.3662 -0.1904 -0.5576
  168SAPE   H9R18969   0.662   5.319   7.301 -3.4463  2.5079  2.9862
  168SAPE  C21018970   0.488   5.253   7.397  0.3381  0.6685  0.2176
  168SAPE  H10R18971   0.536   5.204   7.484  1.6632 -0.1456 -0.9459
  168SAPE  H10S18972   0.400   5.186   7.385  0.5377  0.7048 -1.7100
  168SAPE  C21118973   0.444   5.395   7.427 -0.5691  0.6150 -0.1709
  168SAPE  H11R18974   0.431   5.457   7.337  0.6249  3.6298  1.5934
  168SAPE  C21218975   0.418   5.451   7.543 -0.4931 -0.0958 -0.3013
  168SAPE  H12R18976   0.390   5.557   7.540 -0.6611 -0.1618 -1.3950
  168SAPE  C21318977   0.426   5.383   7.681  0.2466 -0.5970 -0.4664
  168SAPE  H13R18978   0.453   5.275   7.678  1.0015 -0.4049 -1.4112
  168SAPE  H13S18979   0.325   5.385   7.727  0.3793 -1.8963 -0.0928
  168SAPE  C21418980   0.530   5.471   7.745 -0.3939  0.1107  0.1253
  168SAPE  H14R18981   0.627   5.491   7.697  0.1094  0.7916  1.3677
  168SAPE  C21518982   0.521   5.543   7.860  0.8263 -0.0176 -0.3212
  168SAPE  H15R18983   0.603   5.613   7.883  0.0322  0.8223  0.0087
  168SAPE  C21618984   0.406   5.544   7.956  0.0075  0.3199  0.5140
  168SAPE  H16R18985   0.440   5.560   8.061  0.3710  2.9638  0.0701
  168SAPE  H16S18986   0.364   5.442   7.959 -0.0646  0.3771  1.9409
  168SAPE  C21718987   0.298   5.650   7.931  0.0993  0.5301  0.4169
  168SAPE  H17R18988   0.249   5.632   7.833  0.9628 -0.2913  0.1168
  168SAPE  H17S18989   0.349   5.749   7.933  2.0795 -0.4320  2.3187
  168SAPE  C21818990   0.195   5.642   8.046 -0.2811  0.3044  0.5417
  168SAPE  H18R18991   0.245   5.662   8.143  3.0018 -0.0866 -0.9464
  168SAPE  H18S18992   0.160   5.537   8.044 -0.6593  0.4295 -1.3784
  168SAPE  C21918993   0.078   5.736   8.029 -0.6339  0.1032  0.0777
  168SAPE  H19R18994   0.016   5.693   7.948  1.7115 -2.0050 -0.7107
  168SAPE  H19S18995   0.119   5.833   7.994  1.4938 -0.7502  0.0534
  168SAPE  C22018996  -0.005   5.740   8.152  0.7872 -0.1592 -0.1741
  168SAPE  H20R18997  -0.019   5.639   8.196  0.0999  0.7963  1.9244
  168SAPE  H20S18998  -0.111   5.768   8.133 -0.3438 -2.2587  2.4971
  168SAPE  H20T18999   0.048   5.804   8.225 -0.4003 -1.5622  2.0155
  168SAPE   C3319000   0.921   4.878   7.146 -0.3947  0.0397  0.6535
  168SAPE   H3X19001   0.976   4.783   7.131  0.5908  0.6750  0.1288
  168SAPE   H3Y19002   0.812   4.860   7.132  0.0072 -0.4091 -2.8746
  168SAPE   C3419003   0.953   4.950   7.285  0.2891 -0.2739  0.4380
  168SAPE   H4X19004   0.924   5.057   7.288  0.1401 -0.3185  0.6364
  168SAPE   H4Y19005   1.063   4.942   7.295  0.2605 -0.4662  0.6351
  168SAPE   C3519006   0.905   4.887   7.413  0.0957 -0.1409  0.0775
  168SAPE   H5X19007   0.948   4.784   7.417  0.8390  0.1104 -0.8636
  168SAPE   H5Y19008   0.795   4.868   7.410 -0.0578  0.1788  2.2991
  168SAPE   C3619009   0.949   4.963   7.534 -0.5115  0.7882  0.6022
  168SAPE   H6X19010   0.930   5.070   7.513 -0.3602  0.6667 -0.1968
  168SAPE   H6Y19011   1.060   4.976   7.532 -0.5597  1.7129  2.1104
  168SAPE   C3719012   0.897   4.906   7.659  0.1349 -0.1593 -0.2374
  168SAPE   H7X19013   0.944   4.810   7.688  0.5745  0.1205  0.0027
  168SAPE   H7Y19014   0.791   4.886   7.632 -0.3538 -0.8944  2.0161
  168SAPE   C3819015   0.905   4.993   7.790 -0.5090  0.4938  0.3303
  168SAPE   H8X19016   0.942   5.093   7.760  1.5092 -0.2110  0.2687
  168SAPE   H8Y19017   0.986   4.962   7.860 -0.9967 -0.2046  0.5929
  168SAPE   C3919018   0.769   4.992   7.860  0.3577 -0.4071  0.6060
  168SAPE   H9X19019   0.699   5.022   7.779  2.0445 -2.1029 -1.6156
  168SAPE   H9Y19020   0.767   5.069   7.940 -0.7163 -1.0657  1.2379
  168SAPE  C31019021   0.742   4.861   7.924  0.0233  0.7186  0.2714
  168SAPE  H10X19022   0.820   4.834   7.998 -1.2467 -2.2160  0.6583
  168SAPE  H10Y19023   0.744   4.790   7.840  3.4343  0.6029  0.3367
  168SAPE  C31119024   0.607   4.864   7.992 -1.1304  0.9651  0.1340
  168SAPE  H11X19025   0.526   4.872   7.916  0.0145 -0.9296 -1.3685
  168SAPE  H11Y19026   0.615   4.945   8.069 -1.8701 -0.5102  1.8394
  168SAPE  C31219027   0.581   4.742   8.083  0.0320  0.5849  0.0779
  168SAPE  H12X19028   0.669   4.708   8.142 -1.1740  0.2717  1.7989
  168SAPE  H12Y19029   0.571   4.653   8.017 -0.8815 -0.0982  1.0999
  168SAPE  C31319030   0.459   4.765   8.171  0.1127  0.4531  0.4099
  168SAPE  H13X19031   0.371   4.762   8.104  2.9573  1.2616 -3.7796
  168SAPE  H13Y19032   0.456   4.867   8.215 -0.2572  0.5501  0.1590
  168SAPE  C31419033   0.453   4.675   8.293  0.5231  0.3016 -0.7133
  168SAPE  H14X19034   0.376   4.715   8.362  0.2163 -1.9317  0.3166
  168SAPE  H14Y19035   0.557   4.680   8.333  1.0740  0.4115 -2.0915
  168SAPE  C31519036   0.405   4.536   8.264  0.2156 -0.2234  0.0187
  168SAPE  H15X19037   0.466   4.488   8.185 -1.8271 -2.6848 -0.1912
  168SAPE  H15Y19038   0.306   4.521   8.217  0.4980 -1.1921 -0.3048
  168SAPE  C31619039   0.395   4.453   8.396  0.5581 -0.0622 -0.1719
  168SAPE  H16X19040   0.294   4.466   8.440 -0.1636  0.0832 -1.8335
  168SAPE  H16Y19041   0.470   4.496   8.466  0.8516 -0.6668 -0.1061
  168SAPE  C31719042   0.408   4.306   8.375  0.5072  0.0257 -0.1412
  168SAPE  H17X19043   0.405   4.253   8.473  2.5495  0.5229  0.2334
  168SAPE  H17Y19044   0.513   4.301   8.339  0.3552  1.7376 -0.9095
  168SAPE  C31819045   0.310   4.240   8.281  0.1555  0.4313  0.5495
  168SAPE  H18X19046   0.323   4.284   8.180  0.9242  0.0100  0.4623
  168SAPE  H18Y19047   0.208   4.259   8.321 -0.4812 -1.2849 -0.1743
  168SAPE  H18Z19048   0.317   4.131   8.298 -0.4140  0.6032  2.0441
  169SAPE     N19049   5.348   2.252   6.250  0.3732  0.1566 -0.6439
  169SAPE   HN119050   5.353   2.148   6.258 -3.1720 -0.0999 -0.0695
  169SAPE   HN219051   5.305   2.281   6.160 -2.8711  0.6583  0.9014
  169SAPE   HN319052   5.444   2.289   6.257  0.6450 -0.8311  2.5199
  169SAPE   C1219053   5.248   2.309   6.351  0.0987  1.0323 -0.1402
  169SAPE  H12A19054   5.152   2.254   6.339 -0.0777  1.5720 -1.2427
  169SAPE  H12B19055   5.232   2.416   6.329  2.8148  2.2531  2.9392
  169SAPE   C1119056   5.279   2.295   6.496 -0.9964 -0.2358 -1.1611
  169SAPE  H11A19057   5.356   2.373   6.514 -2.7755  1.5207 -0.8067
  169SAPE  H11B19058   5.316   2.193   6.524  2.1962  0.4509 -2.4119
  169SAPE     P19059   5.161   2.434   6.685 -0.0348 -0.1672 -0.1858
  169SAPE   O1319060   5.292   2.493   6.702  0.1711  0.1592 -0.1195
  169SAPE   O1419061   5.041   2.522   6.688  0.0407  0.0480 -0.1877
  169SAPE   O1219062   5.150   2.330   6.561  0.0551  0.0686  0.3290
  169SAPE   O1119063   5.146   2.335   6.804 -0.2753  0.2132  0.4769
  169SAPE    C119064   5.121   2.197   6.800  0.3594  0.2524 -0.1466
  169SAPE    HA19065   5.012   2.190   6.821  0.0153 -0.8442 -2.0868
  169SAPE    HB19066   5.143   2.151   6.702 -0.1391 -0.7586  0.2047
  169SAPE    C219067   5.219   2.127   6.900 -0.5838  0.8118  0.2931
  169SAPE    HS19068   5.295   2.076   6.837 -0.2209  0.9575  0.6056
  169SAPE   O2119069   5.143   2.034   6.984  0.6160  0.0446 -0.5822
  169SAPE   C2119070   5.100   1.923   6.925  0.2671 -0.6162 -0.0003
  169SAPE   O2219071   5.142   1.886   6.814  0.4515  0.0785  0.1626
  169SAPE   C2219072   5.005   1.853   7.019 -0.4919  0.1615  0.2128
  169SAPE   H2R19073   5.072   1.807   7.095 -1.0453  1.6080  1.6526
  169SAPE   H2S19074   4.945   1.930   7.074  0.1436  0.9014 -0.1130
  169SAPE    C319075   5.288   2.236   6.992 -0.4972  0.1083  0.1930
  169SAPE    HX19076   5.211   2.309   7.025 -2.6336 -2.3402  0.9441
  169SAPE    HY19077   5.361   2.288   6.925 -1.2216  0.8090 -0.0668
  169SAPE   O3119078   5.342   2.175   7.111 -0.6921  0.4656 -0.0217
  169SAPE   C3119079   5.445   2.091   7.098  0.7544 -0.5108 -1.0709
  169SAPE   O3219080   5.498   2.047   6.997  0.1318 -0.3616  0.3919
  169SAPE   C3219081   5.491   2.041   7.230  0.2044  0.1532  0.4050
  169SAPE   H2X19082   5.570   1.966   7.213  0.2901  0.4083 -0.3519
  169SAPE   H2Y19083   5.406   1.987   7.277 -1.5505  0.3658 -2.2940
  169SAPE   C2319084   4.906   1.757   6.952  0.1478  0.5249 -0.2345
  169SAPE   H3R19085   4.969   1.686   6.894 -1.8144 -1.3464 -0.1537
  169SAPE   H3S19086   4.841   1.799   6.872 -0.4863  1.6132  0.8200
  169SAPE   C2419087   4.814   1.690   7.056 -0.2053 -0.7626 -0.0500
  169SAPE   H4R19088   4.725   1.754   7.072  0.3843 -0.3577  1.9136
  169SAPE   H4S19089   4.854   1.689   7.160  0.0835  2.1696 -0.0575
  169SAPE   C2519090   4.768   1.564   6.998 -0.3256 -0.1850  0.1028
  169SAPE   H5R19091   4.757   1.558   6.889  0.9563 -2.1304  0.0188
  169SAPE   C2619092   4.731   1.457   7.074 -0.2014  0.1604 -0.2574
  169SAPE   H6R19093   4.707   1.361   7.026  1.5409 -1.9245  2.6843
  169SAPE   C2719094   4.736   1.460   7.227  0.9245  0.0947  0.6419
  169SAPE   H7R19095   4.672   1.542   7.266  0.6783  1.0064 -1.5355
  169SAPE   H7S19096   4.839   1.495   7.250  0.3592  2.0062  0.4287
  169SAPE   C2819097   4.712   1.325   7.301  0.0967  0.8793 -0.1103
  169SAPE   H8R19098   4.704   1.233   7.241  0.5896 -0.8494  2.3455
  169SAPE   C2919099   4.712   1.308   7.434 -0.0974 -0.2024  0.5317
  169SAPE   H9R19100   4.696   1.207   7.474  2.1210 -0.1528  1.7413
  169SAPE  C21019101   4.739   1.411   7.536 -0.1032 -0.0084 -0.8429
  169SAPE  H10R19102   4.752   1.511   7.489  1.5807  0.3704  0.3161
  169SAPE  H10S19103   4.837   1.395   7.585 -0.4502 -1.0496 -0.4648
  169SAPE  C21119104   4.642   1.410   7.656 -0.5051  0.5854  1.0379
  169SAPE  H11R19105   4.543   1.454   7.638 -0.2970  0.4214 -0.6788
  169SAPE  C21219106   4.652   1.356   7.775 -1.1489  0.0082  0.6139
  169SAPE  H12R19107   4.566   1.357   7.844 -1.0181 -0.6710  0.8041
  169SAPE  C21319108   4.762   1.272   7.832 -0.2859 -0.5850 -0.7085
  169SAPE  H13R19109   4.848   1.278   7.762 -1.3287  2.3993 -1.8938
  169SAPE  H13S19110   4.729   1.166   7.833  0.2990 -0.8110 -2.4841
  169SAPE  C21419111   4.807   1.327   7.969 -0.4041  0.2449 -0.2181
  169SAPE  H14R19112   4.891   1.397   7.964 -0.3085  0.0654 -1.4599
  169SAPE  C21519113   4.750   1.298   8.089 -0.7505 -0.2611  0.1366
  169SAPE  H15R19114   4.788   1.362   8.170  0.2957  0.1245 -0.6224
  169SAPE  C21619115   4.635   1.212   8.130  0.0828  0.1952  0.7742
  169SAPE  H16R19116   4.596   1.176   8.032 -1.5469  3.0926  0.2606
  169SAPE  H16S19117   4.558   1.280   8.171  0.2020  0.0944  1.1690
  169SAPE  C21719118   4.656   1.078   8.209  0.2072  0.4787 -0.3297
  169SAPE  H17R19119   4.697   1.019   8.125 -0.4558  0.5582 -0.7211
  169SAPE  H17S19120   4.562   1.027   8.238  0.6879  0.4184  1.2167
  169SAPE  C21819121   4.744   1.085   8.339 -0.0459  0.0814  0.5632
  169SAPE  H18R19122   4.710   1.166   8.407  1.0839  0.3700  0.7927
  169SAPE  H18S19123   4.844   1.116   8.302 -0.5292  3.0558  1.5258
  169SAPE  C21919124   4.776   0.950   8.405 -0.0042  0.4530 -0.5602
  169SAPE  H19R19125   4.818   0.871   8.339 -2.6792 -1.6773  0.0940
  169SAPE  H19S19126   4.686   0.905   8.453  0.0138 -0.0433 -0.9809
  169SAPE  C22019127   4.878   0.976   8.520 -0.6697  0.5853 -0.8603
  169SAPE  H20R19128   4.890   0.876   8.567 -1.0806  0.8536 -0.1745
  169SAPE  H20S19129   4.833   1.051   8.589 -0.6066  0.2029 -0.4018
  169SAPE  H20T19130   4.978   1.017   8.492 -2.2760  3.8870 -2.3061
  169SAPE   C3319131   5.551   2.163   7.307  0.0061  0.8931  0.3941
  169SAPE   H3X19132   5.487   2.223   7.376 -1.3352 -0.9863  0.8683
  169SAPE   H3Y19133   5.604   2.236   7.242 -0.5999  1.7289  0.8182
  169SAPE   C3419134   5.674   2.101   7.386  1.0042  0.7002 -0.8731
  169SAPE   H4X19135   5.741   2.043   7.321  0.0925  0.3213 -1.4955
  169SAPE   H4Y19136   5.629   2.023   7.450  1.2393  1.3146  0.0655
  169SAPE   C3519137   5.761   2.201   7.459 -0.0022  0.0853  0.2724
  169SAPE   H5X19138   5.693   2.264   7.520  1.1210  0.9085  0.7138
  169SAPE   H5Y19139   5.790   2.269   7.377  0.3165 -0.3660  0.0044
  169SAPE   C3619140   5.868   2.124   7.534  0.0245  0.0238  0.2649
  169SAPE   H6X19141   5.959   2.181   7.561 -1.5088  0.8523  4.4897
  169SAPE   H6Y19142   5.890   2.033   7.475  1.9861 -0.9201  2.2710
  169SAPE   C3719143   5.818   2.090   7.669 -0.0009 -0.4315 -1.0865
  169SAPE   H7X19144   5.734   2.019   7.653 -0.2356 -0.6886  0.9579
  169SAPE   H7Y19145   5.775   2.181   7.716 -1.5035 -2.2801  1.3461
  169SAPE   C3819146   5.916   2.019   7.771 -0.2331  0.5457 -0.5639
  169SAPE   H8X19147   5.985   2.091   7.820  1.1541 -1.6689  0.9099
  169SAPE   H8Y19148   5.977   1.947   7.712 -1.2530 -0.2684 -0.6644
  169SAPE   C3919149   5.827   1.958   7.879 -0.7108  0.4150 -0.3467
  169SAPE   H9X19150   5.881   1.875   7.930 -0.7556  0.3135 -0.4643
  169SAPE   H9Y19151   5.738   1.917   7.828  1.4444 -1.9298 -2.5277
  169SAPE  C31019152   5.774   2.043   7.991  0.5859  0.1336 -0.3144
  169SAPE  H10X19153   5.717   2.132   7.959 -3.7053 -2.1956  0.1733
  169SAPE  H10Y19154   5.858   2.083   8.052  1.1431  0.9883 -1.5814
  169SAPE  C31119155   5.681   1.961   8.088  0.0579 -0.0187  0.2820
  169SAPE  H11X19156   5.742   1.896   8.154  1.3685 -0.8777 -1.6898
  169SAPE  H11Y19157   5.609   1.901   8.028  0.4226  1.1767 -1.4371
  169SAPE  C31219158   5.608   2.063   8.178 -0.0702  0.3979 -0.8564
  169SAPE  H12X19159   5.679   2.138   8.220 -1.1868  0.6388  0.6837
  169SAPE  H12Y19160   5.572   2.006   8.266  1.7865  2.3649  1.3070
  169SAPE  C31319161   5.488   2.124   8.114  0.4580  0.2509  0.4759
  169SAPE  H13X19162   5.418   2.043   8.083  2.5516 -1.6818  0.5143
  169SAPE  H13Y19163   5.509   2.163   8.012 -3.4599 -1.0887 -1.0406
  169SAPE  C31419164   5.419   2.225   8.198 -0.1356 -0.1877 -0.0797
  169SAPE  H14X19165   5.493   2.274   8.265  1.8092 -0.7204 -1.7433
  169SAPE  H14Y19166   5.350   2.159   8.256 -0.6492 -1.3787 -1.9806
  169SAPE  C31519167   5.341   2.328   8.116 -0.1100  0.1227  1.1040
  169SAPE  H15X19168   5.278   2.264   8.050 -1.0890  0.5770  1.5757
  169SAPE  H15Y19169   5.411   2.374   8.044 -0.9319 -0.3167 -0.0197
  169SAPE  C31619170   5.268   2.428   8.204  0.2734  1.0645  0.1898
  169SAPE  H16X19171   5.345   2.467   8.274 -1.0448  2.0800  1.1368
  169SAPE  H16Y19172   5.203   2.369   8.273  1.2858  0.1267  0.3620
  169SAPE  C31719173   5.212   2.548   8.132 -0.6726  0.5620 -1.0713
  169SAPE  H17X19174   5.157   2.516   8.041 -0.2716 -1.6588 -0.6010
  169SAPE  H17Y19175   5.299   2.605   8.094 -0.4941 -1.2671 -3.6455
  169SAPE  C31819176   5.123   2.636   8.224  0.2966 -0.3561 -0.0714
  169SAPE  H18X19177   5.051   2.574   8.281  0.1024  0.9692  1.1722
  169SAPE  H18Y19178   5.061   2.692   8.150  1.8603  1.6597  0.0180
  169SAPE  H18Z19179   5.179   2.713   8.282  0.7883  2.2144 -3.5434
  170SAPE     N19180   1.773   4.233   6.063 -0.3027 -0.5230  0.1052
  170SAPE   HN119181   1.752   4.329   6.030 -2.3473  0.2037  3.0895
  170SAPE   HN219182   1.876   4.227   6.048  0.0398  3.5414 -0.3252
  170SAPE   HN319183   1.714   4.167   6.008 -1.5451  0.3321  0.3642
  170SAPE   C1219184   1.744   4.206   6.205 -0.4373  0.1379  0.7549
  170SAPE  H12A19185   1.749   4.096   6.218 -1.0791 -0.0903 -0.6632
  170SAPE  H12B19186   1.646   4.255   6.225 -0.5852  1.0521 -1.8730
  170SAPE   C1119187   1.851   4.249   6.313  0.4957 -0.2309 -0.4476
  170SAPE  H11A19188   1.807   4.199   6.402  0.5820 -0.5514 -0.5864
  170SAPE  H11B19189   1.856   4.360   6.320  4.1436 -0.2146 -1.5956
  170SAPE     P19190   2.090   4.247   6.202 -0.1868  0.1124 -0.1183
  170SAPE   O1319191   2.223   4.176   6.216  0.1946 -0.3165 -0.4035
  170SAPE   O1419192   2.043   4.254   6.063 -0.0939  0.5540 -0.0938
  170SAPE   O1219193   1.977   4.180   6.284  0.3455  0.1582 -0.0596
  170SAPE   O1119194   2.081   4.392   6.267  0.9070  0.1688 -0.0620
  170SAPE    C119195   2.166   4.417   6.386  0.4152 -0.3201  0.5252
  170SAPE    HA19196   2.256   4.354   6.401  0.0961 -0.9564 -0.1913
  170SAPE    HB19197   2.206   4.520   6.381  1.8381 -0.8435  0.6786
  170SAPE    C219198   2.073   4.418   6.512 -0.5628  0.1760  0.3056
  170SAPE    HS19199   2.038   4.313   6.527 -0.3033 -0.0067 -0.3608
  170SAPE   O2119200   1.968   4.510   6.502 -0.1751 -0.2354 -0.5197
  170SAPE   C2119201   1.872   4.498   6.588  0.7097  0.7846 -0.5547
  170SAPE   O2219202   1.843   4.396   6.649  0.8248  0.5756 -0.4596
  170SAPE   C2219203   1.789   4.632   6.598 -0.2380 -0.4026 -0.6795
  170SAPE   H2R19204   1.846   4.701   6.532  1.6465  1.0743  2.2448
  170SAPE   H2S19205   1.691   4.597   6.560 -0.2494 -1.6000  0.3637
  170SAPE    C319206   2.165   4.436   6.636 -0.7133  0.5878 -0.1372
  170SAPE    HX19207   2.204   4.540   6.634 -2.7281  1.4544  1.5290
  170SAPE    HY19208   2.251   4.367   6.650  0.4382  2.2053  1.1814
  170SAPE   O3119209   2.091   4.420   6.761  0.1104 -0.8107  0.2509
  170SAPE   C3119210   2.153   4.467   6.870 -0.2065  0.4913 -0.8613
  170SAPE   O3219211   2.267   4.524   6.866  0.5021 -0.5608 -0.0652
  170SAPE   C3219212   2.085   4.430   7.008 -0.0401 -0.0875  0.3997
  170SAPE   H2X19213   2.054   4.324   6.996 -2.1382  0.1851  2.5449
  170SAPE   H2Y19214   1.992   4.491   7.011 -0.4551 -0.5228 -1.8574
  170SAPE   C2319215   1.770   4.679   6.748  0.2334 -0.8824 -0.1889
  170SAPE   H3R19216   1.710   4.600   6.798 -2.0952  0.4294 -0.7879
  170SAPE   H3S19217   1.701   4.767   6.747 -1.4674 -2.1031  1.7596
  170SAPE   C2419218   1.898   4.722   6.817 -0.6369 -0.5201 -0.2098
  170SAPE   H4R19219   1.980   4.673   6.761 -1.8752 -2.3716 -0.4969
  170SAPE   H4S19220   1.895   4.685   6.922 -0.2089  0.4193  0.1369
  170SAPE   C2519221   1.925   4.873   6.801 -0.6405  0.3224 -0.0124
  170SAPE   H5R19222   1.927   4.908   6.697 -1.6991 -1.1744 -0.5805
  170SAPE   C2619223   1.926   4.959   6.899  0.3097  0.5445 -0.8136
  170SAPE   H6R19224   1.945   5.064   6.873  0.1674  0.6413 -0.5294
  170SAPE   C2719225   1.917   4.932   7.048  0.0266  0.4392 -0.4209
  170SAPE   H7R19226   1.849   4.846   7.063 -1.0608  1.2311 -0.6843
  170SAPE   H7S19227   1.866   5.017   7.100 -1.2936 -1.1347  0.9783
  170SAPE   C2819228   2.042   4.893   7.116  0.1089  0.0189  0.0474
  170SAPE   H8R19229   2.127   4.917   7.051 -1.4451  0.1464 -2.0519
  170SAPE   C2919230   2.056   4.852   7.244 -0.1294  0.0026  0.7125
  170SAPE   H9R19231   2.160   4.839   7.278  0.0580 -0.9279 -0.1758
  170SAPE  C21019232   1.938   4.827   7.335  0.0057 -0.0505  0.3520
  170SAPE  H10R19233   1.840   4.834   7.283  0.6800 -1.5889 -1.2583
  170SAPE  H10S19234   1.932   4.920   7.395 -0.3104  0.0912  0.1019
  170SAPE  C21119235   1.939   4.702   7.418  0.1381 -0.4358  0.0712
  170SAPE  H11R19236   1.964   4.608   7.367  1.2848 -0.8309  1.2877
  170SAPE  C21219237   1.928   4.691   7.553  0.8706  0.8776  0.3975
  170SAPE  H12R19238   1.922   4.586   7.584  0.6279  1.3802  2.1674
  170SAPE  C21319239   1.906   4.786   7.666  0.6990 -0.5961 -0.0235
  170SAPE  H13R19240   1.799   4.773   7.692  0.4406  1.7161  0.2392
  170SAPE  H13S19241   1.910   4.891   7.630 -2.6120 -0.1700  0.4967
  170SAPE  C21419242   2.000   4.772   7.782  0.3341  0.6957  0.1242
  170SAPE  H14R19243   2.109   4.769   7.764  0.3714 -1.7079  0.3712
  170SAPE  C21519244   1.950   4.738   7.902 -0.2676  0.4716 -0.3216
  170SAPE  H15R19245   2.028   4.728   7.979  0.0781 -0.5907 -0.7921
  170SAPE  C21619246   1.810   4.714   7.955 -0.3623 -0.3972  0.1906
  170SAPE  H16R19247   1.751   4.667   7.874 -0.5142 -2.6300  1.5187
  170SAPE  H16S19248   1.761   4.810   7.983 -1.8374 -1.2751  0.7340
  170SAPE  C21719249   1.797   4.619   8.079 -0.3251 -0.2475  0.6807
  170SAPE  H17R19250   1.859   4.656   8.164 -0.3872 -2.3637  1.7201
  170SAPE  H17S19251   1.821   4.511   8.070 -1.2348 -0.7456  3.2304
  170SAPE  C21819252   1.657   4.622   8.145  0.0082  0.8770 -0.4620
  170SAPE  H18R19253   1.586   4.610   8.061 -1.4915  0.7860  0.7624
  170SAPE  H18S19254   1.646   4.721   8.194  0.7208  0.0793  1.3983
  170SAPE  C21919255   1.643   4.501   8.243  0.3874 -0.5985  0.0470
  170SAPE  H19R19256   1.735   4.499   8.306  0.0027  0.3821  0.6499
  170SAPE  H19S19257   1.625   4.405   8.190 -1.3684 -1.7451  2.5514
  170SAPE  C22019258   1.534   4.520   8.347 -0.1793 -0.0958 -0.0256
  170SAPE  H20R19259   1.566   4.590   8.427 -0.8632 -0.2018  0.3497
  170SAPE  H20S19260   1.507   4.422   8.393  0.8506  0.0530  0.9466
  170SAPE  H20T19261   1.443   4.559   8.298 -1.7041 -0.7784  2.1146
  170SAPE   C3319262   2.161   4.478   7.130 -0.0646 -0.4376  0.7904
  170SAPE   H3X19263   2.097   4.465   7.220 -0.9805 -0.8982  0.0933
  170SAPE   H3Y19264   2.192   4.585   7.124  0.2233 -0.5819 -1.4851
  170SAPE   C3419265   2.285   4.397   7.164  0.2953  0.0455 -0.8957
  170SAPE   H4X19266   2.355   4.393   7.078  0.3346 -1.0287 -0.8247
  170SAPE   H4Y19267   2.262   4.294   7.199  1.9099  0.2843  1.0600
  170SAPE   C3519268   2.353   4.469   7.281  0.0127 -0.5993 -0.4698
  170SAPE   H5X19269   2.379   4.575   7.261 -1.5161  0.2717  1.7429
  170SAPE   H5Y19270   2.452   4.421   7.286  0.5655  0.4951 -0.5337
  170SAPE   C3619271   2.293   4.455   7.418 -1.0114 -0.3944  0.2706
  170SAPE   H6X19272   2.309   4.349   7.445 -1.0947 -0.7807 -1.1382
  170SAPE   H6Y19273   2.182   4.459   7.410 -1.1398 -0.1718  1.8101
  170SAPE   C3719274   2.347   4.546   7.524 -0.0440 -0.5902 -0.1825
  170SAPE   H7X19275   2.323   4.651   7.496 -1.8127 -0.7204  0.7251
  170SAPE   H7Y19276   2.458   4.549   7.523 -0.0581  0.7745 -0.9021
  170SAPE   C3819277   2.280   4.506   7.652  0.4481 -0.5343 -0.4326
  170SAPE   H8X19278   2.279   4.395   7.656 -1.4006 -0.5721  4.0379
  170SAPE   H8Y19279   2.173   4.530   7.634  0.1382 -1.7595 -0.3524
  170SAPE   C3919280   2.342   4.542   7.787 -0.0409 -0.3447 -0.8847
  170SAPE   H9X19281   2.364   4.650   7.794 -0.7096 -0.3141  1.9952
  170SAPE   H9Y19282   2.441   4.501   7.817 -0.3296  0.2041  0.9585
  170SAPE  C31019283   2.242   4.517   7.897 -0.4822  0.2641 -0.6578
  170SAPE  H10X19284   2.244   4.406   7.901  0.6032  0.2920 -0.1058
  170SAPE  H10Y19285   2.143   4.566   7.885 -0.7833 -0.0507  0.4063
  170SAPE  C31119286   2.300   4.576   8.030  0.1683  0.1624 -0.4113
  170SAPE  H11X19287   2.277   4.685   8.033 -1.2103 -0.0564 -2.0733
  170SAPE  H11Y19288   2.411   4.569   8.030  0.2411  1.0911 -0.0106
  170SAPE  C31219289   2.235   4.512   8.150 -0.0004  0.3877 -0.2524
  170SAPE  H12X19290   2.305   4.437   8.192 -0.2267 -0.2963 -1.0810
  170SAPE  H12Y19291   2.144   4.465   8.106  0.1388  0.6560 -0.8226
  170SAPE  C31319292   2.199   4.622   8.253 -0.2586  0.7058  0.6434
  170SAPE  H13X19293   2.142   4.695   8.191  0.0349  0.6665  0.3217
  170SAPE  H13Y19294   2.288   4.673   8.296  0.2097  0.2753  0.1952
  170SAPE  C31419295   2.122   4.566   8.369  0.5330  0.6074  0.6387
  170SAPE  H14X19296   2.178   4.486   8.423 -1.1530 -2.1870 -1.4656
  170SAPE  H14Y19297   2.033   4.517   8.325  1.1186 -0.4221  0.5694
  170SAPE  C31519298   2.086   4.681   8.462 -0.6247 -0.1297 -0.3465
  170SAPE  H15X19299   2.046   4.768   8.405 -2.8939  0.7221  2.3474
  170SAPE  H15Y19300   2.182   4.712   8.509 -0.4643 -1.8312  0.5251
  170SAPE  C31619301   1.988   4.649   8.575  0.1163  0.1036 -0.2054
  170SAPE  H16X19302   1.896   4.616   8.521 -0.5358  1.6482 -0.0686
  170SAPE  H16Y19303   1.971   4.740   8.635  0.9344  0.1032  0.0348
  170SAPE  C31719304   2.040   4.544   8.670  0.5345 -0.7196  0.0945
  170SAPE  H17X19305   2.036   4.448   8.614  1.8987  0.3333 -1.9325
  170SAPE  H17Y19306   1.962   4.544   8.749 -0.0969  1.7702 -0.4507
  170SAPE  C31819307   2.185   4.565   8.719 -0.5360 -0.2013 -0.3792
  170SAPE  H18X19308   2.200   4.662   8.772 -0.1774  0.3244 -1.3906
  170SAPE  H18Y19309   2.259   4.560   8.636 -0.0806 -2.2406  0.0925
  170SAPE  H18Z19310   2.223   4.483   8.782 -0.4069  1.5880  2.0134
  171SAPE     N19311   1.801   6.682   6.511  0.0334  0.6889 -0.2586
  171SAPE   HN119312   1.700   6.691   6.485 -0.1121 -1.2308 -0.5470
  171SAPE   HN219313   1.817   6.749   6.588  3.6183 -0.7133  0.3967
  171SAPE   HN319314   1.865   6.727   6.443 -0.0244  0.3172 -0.5664
  171SAPE   C1219315   1.851   6.545   6.548  0.0597  0.2518  0.0291
  171SAPE  H12A19316   1.835   6.474   6.463 -0.6469 -0.5097  0.7791
  171SAPE  H12B19317   1.796   6.498   6.631  0.2620 -4.1916 -2.0453
  171SAPE   C1119318   1.995   6.556   6.591 -0.4107  0.5484  0.0975
  171SAPE  H11A19319   2.042   6.459   6.618 -2.5563 -0.6099 -0.1429
  171SAPE  H11B19320   2.009   6.621   6.680  2.5943 -0.3867  0.4388
  171SAPE     P19321   2.184   6.716   6.497 -0.3575 -0.1277  0.3082
  171SAPE   O1319322   2.305   6.681   6.421  0.3919  0.4587 -0.1438
  171SAPE   O1419323   2.124   6.844   6.464  0.2676 -0.0140 -0.0423
  171SAPE   O1219324   2.069   6.610   6.481  0.3151  0.1741  0.0152
  171SAPE   O1119325   2.225   6.714   6.651 -0.3746  0.2254  0.7780
  171SAPE    C119326   2.339   6.634   6.696  0.0595 -0.6694  0.4042
  171SAPE    HA19327   2.378   6.564   6.619  3.2770  0.0146  1.2810
  171SAPE    HB19328   2.420   6.708   6.708  0.0721 -0.7783  1.0647
  171SAPE    C219329   2.315   6.576   6.829  0.2230  0.2349 -0.6943
  171SAPE    HS19330   2.416   6.549   6.868  0.4320 -1.8402 -2.4417
  171SAPE   O2119331   2.228   6.464   6.814 -0.0404  0.4716 -0.1903
  171SAPE   C2119332   2.293   6.344   6.817  0.3609 -0.3215 -0.4236
  171SAPE   O2219333   2.415   6.333   6.809  0.0014 -0.5161 -0.0214
  171SAPE   C2219334   2.177   6.236   6.827 -0.2014  0.1241 -0.1585
  171SAPE   H2R19335   2.077   6.274   6.797 -0.7253 -1.3213 -0.3565
  171SAPE   H2S19336   2.205   6.156   6.756  0.2703 -0.1444  0.3241
  171SAPE    C319337   2.249   6.688   6.922  0.0240 -0.2924 -0.0430
  171SAPE    HX19338   2.142   6.686   6.893 -1.0919  0.7915  3.4837
  171SAPE    HY19339   2.282   6.792   6.898 -0.4055 -0.0480  0.3913
  171SAPE   O3119340   2.259   6.653   7.062  0.1335  0.0805  0.1277
  171SAPE   C3119341   2.199   6.727   7.152  0.5687  0.5338  0.5038
  171SAPE   O3219342   2.117   6.816   7.135  0.3834  0.4429  0.8522
  171SAPE   C3219343   2.228   6.660   7.287 -0.0554 -0.5690 -0.0862
  171SAPE   H2X19344   2.337   6.659   7.306  0.0919  0.8214 -0.7235
  171SAPE   H2Y19345   2.197   6.553   7.284 -1.4484 -0.1752 -1.2358
  171SAPE   C2319346   2.158   6.181   6.966 -0.4970 -0.3824 -0.3058
  171SAPE   H3R19347   2.160   6.262   7.042  2.0354 -1.7027  1.1631
  171SAPE   H3S19348   2.243   6.112   6.988 -1.2464 -1.1500  0.2421
  171SAPE   C2419349   2.030   6.097   6.983 -0.2324 -0.1248  0.1726
  171SAPE   H4R19350   1.951   6.163   6.940 -1.1991 -0.6169  1.1727
  171SAPE   H4S19351   2.031   6.072   7.091 -0.6313 -2.0938 -0.2419
  171SAPE   C2519352   2.026   5.973   6.893 -0.1684 -0.7356  0.4007
  171SAPE   H5R19353   2.069   5.983   6.792 -0.5210  1.3732  0.4266
  171SAPE   C2619354   1.980   5.847   6.924  0.4278 -0.0364 -0.3080
  171SAPE   H6R19355   1.986   5.767   6.848 -0.9704  1.0985 -1.6940
  171SAPE   C2719356   1.927   5.793   7.053 -0.1138 -0.5652  0.1811
  171SAPE   H7R19357   1.846   5.718   7.041  1.8057 -2.6983 -0.2243
  171SAPE   H7S19358   1.888   5.885   7.101  0.4657  0.6524 -1.5629
  171SAPE   C2819359   2.011   5.720   7.149  1.0868  0.0650 -0.2406
  171SAPE   H8R19360   2.118   5.740   7.131  0.6703  2.1239 -0.6482
  171SAPE   C2919361   1.982   5.648   7.266 -0.9564 -0.3737  0.6033
  171SAPE   H9R19362   2.069   5.604   7.318 -0.8560  0.8128  1.4768
  171SAPE  C21019363   1.858   5.603   7.339 -0.8089 -0.3553  0.5365
  171SAPE  H10R19364   1.872   5.618   7.448  0.0356  2.1365  0.1608
  171SAPE  H10S19365   1.851   5.493   7.324 -1.0601 -0.1498 -1.0100
  171SAPE  C21119366   1.726   5.652   7.285  0.6450 -0.6053 -0.8290
  171SAPE  H11R19367   1.712   5.644   7.176  0.5418 -1.2817 -0.7733
  171SAPE  C21219368   1.618   5.662   7.367  0.1605  0.2569 -0.3395
  171SAPE  H12R19369   1.524   5.694   7.321 -0.6150 -0.8076  0.4599
  171SAPE  C21319370   1.611   5.641   7.519 -0.3450 -0.9419  0.0293
  171SAPE  H13R19371   1.717   5.637   7.552 -0.7378  0.7677  1.6770
  171SAPE  H13S19372   1.565   5.543   7.543 -0.1049 -1.7593 -2.6039
  171SAPE  C21419373   1.528   5.727   7.609 -0.8477 -0.1335  0.2261
  171SAPE  H14R19374   1.449   5.785   7.559 -2.3175 -3.5881 -1.8252
  171SAPE  C21519375   1.555   5.742   7.739 -0.3595 -0.3865 -0.3195
  171SAPE  H15R19376   1.475   5.801   7.789 -0.2279 -0.4862  0.0116
  171SAPE  C21619377   1.657   5.673   7.822 -0.0254  1.0561 -0.3220
  171SAPE  H16R19378   1.692   5.743   7.902  1.0903 -0.8529  0.9435
  171SAPE  H16S19379   1.744   5.648   7.757  2.1371 -0.5809  2.9075
  171SAPE  C21719380   1.587   5.545   7.877  0.3789 -0.1761  0.5088
  171SAPE  H17R19381   1.659   5.473   7.921  1.0643  0.6195  0.7237
  171SAPE  H17S19382   1.539   5.490   7.793 -1.1041  1.3173  0.3326
  171SAPE  C21819383   1.480   5.572   7.987  0.0493  0.0494 -0.6350
  171SAPE  H18R19384   1.446   5.475   8.029 -1.1318  0.2861 -1.0131
  171SAPE  H18S19385   1.396   5.620   7.933 -0.6804  1.1565  1.3924
  171SAPE  C21919386   1.532   5.652   8.106  0.2345 -0.8862 -1.2102
  171SAPE  H19R19387   1.572   5.750   8.072  1.2980 -0.6862  0.4527
  171SAPE  H19S19388   1.608   5.593   8.161  0.0037 -0.1604 -0.0774
  171SAPE  C22019389   1.420   5.671   8.211  0.4832  0.4148 -0.2661
  171SAPE  H20R19390   1.360   5.579   8.230  0.5644  0.1431 -1.3005
  171SAPE  H20S19391   1.347   5.743   8.170  1.7292  1.0257 -1.4993
  171SAPE  H20T19392   1.456   5.705   8.311  0.6904  0.4897 -0.3654
  171SAPE   C3319393   2.154   6.724   7.402  0.8283  0.1455 -0.6974
  171SAPE   H3X19394   2.050   6.685   7.391  1.8613 -2.5511 -1.9786
  171SAPE   H3Y19395   2.146   6.833   7.384  2.1835  0.1231 -1.6159
  171SAPE   C3419396   2.206   6.679   7.539 -0.2744  0.2465 -0.0062
  171SAPE   H4X19397   2.315   6.699   7.550  0.1428 -1.5527 -0.4430
  171SAPE   H4Y19398   2.198   6.573   7.573 -0.5376  0.1744 -0.2905
  171SAPE   C3519399   2.143   6.759   7.654 -0.2775 -0.4114  0.1350
  171SAPE   H5X19400   2.041   6.791   7.622 -0.9552 -0.6463  1.9658
  171SAPE   H5Y19401   2.204   6.851   7.662 -0.6325 -0.2897  1.8269
  171SAPE   C3619402   2.145   6.700   7.798 -0.4266  0.1113  0.2047
  171SAPE   H6X19403   2.123   6.593   7.775 -0.3835 -0.1506  1.3204
  171SAPE   H6Y19404   2.059   6.741   7.856 -2.2946 -1.7096 -1.1105
  171SAPE   C3719405   2.283   6.704   7.868  0.1455  0.0684 -0.2448
  171SAPE   H7X19406   2.366   6.688   7.795  0.1445  1.9267 -0.6944
  171SAPE   H7Y19407   2.289   6.621   7.942 -0.8220  0.0786 -0.1428
  171SAPE   C3819408   2.329   6.835   7.929  0.0903 -0.5223 -0.6408
  171SAPE   H8X19409   2.330   6.915   7.851  1.0943  1.1537  1.0136
  171SAPE   H8Y19410   2.433   6.824   7.967 -0.0316 -1.4573 -0.5747
  171SAPE   C3919411   2.230   6.884   8.033 -0.0676  0.1345 -0.2180
  171SAPE   H9X19412   2.209   6.817   8.118 -4.3811  2.5024  0.8497
  171SAPE   H9Y19413   2.130   6.891   7.985  0.5069 -1.9264 -1.8795
  171SAPE  C31019414   2.265   7.027   8.086  0.4397 -0.7908  0.2744
  171SAPE  H10X19415   2.182   7.058   8.153  0.2441  0.6232 -0.5919
  171SAPE  H10Y19416   2.263   7.104   8.006  3.2823  1.9412  2.5665
  171SAPE  C31119417   2.387   7.046   8.163 -0.6452  0.1174  0.1468
  171SAPE  H11X19418   2.392   7.157   8.174 -1.0240  0.5537 -3.0872
  171SAPE  H11Y19419   2.478   7.009   8.112 -0.7027 -0.9599  0.8039
  171SAPE  C31219420   2.388   6.993   8.307 -0.0435 -0.5676  0.3334
  171SAPE  H12X19421   2.406   6.883   8.301  0.0158 -0.6261  1.2994
  171SAPE  H12Y19422   2.286   7.015   8.345 -0.2196  0.7446 -0.8376
  171SAPE  C31319423   2.495   7.049   8.398 -0.1286 -1.3125 -0.5106
  171SAPE  H13X19424   2.487   7.160   8.396 -1.5105 -1.3809  0.1492
  171SAPE  H13Y19425   2.579   7.019   8.332  0.6971  1.0360 -0.6098
  171SAPE  C31419426   2.492   6.998   8.541 -0.4746  0.5170 -0.2027
  171SAPE  H14X19427   2.584   7.041   8.588  0.8322 -2.8626  0.6143
  171SAPE  H14Y19428   2.511   6.889   8.539 -2.6430  0.1014 -1.0976
  171SAPE  C31519429   2.369   7.029   8.625  0.7356 -0.2109 -0.1866
  171SAPE  H15X19430   2.281   6.970   8.592  0.8996 -1.4807  1.5313
  171SAPE  H15Y19431   2.336   7.134   8.607  0.8848 -0.2990 -1.0265
  171SAPE  C31619432   2.378   7.014   8.776  0.2756 -0.2324  0.3363
  171SAPE  H16X19433   2.430   7.106   8.811  0.1153 -0.8236  2.2143
  171SAPE  H16Y19434   2.452   6.932   8.791 -0.6570 -1.4368 -1.3662
  171SAPE  C31719435   2.251   6.991   8.855  0.2171  0.0638 -0.8191
  171SAPE  H17X19436   2.200   6.893   8.847 -0.0043  0.0876  0.1858
  171SAPE  H17Y19437   2.184   7.079   8.841  0.1352  0.1248 -0.0419
  171SAPE  C31819438   2.291   7.010   9.001  0.1275 -0.1080  0.1142
  171SAPE  H18X19439   2.346   7.102   9.030  0.8964 -0.0484 -1.4204
  171SAPE  H18Y19440   2.352   6.923   9.033  0.3099  0.1416  0.4494
  171SAPE  H18Z19441   2.202   7.008   9.068 -0.0289  1.2007 -0.0352
  172SAPE     N19442   1.754   5.568   6.139  0.1656  0.3474  0.2992
  172SAPE   HN119443   1.685   5.494   6.117  0.9780 -0.3629  0.1259
  172SAPE   HN219444   1.706   5.611   6.222 -0.9399 -0.4151  0.0807
  172SAPE   HN319445   1.766   5.637   6.063  0.1645 -2.1570 -2.1084
  172SAPE   C1219446   1.896   5.523   6.176 -0.2422  0.1507  1.0380
  172SAPE  H12A19447   1.952   5.606   6.224  2.4979  0.0352 -1.7260
  172SAPE  H12B19448   1.943   5.505   6.078 -3.1429 -0.1007 -0.4217
  172SAPE   C1119449   1.898   5.399   6.269 -0.2085 -0.0310 -0.8491
  172SAPE  H11A19450   1.996   5.391   6.320 -0.4914 -2.2924 -0.5380
  172SAPE  H11B19451   1.889   5.312   6.200 -0.3608 -0.2570 -0.5467
  172SAPE     P19452   1.803   5.316   6.494  0.4343  0.1196 -0.3944
  172SAPE   O1319453   1.670   5.306   6.559  0.1134  0.1317 -0.4769
  172SAPE   O1419454   1.880   5.191   6.468 -0.3921  0.6168  0.4774
  172SAPE   O1219455   1.789   5.403   6.359  0.2455  0.7698  0.0457
  172SAPE   O1119456   1.889   5.411   6.585 -0.2002 -0.3988  0.7229
  172SAPE    C119457   1.855   5.537   6.629  0.2453 -0.2635 -0.3902
  172SAPE    HA19458   1.949   5.594   6.614  0.7863 -1.8215 -4.0057
  172SAPE    HB19459   1.788   5.599   6.566 -1.2138 -0.0222  1.3459
  172SAPE    C219460   1.808   5.536   6.779 -0.0685 -0.3974  1.3632
  172SAPE    HS19461   1.836   5.636   6.819  0.0974 -0.2012  0.7671
  172SAPE   O2119462   1.866   5.420   6.853 -0.3961  0.2823  0.4360
  172SAPE   C2119463   1.994   5.437   6.877 -0.0039  1.1154 -0.7557
  172SAPE   O2219464   2.064   5.530   6.838 -0.0425 -0.6443 -0.2235
  172SAPE   C2219465   2.049   5.323   6.973 -1.0838  0.0356  0.2682
  172SAPE   H2R19466   1.976   5.257   7.023  0.1346 -0.5063  1.4099
  172SAPE   H2S19467   2.107   5.268   6.896  0.7980  3.1684 -0.7796
  172SAPE    C319468   1.653   5.528   6.781  0.2884 -0.2503 -0.7043
  172SAPE    HX19469   1.629   5.420   6.770  0.0646 -0.2150 -0.5548
  172SAPE    HY19470   1.614   5.584   6.694 -1.3529  0.6921  0.5814
  172SAPE   O3119471   1.588   5.584   6.904  0.1363  0.5017  0.2767
  172SAPE   C3119472   1.461   5.550   6.923  0.1169 -0.2668 -0.0987
  172SAPE   O3219473   1.393   5.484   6.849  0.8238  0.1193 -0.2972
  172SAPE   C3219474   1.428   5.579   7.068  0.4253  0.1662 -0.4454
  172SAPE   H2X19475   1.374   5.676   7.061  0.4037  0.0489 -2.1376
  172SAPE   H2Y19476   1.521   5.575   7.129 -0.9087  2.7398  2.0059
  172SAPE   C2319477   2.163   5.371   7.069  0.2673  0.0008 -0.0788
  172SAPE   H3R19478   2.113   5.428   7.151 -2.2759 -2.3476  0.1550
  172SAPE   H3S19479   2.229   5.444   7.017  0.9600 -1.3500 -1.1716
  172SAPE   C2419480   2.241   5.249   7.128  0.3971 -0.4458  0.2755
  172SAPE   H4R19481   2.322   5.228   7.055 -1.3593 -2.9581 -1.1354
  172SAPE   H4S19482   2.188   5.152   7.140 -0.6741  0.0720 -0.1241
  172SAPE   C2519483   2.298   5.283   7.262 -0.1310  0.4185 -0.1673
  172SAPE   H5R19484   2.402   5.318   7.262 -0.6829  2.2096  1.1767
  172SAPE   C2619485   2.234   5.274   7.386  0.8932  0.6192  0.1266
  172SAPE   H6R19486   2.286   5.331   7.465 -0.0282  1.0648  0.4252
  172SAPE   C2719487   2.090   5.221   7.416 -0.3949  0.1124 -1.0291
  172SAPE   H7R19488   2.063   5.156   7.330  3.5799 -1.4692 -1.2883
  172SAPE   H7S19489   2.024   5.310   7.410 -0.0911  0.2819 -2.1768
  172SAPE   C2819490   2.077   5.145   7.548  0.3675 -0.0128  0.5675
  172SAPE   H8R19491   2.100   5.037   7.549 -2.5623 -0.7281  2.0984
  172SAPE   C2919492   2.036   5.192   7.663 -0.1729  0.7014 -0.0246
  172SAPE   H9R19493   2.012   5.119   7.742 -1.9770 -0.4544 -1.5579
  172SAPE  C21019494   1.998   5.339   7.696 -0.3137  0.2522  0.3205
  172SAPE  H10R19495   1.920   5.346   7.775 -2.8901  1.3948 -2.1646
  172SAPE  H10S19496   1.952   5.392   7.610 -0.2609  1.4291  0.9904
  172SAPE  C21119497   2.125   5.415   7.742 -0.3415  0.3719 -0.3757
  172SAPE  H11R19498   2.198   5.434   7.662 -1.5507 -1.1869 -1.9288
  172SAPE  C21219499   2.159   5.462   7.867  0.6734  0.4709 -0.3919
  172SAPE  H12R19500   2.256   5.511   7.881  1.9744 -2.1153  0.2623
  172SAPE  C21319501   2.068   5.449   7.992 -0.4248  0.0732 -0.3542
  172SAPE  H13R19502   2.141   5.465   8.074 -2.1000  0.8062  1.0636
  172SAPE  H13S19503   2.034   5.343   7.996  0.6841 -0.2615  1.5656
  172SAPE  C21419504   1.952   5.543   8.009  0.5576  0.0872 -0.7555
  172SAPE  H14R19505   1.893   5.569   7.920 -0.0154  1.9146  0.1015
  172SAPE  C21519506   1.906   5.602   8.117  0.8317 -0.3073  0.0614
  172SAPE  H15R19507   1.809   5.654   8.113 -0.8490 -3.2209 -1.0598
  172SAPE  C21619508   1.967   5.597   8.258 -0.2419 -0.7478  1.0148
  172SAPE  H16R19509   2.072   5.632   8.247 -1.1425  1.3116 -3.6025
  172SAPE  H16S19510   1.982   5.492   8.289  2.9077 -0.8262 -0.4076
  172SAPE  C21719511   1.891   5.665   8.364  0.1140 -0.8021  0.6612
  172SAPE  H17R19512   1.852   5.766   8.339 -1.7900 -1.6122  0.2367
  172SAPE  H17S19513   1.967   5.676   8.444  0.3972 -0.1328  0.3106
  172SAPE  C21819514   1.786   5.567   8.425  0.3299 -0.4361  0.6454
  172SAPE  H18R19515   1.839   5.477   8.464  2.6155  0.2036 -0.7743
  172SAPE  H18S19516   1.712   5.540   8.347 -0.6140 -0.8993  1.6671
  172SAPE  C21919517   1.694   5.636   8.522  0.7004 -0.3805 -0.0377
  172SAPE  H19R19518   1.644   5.723   8.475  2.8482 -0.0043 -1.8020
  172SAPE  H19S19519   1.764   5.674   8.600  2.9284 -3.6382 -0.2637
  172SAPE  C22019520   1.603   5.525   8.582  0.3222 -0.9634 -0.3922
  172SAPE  H20R19521   1.558   5.466   8.499 -0.3410  0.3421 -0.9918
  172SAPE  H20S19522   1.512   5.565   8.629 -0.8257 -2.4595 -1.2440
  172SAPE  H20T19523   1.659   5.457   8.651  0.8031  0.9498  1.1817
  172SAPE   C3319524   1.328   5.478   7.128 -1.1529 -0.0728  0.7939
  172SAPE   H3X19525   1.365   5.373   7.118 -0.6205  0.2388 -0.6495
  172SAPE   H3Y19526   1.231   5.484   7.073 -0.4359  0.4656 -0.4376
  172SAPE   C3419527   1.293   5.500   7.275  0.3753 -0.0622 -0.1628
  172SAPE   H4X19528   1.281   5.610   7.287  0.9604 -0.2498  2.8704
  172SAPE   H4Y19529   1.377   5.480   7.344 -0.0833  1.8436  1.0154
  172SAPE   C3519530   1.164   5.431   7.315  0.4560  0.0687 -0.3738
  172SAPE   H5X19531   1.199   5.325   7.315  1.5099  0.3948  0.7033
  172SAPE   H5Y19532   1.084   5.445   7.239 -1.7740  1.4993  2.0814
  172SAPE   C3619533   1.114   5.459   7.453  0.5238 -0.4670 -0.3638
  172SAPE   H6X19534   1.095   5.568   7.462  2.4699 -0.0306 -0.9955
  172SAPE   H6Y19535   1.192   5.433   7.528  0.4554 -1.0163 -0.4780
  172SAPE   C3719536   0.983   5.378   7.491 -0.0218  0.0567  0.0872
  172SAPE   H7X19537   1.002   5.269   7.491 -1.8286 -0.3205  1.7817
  172SAPE   H7Y19538   0.898   5.393   7.420 -2.6917 -0.0449  3.0344
  172SAPE   C3819539   0.921   5.405   7.629 -0.5229  0.7435 -0.1200
  172SAPE   H8X19540   0.833   5.337   7.629 -0.6848  0.9525 -0.1077
  172SAPE   H8Y19541   0.886   5.508   7.651  2.6400  1.8387  0.2839
  172SAPE   C3919542   1.025   5.373   7.740  0.1898 -0.4515  0.3106
  172SAPE   H9X19543   1.104   5.450   7.752  0.6625 -0.2524 -3.1028
  172SAPE   H9Y19544   1.085   5.282   7.721 -0.1355 -0.4021 -1.0639
  172SAPE  C31019545   0.972   5.367   7.882 -0.3440 -0.1641  0.1247
  172SAPE  H10X19546   0.893   5.289   7.884 -2.1021  1.5542  1.2539
  172SAPE  H10Y19547   0.919   5.461   7.909  1.0682  1.0426 -1.0719
  172SAPE  C31119548   1.089   5.353   7.983 -0.5062 -0.0505 -0.0451
  172SAPE  H11X19549   1.150   5.444   7.970  0.2650 -0.3660  1.1790
  172SAPE  H11Y19550   1.147   5.262   7.957 -2.5529 -1.2151 -0.8601
  172SAPE  C31219551   1.032   5.341   8.121  0.1515  0.6921 -0.0607
  172SAPE  H12X19552   0.985   5.240   8.115  1.9330 -0.2567  1.0730
  172SAPE  H12Y19553   0.956   5.422   8.131  1.3298  1.8885 -0.5241
  172SAPE  C31319554   1.133   5.366   8.235  0.8566 -0.1940  0.4846
  172SAPE  H13X19555   1.189   5.459   8.214  1.0257 -0.4750 -0.3297
  172SAPE  H13Y19556   1.207   5.283   8.241 -0.4081 -1.2567  2.6974
  172SAPE  C31419557   1.052   5.378   8.365 -0.1735  0.8640 -0.1398
  172SAPE  H14X19558   0.987   5.288   8.376  1.2286  0.0368  2.0240
  172SAPE  H14Y19559   0.977   5.460   8.362 -1.1827  0.1185  2.2049
  172SAPE  C31519560   1.140   5.391   8.490  0.1425 -0.4958  0.0308
  172SAPE  H15X19561   1.217   5.470   8.476 -1.8113  1.3279 -0.9783
  172SAPE  H15Y19562   1.191   5.293   8.504  1.4827  0.1847  0.0617
  172SAPE  C31619563   1.055   5.433   8.612 -0.2671  0.1059  0.1551
  172SAPE  H16X19564   0.996   5.341   8.633 -1.6506  0.9518  0.1080
  172SAPE  H16Y19565   0.978   5.499   8.568  1.3227  1.5012 -0.6198
  172SAPE  C31719566   1.130   5.489   8.727 -0.3268 -0.4862  0.0638
  172SAPE  H17X19567   1.058   5.483   8.811  0.7013 -1.6136  0.8952
  172SAPE  H17Y19568   1.148   5.596   8.705 -1.0472 -0.3435  0.1457
  172SAPE  C31819569   1.247   5.393   8.774 -0.2481 -0.5045 -0.1207
  172SAPE  H18X19570   1.221   5.285   8.768 -0.7655 -0.4287  0.6274
  172SAPE  H18Y19571   1.277   5.416   8.878 -1.3096 -0.1662  0.1167
  172SAPE  H18Z19572   1.330   5.425   8.706 -2.2688  1.0333 -2.0107
  173SOPE     N19573   4.076   1.971  11.009 -0.1711  0.3310 -0.1040
  173SOPE   HN119574   4.127   1.947  11.096 -0.1317  0.3345 -0.1264
  173SOPE   HN219575   4.126   2.028  10.939 -0.4871 -1.7564 -2.1648
  173SOPE   HN319576   3.997   2.030  11.040  0.8174  0.3669  2.6083
  173SOPE   C1219577   4.024   1.846  10.944 -0.2047 -0.8000 -0.2548
  173SOPE  H12A19578   3.951   1.803  11.015 -0.1107  2.0241  1.7210
  173SOPE  H12B19579   4.114   1.781  10.938 -0.7467 -1.6209  0.3815
  173SOPE   C1119580   3.969   1.870  10.802  0.4621  0.9508  0.4753
  173SOPE  H11A19581   3.948   1.767  10.768  1.5718  1.0464 -0.5413
  173SOPE  H11B19582   4.048   1.906  10.733  0.8695 -1.8814 -0.6576
  173SOPE     P19583   3.769   1.964  10.670  0.0360  0.1687  0.1483
  173SOPE   O1319584   3.773   2.107  10.636  0.1880 -0.3411  0.4232
  173SOPE   O1419585   3.637   1.904  10.694  0.0756  0.2306 -0.1296
  173SOPE   O1219586   3.854   1.947  10.805  0.1397  0.1243  0.3478
  173SOPE   O1119587   3.853   1.879  10.561  0.0520  0.2811 -0.3777
  173SOPE    C119588   3.925   1.946  10.463 -0.5377  0.1913 -0.2783
  173SOPE    HA19589   3.986   1.877  10.401  1.8952  0.4746  1.6122
  173SOPE    HB19590   3.995   2.018  10.511 -3.9071  2.9477  0.9486
  173SOPE    C219591   3.831   2.007  10.358 -0.0684 -0.2768  0.4018
  173SOPE    HS19592   3.752   2.061  10.414 -0.9848 -1.3745  0.2094
  173SOPE   O2119593   3.780   1.894  10.292 -0.7393  0.3857  0.9565
  173SOPE   C2119594   3.670   1.921  10.222 -0.0388  0.0018 -0.2178
  173SOPE   O2219595   3.608   2.028  10.226  0.4274  0.3642  0.4750
  173SOPE   C2219596   3.616   1.801  10.158  0.2773  1.0460  0.3350
  173SOPE   H2R19597   3.571   1.737  10.237  1.3941  1.0059  0.9685
  173SOPE   H2S19598   3.696   1.735  10.118 -1.6994 -0.9118 -0.6184
  173SOPE    C319599   3.904   2.113  10.265  0.3673 -0.3413  0.8605
  173SOPE    HX19600   3.975   2.051  10.207 -0.3456  0.1195 -0.5747
  173SOPE    HY19601   3.968   2.172  10.333  1.0811 -0.1653  0.0465
  173SOPE   O3119602   3.812   2.192  10.180 -0.7347  0.4394  0.2711
  173SOPE   C3119603   3.780   2.308  10.232  0.5597 -0.1634 -0.7160
  173SOPE   O3219604   3.831   2.354  10.334  0.6916  0.4585 -0.4325
  173SOPE   C3219605   3.648   2.365  10.169 -0.1609  0.0645  0.5330
  173SOPE   H2X19606   3.569   2.358  10.246  0.3891 -0.7882  1.0422
  173SOPE   H2Y19607   3.612   2.301  10.085 -0.8362 -0.4603  1.2040
  173SOPE   C2319608   3.514   1.822  10.052 -0.5522  0.6550  0.3570
  173SOPE   H3R19609   3.427   1.887  10.078 -0.7180  1.0419 -1.0606
  173SOPE   H3S19610   3.482   1.720  10.023  4.5033 -0.6362 -1.7863
  173SOPE   C2419611   3.569   1.877   9.917 -0.3356 -0.1631  0.7133
  173SOPE   H4R19612   3.599   1.984   9.920  0.2741 -0.1927 -2.0402
  173SOPE   H4S19613   3.662   1.827   9.883 -1.0601 -0.9048 -0.2254
  173SOPE   C2519614   3.470   1.844   9.808 -0.6415 -0.2052  0.5525
  173SOPE   H5R19615   3.432   1.740   9.821  3.4905 -1.8249  1.4482
  173SOPE   H5S19616   3.384   1.914   9.809 -0.4205  0.0835 -0.2309
  173SOPE   C2619617   3.532   1.869   9.669  0.3979 -0.0151  0.1168
  173SOPE   H6R19618   3.599   1.956   9.684 -1.1085  1.1112  0.5138
  173SOPE   H6S19619   3.602   1.787   9.644  1.6518  0.6539  1.3192
  173SOPE   C2719620   3.424   1.893   9.564  0.2709 -0.6068  0.1052
  173SOPE   H7R19621   3.377   1.794   9.543 -1.7593  0.0007  1.4488
  173SOPE   H7S19622   3.343   1.957   9.605 -0.8946 -3.0315  1.8708
  173SOPE   C2819623   3.492   1.934   9.434 -0.6513 -0.0469  0.6052
  173SOPE   H8R19624   3.578   1.865   9.418 -1.2289 -0.8061  0.6840
  173SOPE   H8S19625   3.426   1.902   9.351  2.7671 -1.1395 -1.8916
  173SOPE   C2919626   3.538   2.077   9.442  0.8435 -0.2683  0.9128
  173SOPE   H9119627   3.457   2.151   9.432  0.0702 -1.3855 -2.4241
  173SOPE  C21019628   3.669   2.115   9.440  0.4426  0.6746 -0.3070
  173SOPE  H10119629   3.682   2.223   9.456 -0.3638  0.6643  0.5096
  173SOPE  C21119630   3.799   2.031   9.428 -0.5659 -0.0014  0.6177
  173SOPE  H11R19631   3.796   1.937   9.487 -1.2348 -0.0198  0.5561
  173SOPE  H11S19632   3.885   2.095   9.456  0.0523 -0.3836 -0.3508
  173SOPE  C21219633   3.846   1.988   9.285 -0.5716  1.3805  0.0055
  173SOPE  H12R19634   3.941   1.932   9.302 -1.0283  1.0534  1.6353
  173SOPE  H12S19635   3.878   2.073   9.220 -0.2674 -0.0077 -1.7358
  173SOPE  C21319636   3.745   1.906   9.204 -0.3509 -0.7749 -0.4318
  173SOPE  H13R19637   3.658   1.973   9.184  0.2038 -0.4373 -1.8389
  173SOPE  H13S19638   3.708   1.812   9.250  0.8812 -1.3125 -0.4955
  173SOPE  C21419639   3.789   1.880   9.058  0.0188 -0.6250 -0.3847
  173SOPE  H14R19640   3.829   1.970   9.006  1.1358 -0.5348  0.5700
  173SOPE  H14S19641   3.703   1.846   8.997  0.4528 -0.9842 -0.8005
  173SOPE  C21519642   3.906   1.779   9.058  0.0224  0.6285  0.6203
  173SOPE  H15R19643   3.870   1.688   9.113 -1.3532  0.2216 -0.8710
  173SOPE  H15S19644   4.000   1.818   9.101  1.2382  0.1950 -1.5063
  173SOPE  C21619645   3.950   1.728   8.915 -0.2429 -0.2250 -0.3162
  173SOPE  H16R19646   3.869   1.661   8.880  1.1809 -2.0649 -0.2210
  173SOPE  H16S19647   4.029   1.649   8.914  0.6077  0.5808  0.6145
  173SOPE  C21719648   3.983   1.830   8.806  0.2951  0.5605  0.1341
  173SOPE  H17R19649   4.072   1.892   8.831 -0.6506  1.8073  0.5276
  173SOPE  H17S19650   3.897   1.899   8.796 -0.5610 -0.5851 -0.6556
  173SOPE  C21819651   4.025   1.756   8.677  0.1790 -0.3752 -1.0325
  173SOPE  H18R19652   4.040   1.835   8.600 -0.7830 -0.3344 -1.1877
  173SOPE  H18S19653   3.936   1.701   8.638 -1.7463  0.2707  2.1623
  173SOPE  H18T19654   4.126   1.710   8.668  0.7365  0.4547  0.5920
  173SOPE   C3319655   3.660   2.516  10.139  0.2968 -1.3282 -0.3976
  173SOPE   H3X19656   3.694   2.560  10.236 -0.4314 -0.6692 -0.4354
  173SOPE   H3Y19657   3.562   2.561  10.112  1.3112  2.5792  1.6043
  173SOPE   C3419658   3.755   2.549  10.022  0.5269 -0.2510  0.6042
  173SOPE   H4X19659   3.743   2.477   9.939 -0.5401  1.6553 -0.9656
  173SOPE   H4Y19660   3.863   2.540  10.048  0.5197  0.6705  1.0122
  173SOPE   C3519661   3.725   2.691   9.957  0.1638  1.0447 -0.0410
  173SOPE   H5X19662   3.718   2.773  10.031  0.0289  0.7080  0.3238
  173SOPE   H5Y19663   3.620   2.695   9.921 -0.2915 -1.2244  0.8531
  173SOPE   C3619664   3.820   2.728   9.835 -0.0499  0.8528 -0.4829
  173SOPE   H6X19665   3.915   2.670   9.842 -0.2446  0.3923 -1.5333
  173SOPE   H6Y19666   3.848   2.834   9.849 -1.9506  1.2441  0.7375
  173SOPE   C3719667   3.754   2.690   9.704 -0.6118 -0.2371  0.4463
  173SOPE   H7X19668   3.675   2.764   9.681  1.7250  2.3002 -0.0232
  173SOPE   H7Y19669   3.726   2.583   9.707 -0.6908 -0.2008  3.3993
  173SOPE   C3819670   3.857   2.713   9.587  0.4570  0.2276  0.3932
  173SOPE   H8X19671   3.928   2.629   9.605 -0.6915 -0.7100  0.6928
  173SOPE   H8Y19672   3.915   2.806   9.602  1.0023 -0.2996  1.7095
  173SOPE   C3919673   3.787   2.693   9.443 -0.1295  0.1469 -0.6710
  173SOPE   H9X19674   3.716   2.777   9.428 -1.1101 -0.3417  0.9976
  173SOPE   H9Y19675   3.717   2.609   9.458 -0.6084  0.5086 -0.8484
  173SOPE  C31019676   3.886   2.657   9.332  0.0111  0.3210  0.0749
  173SOPE  H10X19677   3.971   2.729   9.330 -0.0851  0.4299 -0.1689
  173SOPE  H10Y19678   3.847   2.664   9.228  3.1112 -0.1115 -1.2334
  173SOPE  C31119679   3.943   2.511   9.336  0.6931 -0.7013 -0.0243
  173SOPE  H11X19680   4.005   2.486   9.425  0.2426  1.7719  1.0652
  173SOPE  H11Y19681   4.017   2.515   9.253 -0.5608  1.6375 -1.1346
  173SOPE  C31219682   3.848   2.401   9.302  0.5717  0.1879 -0.6904
  173SOPE  H12X19683   3.749   2.418   9.351 -1.0966 -3.6834 -2.2881
  173SOPE  H12Y19684   3.893   2.307   9.339  0.0132  0.6924  1.4019
  173SOPE  C31319685   3.815   2.385   9.147 -0.4071  0.1424  0.0974
  173SOPE  H13X19686   3.811   2.275   9.131  0.7240  0.2323 -0.8904
  173SOPE  H13Y19687   3.900   2.421   9.087  0.3282 -0.4233  0.7789
  173SOPE  C31419688   3.686   2.457   9.093  0.5269  0.4868 -0.6639
  173SOPE  H14X19689   3.695   2.568   9.090 -0.0737  0.6316  1.4629
  173SOPE  H14Y19690   3.611   2.432   9.171  1.3219  2.3424  0.7841
  173SOPE  C31519691   3.635   2.405   8.952  0.5954 -0.3524  0.1961
  173SOPE  H15X19692   3.722   2.426   8.887  0.2471  1.6491  0.3118
  173SOPE  H15Y19693   3.553   2.469   8.913 -1.9374 -0.8394  4.1082
  173SOPE  C31619694   3.603   2.253   8.928 -0.6012 -0.2302 -0.3754
  173SOPE  H16X19695   3.669   2.186   8.988 -0.5231 -0.8696 -1.1558
  173SOPE  H16Y19696   3.625   2.239   8.820  1.9983  0.2325  0.0276
  173SOPE  C31719697   3.454   2.225   8.964 -0.3857  0.4776 -0.5724
  173SOPE  H17X19698   3.411   2.288   8.884 -1.3386  0.5638 -0.0183
  173SOPE  H17Y19699   3.427   2.262   9.066  0.4656  0.8088 -0.4654
  173SOPE  C31819700   3.410   2.077   8.943  0.1619 -0.2895  0.3118
  173SOPE  H18X19701   3.307   2.056   8.979  0.1259 -1.3425 -0.3837
  173SOPE  H18Y19702   3.477   2.006   8.995  0.0284 -0.2286  0.5681
  173SOPE  H18Z19703   3.413   2.032   8.842  0.8419 -0.3348  0.3509
  174SOPE     N19704   2.523   2.580  10.545 -0.5999  0.3762  0.2723
  174SOPE   HN119705   2.541   2.624  10.453 -1.3966  1.0189  0.4082
  174SOPE   HN219706   2.536   2.478  10.531 -2.2095 -0.1525  2.1228
  174SOPE   HN319707   2.427   2.602  10.578  0.3363  1.8214  2.3357
  174SOPE   C1219708   2.623   2.604  10.652 -0.4886  0.3359 -0.0242
  174SOPE  H12A19709   2.578   2.585  10.751 -0.6970  1.8878  0.2091
  174SOPE  H12B19710   2.644   2.713  10.641 -0.0224  0.0586 -2.4204
  174SOPE   C1119711   2.746   2.520  10.626  0.1470  0.0572  0.7208
  174SOPE  H11A19712   2.812   2.524  10.715  1.2215  1.6499 -0.1148
  174SOPE  H11B19713   2.805   2.571  10.546  1.1640  0.2927  1.6008
  174SOPE     P19714   2.837   2.293  10.543 -0.3076 -0.3630  0.3019
  174SOPE   O1319715   2.786   2.163  10.498 -0.5869  0.0208 -0.0939
  174SOPE   O1419716   2.936   2.301  10.644 -0.3764  0.1259 -0.1011
  174SOPE   O1219717   2.720   2.383  10.600  0.4716 -0.1794 -0.0371
  174SOPE   O1119718   2.894   2.375  10.425  0.1007 -0.2682 -0.2736
  174SOPE    C119719   2.816   2.403  10.309  0.6771 -0.5081 -0.4063
  174SOPE    HA19720   2.794   2.511  10.300  0.9807 -0.1766  2.2313
  174SOPE    HB19721   2.724   2.340  10.311  1.5064 -1.8850  3.5794
  174SOPE    C219722   2.904   2.373  10.186  0.6865  1.1920  0.0634
  174SOPE    HS19723   2.989   2.445  10.192 -0.2101  2.3690 -0.8889
  174SOPE   O2119724   2.819   2.384  10.071  0.0151  0.1204  0.0650
  174SOPE   C2119725   2.876   2.399   9.944 -0.7052 -0.7294 -0.3786
  174SOPE   O2219726   2.996   2.404   9.923 -0.5552  0.2352  0.3701
  174SOPE   C2219727   2.768   2.423   9.836 -0.0772 -0.0393 -0.6396
  174SOPE   H2R19728   2.669   2.447   9.879  0.2445 -0.2813  0.2759
  174SOPE   H2S19729   2.759   2.330   9.775  2.6858  0.2133 -1.5633
  174SOPE    C319730   2.965   2.220  10.177  0.4248 -0.6638 -1.3386
  174SOPE    HX19731   2.871   2.160  10.178  0.2477 -0.3817 -0.2735
  174SOPE    HY19732   3.014   2.203  10.275 -1.2949  1.7847  0.0507
  174SOPE   O3119733   3.043   2.195  10.059 -0.8340  0.3153  0.8913
  174SOPE   C3119734   3.171   2.236  10.056  0.2496  0.5591 -0.1252
  174SOPE   O3219735   3.226   2.298  10.148 -0.7392  0.1526 -0.1779
  174SOPE   C3219736   3.232   2.205   9.913 -0.8164 -0.2109 -0.4873
  174SOPE   H2X19737   3.173   2.250   9.830 -1.1884  0.6018  0.2088
  174SOPE   H2Y19738   3.232   2.094   9.917  2.4660 -0.2699  1.4360
  174SOPE   C2319739   2.816   2.546   9.752  0.2117  0.5929 -0.6879
  174SOPE   H3R19740   2.864   2.507   9.660  0.1594  0.9353 -0.8607
  174SOPE   H3S19741   2.890   2.606   9.810  0.4495  1.5824 -1.9710
  174SOPE   C2419742   2.706   2.644   9.704 -0.0989  0.2326  0.5513
  174SOPE   H4R19743   2.630   2.578   9.657  0.1641  0.1532  0.2326
  174SOPE   H4S19744   2.659   2.701   9.787  1.9122  1.3375  0.9989
  174SOPE   C2519745   2.751   2.765   9.614  0.0890  0.8345  0.2055
  174SOPE   H5R19746   2.667   2.831   9.585 -0.9351 -0.5437 -0.0584
  174SOPE   H5S19747   2.819   2.826   9.676  0.1022 -0.7785  1.8817
  174SOPE   C2619748   2.830   2.714   9.486  0.3440 -0.1601  0.0108
  174SOPE   H6R19749   2.914   2.649   9.517  0.8246 -0.5690 -2.0392
  174SOPE   H6S19750   2.771   2.657   9.412  0.5604 -1.7572  1.0051
  174SOPE   C2719751   2.896   2.836   9.414  0.2219 -0.4992  0.6591
  174SOPE   H7R19752   2.816   2.903   9.376  0.6860  1.2313  2.5180
  174SOPE   H7S19753   2.952   2.891   9.494 -1.0850 -2.5266  3.1211
  174SOPE   C2819754   3.001   2.803   9.302 -0.4113 -0.2655 -0.4208
  174SOPE   H8R19755   3.047   2.892   9.255 -4.6782  1.1185 -2.5504
  174SOPE   H8S19756   3.068   2.734   9.357  0.7063  1.6968  0.7880
  174SOPE   C2919757   2.927   2.732   9.192 -0.5988 -0.3686 -0.3753
  174SOPE   H9119758   2.907   2.624   9.201  1.5679 -0.9539 -1.8256
  174SOPE  C21019759   2.868   2.785   9.085 -0.0054  0.5302  0.4123
  174SOPE  H10119760   2.804   2.728   9.016 -2.0153  0.7412  2.0217
  174SOPE  C21119761   2.877   2.936   9.048  0.7216  0.3191 -1.5052
  174SOPE  H11R19762   2.942   2.942   8.958  6.4194  0.9906  2.0987
  174SOPE  H11S19763   2.922   3.001   9.126  0.1894 -1.2771  0.2044
  174SOPE  C21219764   2.746   3.007   9.020  0.0749  0.3769  0.5753
  174SOPE  H12R19765   2.675   3.031   9.102 -1.1994 -0.6133 -0.1975
  174SOPE  H12S19766   2.687   2.949   8.947 -1.7472  2.1319  0.5608
  174SOPE  C21319767   2.769   3.143   8.941 -0.1328 -0.0149  0.3558
  174SOPE  H13R19768   2.827   3.116   8.851 -0.5747 -0.4628  0.1962
  174SOPE  H13S19769   2.836   3.215   8.992  1.1777 -0.1408 -1.1168
  174SOPE  C21419770   2.635   3.210   8.910  0.1571 -0.6285  0.0807
  174SOPE  H14R19771   2.574   3.235   8.999  2.0343  3.1915  0.5163
  174SOPE  H14S19772   2.574   3.139   8.850  0.3644 -0.7745  0.0400
  174SOPE  C21519773   2.650   3.343   8.832  0.2489 -0.2822 -0.1198
  174SOPE  H15R19774   2.721   3.333   8.747  0.3994  1.2750 -0.1944
  174SOPE  H15S19775   2.689   3.423   8.898  0.2924 -0.5055  0.1268
  174SOPE  C21619776   2.510   3.384   8.769  0.2681 -0.0080  0.3143
  174SOPE  H16R19777   2.460   3.302   8.713 -0.6549  0.2319  0.7702
  174SOPE  H16S19778   2.523   3.467   8.696 -1.4226 -1.1095 -1.3068
  174SOPE  C21719779   2.406   3.425   8.880 -0.1808 -0.6124 -0.0302
  174SOPE  H17R19780   2.371   3.332   8.930 -1.6643 -0.1989 -0.2277
  174SOPE  H17S19781   2.315   3.463   8.828 -0.8883 -0.2569  1.4008
  174SOPE  C21819782   2.453   3.542   8.972 -0.0695 -0.2450  0.1609
  174SOPE  H18R19783   2.477   3.634   8.914 -2.7828  1.3480  1.3770
  174SOPE  H18S19784   2.531   3.510   9.045 -0.1367 -0.6489  0.0590
  174SOPE  H18T19785   2.365   3.579   9.029 -1.3350  0.2168 -2.0060
  174SOPE   C3319786   3.378   2.254   9.907 -0.4324 -0.4286 -0.1773
  174SOPE   H3X19787   3.436   2.182   9.969 -2.5234 -1.9045  0.1764
  174SOPE   H3Y19788   3.378   2.357   9.948 -4.4522 -0.7299  0.9235
  174SOPE   C3419789   3.445   2.244   9.774  0.1809 -0.5206  0.5673
  174SOPE   H4X19790   3.397   2.170   9.706 -2.5620  1.7822 -0.2172
  174SOPE   H4Y19791   3.550   2.213   9.791 -0.0847 -0.9789  1.3856
  174SOPE   C3519792   3.451   2.378   9.696 -0.0056  0.2646 -0.0059
  174SOPE   H5X19793   3.543   2.371   9.634  0.1842 -1.1900  0.3913
  174SOPE   H5Y19794   3.456   2.459   9.771  0.4734 -0.0348  0.2879
  174SOPE   C3619795   3.337   2.393   9.597 -0.4458  0.1879  0.4194
  174SOPE   H6X19796   3.247   2.415   9.658  0.1685 -0.0243  1.4268
  174SOPE   H6Y19797   3.318   2.295   9.549 -1.1553  0.4772  0.1014
  174SOPE   C3719798   3.367   2.506   9.495  0.2401 -0.0100 -0.6570
  174SOPE   H7X19799   3.467   2.478   9.455 -0.2525 -4.0259  0.4921
  174SOPE   H7Y19800   3.376   2.596   9.558 -0.1397 -1.2124  1.1989
  174SOPE   C3819801   3.266   2.517   9.382  0.3332  0.2756  0.3137
  174SOPE   H8X19802   3.299   2.606   9.325 -0.4905  0.1661 -0.3535
  174SOPE   H8Y19803   3.159   2.527   9.410 -0.3002  0.5546 -1.9974
  174SOPE   C3919804   3.287   2.396   9.289  0.0747 -0.0128 -0.0125
  174SOPE   H9X19805   3.279   2.308   9.357  1.1317  0.0525  0.2120
  174SOPE   H9Y19806   3.386   2.397   9.239  0.3557  1.8265  0.4837
  174SOPE  C31019807   3.179   2.392   9.178 -0.1954  0.3782 -0.0577
  174SOPE  H10X19808   3.081   2.405   9.227  0.4774  0.3427  1.3635
  174SOPE  H10Y19809   3.174   2.299   9.118 -0.5985 -1.2270  2.3040
  174SOPE  C31119810   3.192   2.501   9.079 -0.0105  0.1863  0.2873
  174SOPE  H11X19811   3.293   2.514   9.035  0.4195  0.7599  1.4116
  174SOPE  H11Y19812   3.170   2.603   9.116 -1.4283 -0.6027  1.7446
  174SOPE  C31219813   3.090   2.489   8.966  0.4876  0.7359 -0.1065
  174SOPE  H12X19814   2.990   2.480   9.012  0.7812 -3.1774  0.1032
  174SOPE  H12Y19815   3.104   2.394   8.910 -0.0148  0.5734  0.0427
  174SOPE  C31319816   3.110   2.596   8.865 -0.1529 -0.3190  0.2417
  174SOPE  H13X19817   3.211   2.589   8.819  0.4564  0.5974  1.3760
  174SOPE  H13Y19818   3.125   2.690   8.921 -0.9644  1.2225 -1.9934
  174SOPE  C31419819   3.006   2.592   8.750 -0.5541  0.4026  0.5529
  174SOPE  H14X19820   3.024   2.679   8.683  0.4348  1.0475  1.6155
  174SOPE  H14Y19821   2.904   2.594   8.794 -0.4685 -0.2404  0.7914
  174SOPE  C31519822   3.021   2.464   8.663 -0.4899  0.2335 -0.5312
  174SOPE  H15X19823   2.968   2.383   8.719 -2.0107  0.6030 -1.3625
  174SOPE  H15Y19824   3.122   2.421   8.646 -0.8585 -0.7348 -0.3673
  174SOPE  C31619825   2.953   2.458   8.531  0.3973 -0.7704  0.2504
  174SOPE  H16X19826   2.960   2.363   8.475 -0.4594 -0.6515 -0.0710
  174SOPE  H16Y19827   2.990   2.534   8.459  0.1776 -0.0151  0.9186
  174SOPE  C31719828   2.802   2.469   8.547  0.0201  0.1811  0.4840
  174SOPE  H17X19829   2.778   2.550   8.620 -0.2177 -1.1757  1.9843
  174SOPE  H17Y19830   2.771   2.370   8.588  3.0006 -2.0251 -2.1337
  174SOPE  C31819831   2.739   2.484   8.411  0.1088  0.3563 -0.1986
  174SOPE  H18X19832   2.636   2.523   8.426 -0.3483 -0.0040 -2.1117
  174SOPE  H18Y19833   2.738   2.391   8.351  0.0788  0.8951 -1.0533
  174SOPE  H18Z19834   2.793   2.552   8.341 -0.3143  0.5582 -0.3283
  175SOPE     N19835   5.019   3.343  10.782  0.0720 -0.2220 -0.3238
  175SOPE   HN119836   4.975   3.394  10.862 -0.2640  1.4437 -1.5131
  175SOPE   HN219837   4.956   3.296  10.714  0.3131 -1.2084  0.1257
  175SOPE   HN319838   5.073   3.268  10.830  0.9463 -0.5572 -1.7735
  175SOPE   C1219839   5.114   3.432  10.706 -0.2015  0.4576 -0.3062
  175SOPE  H12A19840   5.177   3.486  10.779 -0.3715 -0.3576  0.4671
  175SOPE  H12B19841   5.060   3.510  10.648 -0.3249  1.9116  1.6824
  175SOPE   C1119842   5.207   3.358  10.606 -0.2303  0.5808 -0.6278
  175SOPE  H11A19843   5.156   3.272  10.558  0.0650 -0.5287  0.9662
  175SOPE  H11B19844   5.286   3.296  10.652 -1.6813  0.4250  1.8199
  175SOPE     P19845   5.374   3.545  10.538 -0.3981 -0.0041  0.1285
  175SOPE   O1319846   5.494   3.473  10.586  0.6151 -0.5673  0.4776
  175SOPE   O1419847   5.322   3.641  10.638 -0.5133 -0.3526 -0.7306
  175SOPE   O1219848   5.260   3.440  10.505  0.0244 -0.3742 -0.0531
  175SOPE   O1119849   5.404   3.612  10.395 -1.3032  0.2688 -0.1786
  175SOPE    C119850   5.301   3.664  10.305 -0.2041 -0.6619 -0.8886
  175SOPE    HA19851   5.331   3.762  10.263 -2.8172  1.0354  0.9030
  175SOPE    HB19852   5.213   3.681  10.371 -0.0110  0.0825 -0.8091
  175SOPE    C219853   5.285   3.576  10.186 -0.0293  0.2253  0.2341
  175SOPE    HS19854   5.215   3.622  10.113 -1.2040 -0.2307  1.0458
  175SOPE   O2119855   5.245   3.442  10.216 -0.0362 -0.0691 -0.1861
  175SOPE   C2119856   5.120   3.428  10.236  0.7319  0.0994 -0.3836
  175SOPE   O2219857   5.034   3.508  10.197 -0.6196  0.2372  0.1798
  175SOPE   C2219858   5.083   3.299  10.300  0.1016 -0.8513  0.0789
  175SOPE   H2R19859   5.021   3.331  10.387  0.3037  2.7819 -0.9463
  175SOPE   H2S19860   5.172   3.252  10.346  1.6871 -0.2955 -2.2510
  175SOPE    C319861   5.419   3.565  10.107  0.1556 -0.3055 -0.0119
  175SOPE    HX19862   5.490   3.517  10.179  1.1714  1.9862  0.6057
  175SOPE    HY19863   5.466   3.664  10.088  1.1262 -0.3104  2.0658
  175SOPE   O3119864   5.408   3.485   9.988 -0.3994  0.2045 -0.6170
  175SOPE   C3119865   5.354   3.554   9.891  0.2046 -0.7903  0.1421
  175SOPE   O3219866   5.306   3.667   9.894 -0.4633  0.0313  0.3489
  175SOPE   C3219867   5.360   3.484   9.755 -0.5247  0.1319  0.1563
  175SOPE   H2X19868   5.460   3.438   9.735  0.2946  1.1874  1.5881
  175SOPE   H2Y19869   5.343   3.560   9.676 -3.4625 -1.3480 -0.7521
  175SOPE   C2319870   5.011   3.190  10.211 -0.1033  0.4369  0.0446
  175SOPE   H3R19871   4.919   3.238  10.171 -1.3739 -0.7168  1.4495
  175SOPE   H3S19872   4.981   3.112  10.284 -1.1489  1.9233  1.2420
  175SOPE   C2419873   5.098   3.138  10.101 -0.3509 -0.8030 -0.7182
  175SOPE   H4R19874   5.139   3.229  10.052 -1.0146  1.0531  1.9592
  175SOPE   H4S19875   5.179   3.078  10.147 -0.1069 -0.5880 -0.8617
  175SOPE   C2519876   5.016   3.070   9.996  0.0309  0.1265  0.0521
  175SOPE   H5R19877   4.933   3.003  10.027 -0.3495 -0.2343 -1.6476
  175SOPE   H5S19878   4.963   3.144   9.932 -1.0150 -1.0274 -0.4583
  175SOPE   C2619879   5.113   2.985   9.907 -0.1209 -0.1039 -0.2211
  175SOPE   H6R19880   5.204   3.039   9.875  1.2616 -1.4046  1.3357
  175SOPE   H6S19881   5.150   2.903   9.971 -0.1118  0.0018 -0.0910
  175SOPE   C2719882   5.049   2.932   9.776 -0.2358 -0.5718  0.8159
  175SOPE   H7R19883   4.941   2.915   9.796 -0.1198  0.1979  2.2258
  175SOPE   H7S19884   5.036   3.020   9.709  0.7078 -0.2380  1.0577
  175SOPE   C2819885   5.128   2.814   9.713 -0.2254  0.3055 -0.3699
  175SOPE   H8R19886   5.234   2.845   9.706 -0.2701  0.0838 -2.9646
  175SOPE   H8S19887   5.119   2.723   9.777  0.0928  0.5037 -0.0393
  175SOPE   C2919888   5.076   2.765   9.579  0.2899 -0.2088  0.0905
  175SOPE   H9119889   5.023   2.669   9.574  2.1384 -1.3284  0.7034
  175SOPE  C21019890   5.099   2.820   9.458  0.0936 -0.2835  0.3578
  175SOPE  H10119891   5.055   2.770   9.370  2.0396 -2.1111  0.3254
  175SOPE  C21119892   5.183   2.948   9.442 -0.2927 -0.3888 -0.0207
  175SOPE  H11R19893   5.223   2.971   9.543  0.0312  0.8159 -0.4049
  175SOPE  H11S19894   5.118   3.035   9.420  1.1825  0.4175 -1.4398
  175SOPE  C21219895   5.303   2.947   9.338 -0.0084  0.4873 -0.3799
  175SOPE  H12R19896   5.356   2.850   9.337 -0.4218  0.2379  0.8793
  175SOPE  H12S19897   5.377   3.022   9.373 -0.5257 -0.3088  2.6630
  175SOPE  C21319898   5.250   2.977   9.195 -0.0085 -0.5330  0.3359
  175SOPE  H13R19899   5.174   3.058   9.192  1.8841  1.3623  0.9983
  175SOPE  H13S19900   5.185   2.889   9.178  0.1099 -0.5823  0.1408
  175SOPE  C21419901   5.364   3.010   9.092 -0.1414 -0.0103 -0.6385
  175SOPE  H14R19902   5.452   2.943   9.104  0.0489 -0.0125 -1.9153
  175SOPE  H14S19903   5.401   3.111   9.118  0.9185 -0.7820  1.0743
  175SOPE  C21519904   5.305   3.028   8.953 -0.0937 -0.7095 -0.1995
  175SOPE  H15R19905   5.378   3.088   8.894 -0.0508 -0.5083  0.0575
  175SOPE  H15S19906   5.215   3.094   8.955  1.6700  1.8827 -0.3570
  175SOPE  C21619907   5.270   2.907   8.873  0.0180  0.4713  0.3962
  175SOPE  H16R19908   5.215   2.928   8.778  1.3562  0.6971 -0.3487
  175SOPE  H16S19909   5.196   2.849   8.932 -1.5542  1.6821 -0.2955
  175SOPE  C21719910   5.399   2.831   8.825  0.0601  0.5044  0.5159
  175SOPE  H17R19911   5.458   2.802   8.914  0.3533 -0.2438  0.0837
  175SOPE  H17S19912   5.460   2.893   8.756 -1.4012  0.9520 -0.4194
  175SOPE  C21819913   5.368   2.698   8.747 -0.2406 -0.2663  0.0718
  175SOPE  H18R19914   5.311   2.633   8.816  0.5307  0.8079  1.7849
  175SOPE  H18S19915   5.465   2.650   8.724 -1.4394 -2.5171 -0.6294
  175SOPE  H18T19916   5.304   2.711   8.656 -0.0716 -0.8031 -0.1303
  175SOPE   C3319917   5.262   3.362   9.754 -0.1356 -0.4397 -0.0011
  175SOPE   H3X19918   5.157   3.398   9.762 -0.2430 -0.9273  0.9588
  175SOPE   H3Y19919   5.277   3.291   9.838 -0.6983  0.4024  0.8302
  175SOPE   C3419920   5.265   3.290   9.619 -0.2902  0.1354  0.2114
  175SOPE   H4X19921   5.198   3.202   9.631 -0.2589  0.3824  2.8325
  175SOPE   H4Y19922   5.367   3.264   9.584 -0.7842 -1.3206 -0.2285
  175SOPE   C3519923   5.199   3.373   9.504  0.3567 -0.5887 -0.2168
  175SOPE   H5X19924   5.224   3.478   9.532 -2.0306 -0.2031  0.7289
  175SOPE   H5Y19925   5.088   3.367   9.514  0.2337 -2.6195 -2.0271
  175SOPE   C3619926   5.249   3.338   9.364 -0.0426 -0.5281  0.1921
  175SOPE   H6X19927   5.212   3.241   9.326 -0.8154 -0.0859 -0.2065
  175SOPE   H6Y19928   5.360   3.338   9.376  0.0629  0.8306 -0.5593
  175SOPE   C3719929   5.218   3.447   9.263 -0.8929  0.3898  0.2861
  175SOPE   H7X19930   5.230   3.552   9.296  2.6358  0.3579 -0.5251
  175SOPE   H7Y19931   5.116   3.427   9.225  0.4817 -0.2780 -3.5293
  175SOPE   C3819932   5.322   3.430   9.148  0.0173  0.4122  0.4144
  175SOPE   H8X19933   5.343   3.322   9.135  1.7092  0.6323  1.0400
  175SOPE   H8Y19934   5.422   3.466   9.180  1.8790 -2.4635 -1.7077
  175SOPE   C3919935   5.289   3.508   9.023  1.0889  0.0288  0.1010
  175SOPE   H9X19936   5.190   3.460   9.007  0.1755  0.1671  4.1953
  175SOPE   H9Y19937   5.365   3.480   8.947  0.6821  0.7859 -0.6025
  175SOPE  C31019938   5.262   3.655   9.048 -0.5821 -0.5873 -0.1690
  175SOPE  H10X19939   5.355   3.698   9.089 -1.5394  0.3468  1.1116
  175SOPE  H10Y19940   5.188   3.669   9.130 -1.3344  0.2911 -0.9679
  175SOPE  C31119941   5.202   3.742   8.931 -0.0023 -0.5107  0.0406
  175SOPE  H11X19942   5.232   3.846   8.954  1.2133 -0.2463 -2.3752
  175SOPE  H11Y19943   5.092   3.732   8.943 -0.0471 -1.0862 -0.7346
  175SOPE  C31219944   5.249   3.709   8.787  0.2215  0.3795  0.7516
  175SOPE  H12X19945   5.232   3.602   8.761  0.9904  0.5737 -0.6295
  175SOPE  H12Y19946   5.357   3.737   8.784  0.2927  0.0122 -1.2156
  175SOPE  C31319947   5.183   3.792   8.681 -0.5222 -0.2015  0.3512
  175SOPE  H13X19948   5.186   3.897   8.716  3.1005 -1.0477  3.2604
  175SOPE  H13Y19949   5.078   3.755   8.686 -0.2842 -0.8411  0.8216
  175SOPE  C31419950   5.248   3.777   8.538 -0.3595 -0.0464  0.4705
  175SOPE  H14X19951   5.261   3.667   8.528 -0.0886 -0.2877  2.8401
  175SOPE  H14Y19952   5.340   3.838   8.545 -0.7134  0.5210  0.2074
  175SOPE  C31519953   5.162   3.812   8.424  0.1607 -0.2849  0.7725
  175SOPE  H15X19954   5.124   3.915   8.442 -2.4213 -0.9535 -0.3045
  175SOPE  H15Y19955   5.072   3.746   8.434 -1.2340  1.4906  0.4480
  175SOPE  C31619956   5.254   3.821   8.296  0.2009  0.1835 -0.0251
  175SOPE  H16X19957   5.311   3.726   8.287  0.5528  0.4033 -0.1694
  175SOPE  H16Y19958   5.323   3.908   8.301  0.2745  0.1987 -1.1731
  175SOPE  C31719959   5.162   3.827   8.172  0.4240 -0.7006  0.9542
  175SOPE  H17X19960   5.096   3.917   8.170  1.7251  0.2962 -0.1699
  175SOPE  H17Y19961   5.100   3.736   8.173 -1.6907  0.6619  0.7216
  175SOPE  C31819962   5.228   3.838   8.036  0.0469  0.3297 -0.1030
  175SOPE  H18X19963   5.277   3.738   8.028 -0.1798  0.1129  1.0597
  175SOPE  H18Y19964   5.300   3.921   8.025 -0.8019  0.8052 -2.5652
  175SOPE  H18Z19965   5.157   3.849   7.952  0.2534  1.2816 -0.1573
  176SOPE     N19966   5.393   4.294  10.886  0.3280 -0.0775  0.3206
  176SOPE   HN119967   5.426   4.387  10.916  0.8469 -0.7446  1.9199
  176SOPE   HN219968   5.324   4.253  10.952  0.0809 -1.4599 -0.7291
  176SOPE   HN319969   5.468   4.222  10.882 -1.5600 -2.1729  0.0958
  176SOPE   C1219970   5.334   4.292  10.742 -0.1416 -0.5076  0.1908
  176SOPE  H12A19971   5.338   4.396  10.703 -2.5072 -0.4930 -0.1149
  176SOPE  H12B19972   5.229   4.257  10.753  0.1640 -1.1660  1.1283
  176SOPE   C1119973   5.393   4.184  10.647 -0.9081 -0.3983  0.3499
  176SOPE  H11A19974   5.487   4.225  10.603 -0.7207 -1.1202  0.0653
  176SOPE  H11B19975   5.321   4.184  10.562 -0.1601  1.0771 -0.3287
  176SOPE     P19976   5.552   4.015  10.772  0.4265 -0.2931 -0.1450
  176SOPE   O1319977   5.543   3.872  10.795  0.3679  0.0890 -0.0538
  176SOPE   O1419978   5.586   4.109  10.877 -1.0160  0.7661 -0.2999
  176SOPE   O1219979   5.411   4.056  10.718 -0.0305 -0.5388  0.1022
  176SOPE   O1119980   5.667   4.038  10.662 -0.6408  0.6713  0.0149
  176SOPE    C119981   5.673   3.928  10.567 -0.4957 -0.6463  0.1346
  176SOPE    HA19982   5.592   3.852  10.574 -2.7290  1.5446 -0.1839
  176SOPE    HB19983   5.773   3.883  10.586 -0.7288 -0.4270  2.1520
  176SOPE    C219984   5.671   3.979  10.425 -0.4017 -0.4024 -0.1291
  176SOPE    HS19985   5.733   4.071  10.421  0.6532 -1.0399  0.9930
  176SOPE   O2119986   5.534   4.010  10.390  0.1250 -0.2127  0.0508
  176SOPE   C2119987   5.522   4.110  10.306  0.1434 -0.2575  0.8710
  176SOPE   O2219988   5.614   4.184  10.270  0.1827 -0.4108  0.6236
  176SOPE   C2219989   5.381   4.118  10.252  0.0466 -0.5396  0.7858
  176SOPE   H2R19990   5.352   4.223  10.234  0.2139 -0.5177  0.6374
  176SOPE   H2S19991   5.312   4.088  10.334 -0.7516  0.2683  0.4219
  176SOPE    C319992   5.739   3.878  10.326 -0.3640  0.2525  0.1580
  176SOPE    HX19993   5.690   3.778  10.325  0.6831 -0.2740 -0.6249
  176SOPE    HY19994   5.844   3.857  10.356 -0.3516 -1.7685 -1.1416
  176SOPE   O3119995   5.737   3.926  10.191  0.0501  0.1569 -0.4170
  176SOPE   C3119996   5.835   4.010  10.158 -0.0846 -0.8765  0.0057
  176SOPE   O3219997   5.916   4.057  10.237  0.2336 -0.1157  0.0926
  176SOPE   C3219998   5.837   4.025  10.004 -0.3954 -0.0653 -0.4628
  176SOPE   H2X19999   5.732   4.044   9.973 -0.5015 -0.7272 -0.5242
  176SOPE   H2Y20000   5.854   3.925   9.959 -2.9457  0.5700 -3.1809
  176SOPE   C2320001   5.366   4.026  10.125  0.9772  0.2696 -0.5262
  176SOPE   H3R20002   5.257   4.005  10.115  1.3760 -1.8568 -0.8707
  176SOPE   H3S20003   5.409   3.926  10.146 -0.0592 -0.2776 -0.9282
  176SOPE   C2420004   5.423   4.084  10.000  0.2977 -0.2438 -0.0282
  176SOPE   H4R20005   5.351   4.157   9.957  0.5865 -0.6372 -1.2228
  176SOPE   H4S20006   5.519   4.135  10.026 -0.1264  0.1662  0.7630
  176SOPE   C2520007   5.451   3.981   9.893 -0.0744 -0.4613  0.0770
  176SOPE   H5R20008   5.521   3.910   9.942  0.8301  1.6402  1.9503
  176SOPE   H5S20009   5.356   3.929   9.866  0.4436 -2.2094  1.4277
  176SOPE   C2620010   5.526   4.048   9.775 -0.5134  0.6004 -0.6598
  176SOPE   H6R20011   5.451   4.101   9.712  0.1228 -0.4661 -2.3783
  176SOPE   H6S20012   5.608   4.114   9.812  2.4883 -1.9453 -2.2890
  176SOPE   C2720013   5.588   3.927   9.706 -0.1462  0.8277 -0.5554
  176SOPE   H7R20014   5.670   3.878   9.764  0.0100  4.7268  3.0070
  176SOPE   H7S20015   5.507   3.855   9.686 -0.1881  0.2146  1.6339
  176SOPE   C2820016   5.647   3.974   9.575 -0.1712  0.2041  0.2325
  176SOPE   H8R20017   5.577   3.985   9.490  1.1215  0.9159 -0.7744
  176SOPE   H8S20018   5.696   4.072   9.593 -0.2832  0.4715 -0.8854
  176SOPE   C2920019   5.761   3.885   9.531  0.0527  0.5520 -0.1228
  176SOPE   H9120020   5.860   3.928   9.553 -0.1500  0.8651  0.1884
  176SOPE  C21020021   5.736   3.787   9.440 -0.0913  0.2047 -0.6001
  176SOPE  H10120022   5.828   3.731   9.415  1.7523  2.8504 -0.2418
  176SOPE  C21120023   5.609   3.735   9.382  0.0644 -0.0006  0.3372
  176SOPE  H11R20024   5.526   3.739   9.456  0.1033  0.7378  0.3453
  176SOPE  H11S20025   5.621   3.634   9.336  0.0669  1.9767 -4.6002
  176SOPE  C21220026   5.576   3.829   9.264 -0.5570 -0.8322  0.2156
  176SOPE  H12R20027   5.575   3.937   9.291  1.1133 -0.4948 -0.9320
  176SOPE  H12S20028   5.476   3.797   9.227 -1.0088  0.5355  0.1843
  176SOPE  C21320029   5.667   3.824   9.140 -0.3571 -0.1169 -0.0739
  176SOPE  H13R20030   5.685   3.716   9.124 -0.4748 -0.1549  0.0379
  176SOPE  H13S20031   5.758   3.883   9.163 -2.2225  4.4041 -2.8272
  176SOPE  C21420032   5.595   3.891   9.021 -0.0633 -0.0586  0.6769
  176SOPE  H14R20033   5.548   3.984   9.058 -0.4233  0.0395 -0.0204
  176SOPE  H14S20034   5.512   3.822   8.993 -0.4389  1.0324 -0.9636
  176SOPE  C21520035   5.685   3.926   8.903  0.2496 -1.0109  0.2109
  176SOPE  H15R20036   5.777   3.865   8.906 -0.1031 -1.8315 -2.9846
  176SOPE  H15S20037   5.715   4.033   8.907 -0.7832 -0.7135  0.3262
  176SOPE  C21620038   5.625   3.899   8.765 -0.0230 -0.0233 -0.7835
  176SOPE  H16R20039   5.681   3.961   8.691 -0.1665 -2.2614 -2.8861
  176SOPE  H16S20040   5.521   3.935   8.777  0.0437 -0.5301  1.9185
  176SOPE  C21720041   5.634   3.753   8.717  0.3838 -0.4191  0.5043
  176SOPE  H17R20042   5.541   3.721   8.666 -0.8550 -0.8960  2.9083
  176SOPE  H17S20043   5.655   3.679   8.798  1.8228  1.3377  1.8200
  176SOPE  C21820044   5.755   3.730   8.619 -0.0156  0.5904  0.5535
  176SOPE  H18R20045   5.745   3.626   8.579  0.2280  0.6639  0.2999
  176SOPE  H18S20046   5.844   3.738   8.684  0.2654 -0.2297  0.2850
  176SOPE  H18T20047   5.777   3.804   8.539  3.9799  1.3788  2.1767
  176SOPE   C3320048   5.947   4.131   9.953 -0.6421  0.4247 -0.1159
  176SOPE   H3X20049   6.045   4.107   9.999 -1.2709  0.1474  1.1327
  176SOPE   H3Y20050   5.916   4.229   9.997  1.7276  0.6099  1.3360
  176SOPE   C3420051   5.967   4.128   9.797  0.0279 -0.1054 -0.3864
  176SOPE   H4X20052   6.016   4.221   9.761  0.4490  0.3844  1.3417
  176SOPE   H4Y20053   5.867   4.128   9.750  0.5468  1.5847 -1.5916
  176SOPE   C3520054   6.052   4.006   9.751  0.1882 -0.0265 -0.3522
  176SOPE   H5X20055   6.003   3.907   9.766  0.6156 -0.2907 -0.6997
  176SOPE   H5Y20056   6.122   3.996   9.836 -0.0883 -0.8827 -0.2167
  176SOPE   C3620057   6.117   4.019   9.616  0.3223  0.1797 -0.1221
  176SOPE   H6X20058   6.198   4.096   9.627  0.0998  0.1625  2.1100
  176SOPE   H6Y20059   6.028   4.050   9.557 -0.3528  1.0341  1.2860
  176SOPE   C3720060   6.166   3.891   9.552  0.6527 -0.1529  0.5221
  176SOPE   H7X20061   6.095   3.805   9.552  0.5397 -0.0704  1.6722
  176SOPE   H7Y20062   6.249   3.849   9.612  1.0413  0.0973  0.1616
  176SOPE   C3820063   6.232   3.905   9.414 -0.1903  0.1578  0.3799
  176SOPE   H8X20064   6.319   3.836   9.410 -1.6251 -1.8513  1.5876
  176SOPE   H8Y20065   6.268   4.008   9.395  0.0691  0.0200  0.1016
  176SOPE   C3920066   6.142   3.856   9.298 -0.3267 -1.1351  0.0187
  176SOPE   H9X20067   6.057   3.922   9.270  2.2643  2.6894  0.4314
  176SOPE   H9Y20068   6.102   3.755   9.321  0.3672 -1.5660 -0.6000
  176SOPE  C31020069   6.218   3.841   9.162  0.5670  0.2863  0.6501
  176SOPE  H10X20070   6.314   3.787   9.179  1.4681  1.0375 -1.6505
  176SOPE  H10Y20071   6.255   3.942   9.132 -1.3817  0.4372 -1.4960
  176SOPE  C31120072   6.142   3.777   9.042 -0.0243 -0.0222  0.1356
  176SOPE  H11X20073   6.047   3.831   9.022 -0.0184  0.5651  1.6357
  176SOPE  H11Y20074   6.122   3.671   9.067  0.8637 -1.1731 -3.3828
  176SOPE  C31220075   6.210   3.780   8.905 -0.0947  0.2090 -0.0815
  176SOPE  H12X20076   6.314   3.744   8.921  0.1106  1.0641  0.6058
  176SOPE  H12Y20077   6.216   3.883   8.863 -2.2784 -0.7723 -3.1173
  176SOPE  C31320078   6.133   3.695   8.802 -0.5533  0.1793  0.3780
  176SOPE  H13X20079   6.030   3.710   8.840 -1.4589 -1.2931 -1.3612
  176SOPE  H13Y20080   6.172   3.591   8.803 -1.5749 -0.2087  0.4655
  176SOPE  C31420081   6.139   3.739   8.659  0.3092 -0.4356  0.4684
  176SOPE  H14X20082   6.083   3.834   8.650  0.5664 -0.2395  0.8801
  176SOPE  H14Y20083   6.081   3.669   8.595 -0.6675 -1.5812  2.4810
  176SOPE  C31520084   6.282   3.744   8.591  0.4815  0.3490 -0.5918
  176SOPE  H15X20085   6.326   3.829   8.646 -2.8657  1.2892  0.9029
  176SOPE  H15Y20086   6.273   3.787   8.489 -0.2877  1.1508 -0.2009
  176SOPE  C31620087   6.366   3.617   8.607  0.2143  0.1250  0.1519
  176SOPE  H16X20088   6.308   3.525   8.585 -0.7562  0.9259 -0.8020
  176SOPE  H16Y20089   6.390   3.601   8.714  0.7612 -0.2465 -0.0232
  176SOPE  C31720090   6.497   3.635   8.518 -0.0781 -0.1722 -0.6719
  176SOPE  H17X20091   6.568   3.698   8.577  0.8236 -1.0134 -0.8222
  176SOPE  H17Y20092   6.475   3.698   8.429  0.6764  0.0461 -0.7178
  176SOPE  C31820093   6.566   3.505   8.478  0.5819  0.0507 -0.4844
  176SOPE  H18X20094   6.497   3.441   8.420  1.3266 -0.2037 -1.1084
  176SOPE  H18Y20095   6.630   3.447   8.548 -0.8781  0.1738  1.0001
  176SOPE  H18Z20096   6.630   3.544   8.396 -0.1871  2.4911 -0.0100
  177SOPE     N20097   3.454   1.599  11.006 -0.6272  0.1199 -0.0768
  177SOPE   HN120098   3.492   1.672  11.070 -2.1219 -0.5600  1.6870
  177SOPE   HN220099   3.509   1.603  10.918 -1.8314  1.9615 -0.8037
  177SOPE   HN320100   3.357   1.629  10.984 -0.6988  1.0818  1.4221
  177SOPE   C1220101   3.448   1.449  11.047  0.3105 -0.4585  0.0763
  177SOPE  H12A20102   3.397   1.459  11.145 -0.7397 -0.5255 -0.4413
  177SOPE  H12B20103   3.554   1.418  11.041  0.2302 -0.4319 -2.6508
  177SOPE   C1120104   3.365   1.370  10.947  0.3534 -0.3388 -0.1061
  177SOPE  H11A20105   3.273   1.429  10.927  0.9177  1.4971  2.2572
  177SOPE  H11B20106   3.332   1.274  10.991 -2.5208  0.3224 -0.6152
  177SOPE     P20107   3.413   1.225  10.730  0.0138  0.2678  0.0453
  177SOPE   O1320108   3.285   1.161  10.770  0.3651 -0.2718  0.4014
  177SOPE   O1420109   3.529   1.135  10.721 -0.2601  0.2963 -0.5455
  177SOPE   O1220110   3.435   1.352  10.823  0.0799 -0.0286  0.2764
  177SOPE   O1120111   3.389   1.295  10.590 -0.1493 -0.1335 -0.3812
  177SOPE    C120112   3.487   1.385  10.551  0.3292 -0.0214  0.3493
  177SOPE    HA20113   3.585   1.380  10.602  0.1007 -1.3716  0.6902
  177SOPE    HB20114   3.455   1.491  10.561  0.3893 -0.0945  1.4720
  177SOPE    C220115   3.505   1.353  10.398 -0.7214 -0.0563 -0.0075
  177SOPE    HS20116   3.400   1.371  10.366  0.1025  3.0239 -1.3072
  177SOPE   O2120117   3.558   1.220  10.389  0.2354  0.1000  0.4190
  177SOPE   C2120118   3.474   1.111  10.389  0.3255 -0.0080 -0.7507
  177SOPE   O2220119   3.353   1.117  10.387 -0.3179  0.3859 -0.2501
  177SOPE   C2220120   3.563   0.983  10.403 -0.5202 -0.2954 -0.4275
  177SOPE   H2R20121   3.532   0.928  10.494  1.8736  1.8609  1.8370
  177SOPE   H2S20122   3.673   0.999  10.402 -0.3448 -1.3386 -1.6897
  177SOPE    C320123   3.601   1.446  10.316 -0.2542 -0.5274 -0.1772
  177SOPE    HX20124   3.699   1.450  10.368 -1.6377 -1.2447  2.6273
  177SOPE    HY20125   3.561   1.549  10.308  1.0176 -0.0636 -0.8527
  177SOPE   O3120126   3.595   1.389  10.181 -0.5411 -0.0131  0.1758
  177SOPE   C3120127   3.712   1.344  10.135  0.1436 -0.6009  0.2657
  177SOPE   O3220128   3.818   1.349  10.201  0.9959  0.1008  1.0339
  177SOPE   C3220129   3.691   1.328   9.986  0.1298  0.8287 -1.1300
  177SOPE   H2X20130   3.587   1.292   9.972  0.1242  0.6510 -0.6638
  177SOPE   H2Y20131   3.762   1.252   9.948  0.6833  0.1509  1.0921
  177SOPE   C2320132   3.528   0.894  10.271 -0.3437 -0.0548 -0.4096
  177SOPE   H3R20133   3.419   0.874  10.281 -0.1750  0.0166  2.5471
  177SOPE   H3S20134   3.589   0.801  10.277  0.1410  0.3410  1.4694
  177SOPE   C2420135   3.557   0.973  10.139  0.5342  0.9877  0.5080
  177SOPE   H4R20136   3.510   1.074  10.149  0.3224  1.1922 -2.0841
  177SOPE   H4S20137   3.665   0.978  10.115  0.6310 -2.3786 -0.2478
  177SOPE   C2520138   3.493   0.890  10.018  0.0102  0.0988 -0.4925
  177SOPE   H5R20139   3.524   0.784  10.033 -2.0231 -0.4885 -0.1458
  177SOPE   H5S20140   3.385   0.909  10.035  0.3580  3.1229 -1.0213
  177SOPE   C2620141   3.533   0.965   9.893 -0.4354  0.2446  0.5901
  177SOPE   H6R20142   3.433   1.008   9.871 -1.4292 -0.9903  2.4130
  177SOPE   H6S20143   3.608   1.044   9.918 -1.1420  0.7571  1.1357
  177SOPE   C2720144   3.606   0.877   9.780  0.0275  0.6389 -0.1087
  177SOPE   H7R20145   3.701   0.833   9.819 -0.3487  0.6123  0.8007
  177SOPE   H7S20146   3.543   0.791   9.748  0.2548  0.9922 -1.5962
  177SOPE   C2820147   3.645   0.953   9.654  0.1476  0.0319  0.4859
  177SOPE   H8R20148   3.551   1.001   9.619 -0.8139 -1.9770  0.1541
  177SOPE   H8S20149   3.716   1.029   9.693 -1.4321  0.9023  1.7997
  177SOPE   C2920150   3.702   0.866   9.546  0.5602  0.8566 -0.1376
  177SOPE   H9120151   3.790   0.808   9.579 -1.0566 -0.6080  1.8459
  177SOPE  C21020152   3.657   0.856   9.423  0.8671 -0.0039  0.0824
  177SOPE  H10120153   3.705   0.789   9.350  1.9167  0.0627  0.6873
  177SOPE  C21120154   3.541   0.929   9.364  0.2108 -0.2523  0.0862
  177SOPE  H11R20155   3.465   0.940   9.444  0.2198 -1.1501  0.2235
  177SOPE  H11S20156   3.492   0.864   9.287  1.1041 -1.4569  0.5141
  177SOPE  C21220157   3.594   1.067   9.297 -0.2608 -0.1105 -0.5592
  177SOPE  H12R20158   3.658   1.112   9.375 -1.4555 -0.8131  0.8742
  177SOPE  H12S20159   3.504   1.129   9.279  0.0293  0.3154 -0.5572
  177SOPE  C21320160   3.671   1.049   9.169 -0.2220 -0.8896  0.6817
  177SOPE  H13R20161   3.771   1.004   9.188  1.6630  2.3275 -0.7665
  177SOPE  H13S20162   3.698   1.147   9.125 -0.8898 -0.9619  0.0951
  177SOPE  C21420163   3.590   0.972   9.060 -0.1492  0.4073  0.3651
  177SOPE  H14R20164   3.590   0.863   9.084  1.6905  0.5140  1.0350
  177SOPE  H14S20165   3.655   0.980   8.971 -0.0374 -0.0906  0.3984
  177SOPE  C21520166   3.461   1.034   9.005  0.1086 -0.5721 -0.3124
  177SOPE  H15R20167   3.466   1.145   9.008  0.6008 -0.5947 -0.2454
  177SOPE  H15S20168   3.388   1.033   9.089  0.7377 -0.9500  0.2376
  177SOPE  C21620169   3.412   0.969   8.870 -0.3738 -0.5497  0.3747
  177SOPE  H16R20170   3.496   0.979   8.798 -0.9199  0.7361 -0.1110
  177SOPE  H16S20171   3.328   1.026   8.825 -1.7728 -1.9544  1.1097
  177SOPE  C21720172   3.371   0.825   8.883  0.2722  0.2412 -0.0447
  177SOPE  H17R20173   3.289   0.817   8.958  2.2255  0.7321  2.2844
  177SOPE  H17S20174   3.448   0.770   8.942 -0.2269 -0.4300 -0.0066
  177SOPE  C21820175   3.349   0.755   8.748 -0.0452 -0.6105 -0.5332
  177SOPE  H18R20176   3.327   0.647   8.759  2.1490 -1.0474 -0.1238
  177SOPE  H18S20177   3.440   0.762   8.686 -0.8784  1.7765 -1.6120
  177SOPE  H18T20178   3.268   0.794   8.683  0.3518 -0.1516 -0.7553
  177SOPE   C3320179   3.714   1.462   9.917 -0.9169  0.3100  0.0169
  177SOPE   H3X20180   3.814   1.509   9.935 -0.4528 -0.3962 -0.6816
  177SOPE   H3Y20181   3.639   1.540   9.942 -0.2694  1.3918 -1.2753
  177SOPE   C3420182   3.699   1.436   9.768 -0.5959 -1.0577 -0.2946
  177SOPE   H4X20183   3.695   1.535   9.717  1.2926 -1.2455 -0.8968
  177SOPE   H4Y20184   3.610   1.377   9.738 -1.6849 -0.0260  0.7530
  177SOPE   C3520185   3.829   1.379   9.708  0.1757  0.2570 -0.7708
  177SOPE   H5X20186   3.866   1.289   9.762 -0.4885 -0.5800 -1.6761
  177SOPE   H5Y20187   3.903   1.458   9.733 -2.9837  2.5992  2.2059
  177SOPE   C3620188   3.837   1.354   9.556 -0.1237  0.2338  0.0097
  177SOPE   H6X20189   3.818   1.245   9.548  1.1584  0.0443 -0.6647
  177SOPE   H6Y20190   3.938   1.367   9.512 -0.4097 -2.0735 -1.5114
  177SOPE   C3720191   3.741   1.443   9.477 -0.2271  0.1201 -0.0520
  177SOPE   H7X20192   3.771   1.547   9.499  0.5699 -0.4916  1.9725
  177SOPE   H7Y20193   3.638   1.416   9.507 -0.7241  1.2580 -0.6778
  177SOPE   C3820194   3.756   1.415   9.327  0.2964 -0.3874  0.2028
  177SOPE   H8X20195   3.746   1.306   9.308 -1.6921 -0.6298  2.2133
  177SOPE   H8Y20196   3.864   1.436   9.311  0.7674 -1.9472  1.1682
  177SOPE   C3920197   3.658   1.502   9.245 -0.0836 -0.4270 -0.1557
  177SOPE   H9X20198   3.672   1.606   9.281  0.1896 -0.4282 -0.2594
  177SOPE   H9Y20199   3.551   1.476   9.264 -0.3629  1.3778  0.9106
  177SOPE  C31020200   3.661   1.481   9.101  0.9656  0.5732  0.5773
  177SOPE  H10X20201   3.627   1.380   9.071 -0.1944  0.9086  0.7458
  177SOPE  H10Y20202   3.757   1.514   9.056  1.4034 -0.5512  0.6547
  177SOPE  C31120203   3.553   1.555   9.023 -0.1125  0.7842 -0.8268
  177SOPE  H11X20204   3.550   1.664   9.046 -1.0702  0.5155  0.4173
  177SOPE  H11Y20205   3.455   1.514   9.056  0.4073 -0.6057 -0.9593
  177SOPE  C31220206   3.583   1.533   8.874 -0.4745 -0.4175  0.5003
  177SOPE  H12X20207   3.566   1.432   8.834  2.2568 -0.2395 -1.3818
  177SOPE  H12Y20208   3.684   1.577   8.853 -0.0099 -0.8545  1.7154
  177SOPE  C31320209   3.494   1.630   8.796 -0.7758 -0.4630 -0.4777
  177SOPE  H13X20210   3.531   1.733   8.815 -0.6189 -0.1234 -2.4312
  177SOPE  H13Y20211   3.391   1.615   8.836 -1.4620  0.3639 -1.8381
  177SOPE  C31420212   3.495   1.600   8.644  0.4938 -0.2747 -0.7736
  177SOPE  H14X20213   3.401   1.640   8.601  0.7060  0.3052 -0.7129
  177SOPE  H14Y20214   3.494   1.491   8.626  1.8808 -1.0270  2.8370
  177SOPE  C31520215   3.615   1.648   8.557 -0.6876  0.8528 -0.1146
  177SOPE  H15X20216   3.593   1.612   8.455 -0.5193 -2.0817  0.7813
  177SOPE  H15Y20217   3.702   1.591   8.596 -0.4100  2.3356  1.5598
  177SOPE  C31620218   3.644   1.797   8.563  0.0414 -0.1951  0.1684
  177SOPE  H16X20219   3.690   1.826   8.659  1.7981 -0.8802 -0.4142
  177SOPE  H16Y20220   3.541   1.836   8.576  0.4674  1.0124  0.0726
  177SOPE  C31720221   3.711   1.862   8.443  0.2923  0.0660 -0.2745
  177SOPE  H17X20222   3.642   1.847   8.356  2.2324  1.8895 -2.2569
  177SOPE  H17Y20223   3.807   1.812   8.419 -0.9912 -1.9790 -1.6217
  177SOPE  C31820224   3.741   2.012   8.468 -0.0191 -0.1585  0.4100
  177SOPE  H18X20225   3.655   2.067   8.424  1.4978  1.6696 -0.4159
  177SOPE  H18Y20226   3.832   2.028   8.406 -1.1469 -0.6022 -1.4379
  177SOPE  H18Z20227   3.742   2.037   8.576 -1.3539  0.4624  0.2967
  178SOPE     N20228   0.097   6.460  10.592  0.1850  0.8970  0.2762
  178SOPE   HN120229   0.163   6.394  10.637 -0.0461 -0.3899 -1.1852
  178SOPE   HN220230   0.060   6.524  10.665 -1.4299 -0.2799  0.5427
  178SOPE   HN320231   0.014   6.401  10.572  0.6840 -0.4035  1.8748
  178SOPE   C1220232   0.147   6.528  10.461 -0.3456 -0.2497 -0.3140
  178SOPE  H12A20233   0.148   6.452  10.380  0.5555  1.1220 -1.6378
  178SOPE  H12B20234   0.254   6.555  10.474 -0.2663 -0.3060 -0.8313
  178SOPE   C1120235   0.052   6.641  10.402  0.3086  0.3283  0.0392
  178SOPE  H11A20236  -0.049   6.603  10.376  0.8948 -0.8741 -0.5414
  178SOPE  H11B20237   0.085   6.680  10.303 -0.3645 -0.5961 -0.5712
  178SOPE     P20238   0.156   6.836  10.520  0.4923 -0.0178 -0.3247
  178SOPE   O1320239   0.279   6.770  10.567  0.1719 -0.0670 -0.2364
  178SOPE   O1420240   0.112   6.952  10.596 -0.2392  0.7551 -0.0191
  178SOPE   O1220241   0.032   6.736  10.504  0.6392  0.5058 -0.0534
  178SOPE   O1120242   0.179   6.890  10.371  0.7728  0.0971  0.7903
  178SOPE    C120243   0.065   6.957  10.317  0.0361  0.2764  0.7087
  178SOPE    HA20244   0.056   7.061  10.355 -1.7830  1.1855 -1.9178
  178SOPE    HB20245  -0.032   6.916  10.352 -0.4794  0.3793 -0.5383
  178SOPE    C220246   0.065   6.958  10.167  1.0408 -0.4494 -0.1070
  178SOPE    HS20247   0.068   6.852  10.133 -0.1812 -0.1531 -1.2095
  178SOPE   O2120248   0.183   7.036  10.142 -0.5653  0.2495  0.2441
  178SOPE   C2120249   0.265   6.984  10.048  0.5799  0.0143  0.1518
  178SOPE   O2220250   0.240   6.894   9.973 -0.1451  0.0768 -0.1525
  178SOPE   C2220251   0.399   7.062  10.053  0.4837 -0.8522 -0.3865
  178SOPE   H2R20252   0.449   7.052  10.152  1.4340  3.1885 -0.2563
  178SOPE   H2S20253   0.370   7.169  10.047  0.8189 -0.8371 -2.2353
  178SOPE    C320254  -0.064   7.029  10.110  0.2444 -0.7788  0.0183
  178SOPE    HX20255  -0.074   7.127  10.163 -2.5748 -0.5729 -0.7317
  178SOPE    HY20256  -0.145   6.958  10.135  0.2918 -0.8652 -0.0700
  178SOPE   O3120257  -0.038   7.071   9.972 -0.3084  0.0817  0.3201
  178SOPE   C3120258  -0.119   7.017   9.885 -0.2479 -0.4054  1.1069
  178SOPE   O3220259  -0.215   6.946   9.906  0.1119 -1.1752  0.3164
  178SOPE   C3220260  -0.073   7.051   9.742  0.0912 -0.5540 -0.0166
  178SOPE   H2X20261   0.016   6.985   9.732  0.0092 -1.0613  2.0839
  178SOPE   H2Y20262  -0.028   7.152   9.743  0.6599 -0.8076 -0.1377
  178SOPE   C2320263   0.489   7.026   9.933 -0.3599 -0.1967  0.1341
  178SOPE   H3R20264   0.492   6.915   9.930 -1.3979 -0.2603  1.0202
  178SOPE   H3S20265   0.595   7.059   9.941  0.2746 -2.0084 -0.4580
  178SOPE   C2420266   0.437   7.091   9.800  0.4307  0.6485 -0.0595
  178SOPE   H4R20267   0.327   7.075   9.794  0.5708 -0.3750  0.0038
  178SOPE   H4S20268   0.454   7.201   9.806 -0.0333  0.6990  0.4545
  178SOPE   C2520269   0.497   7.029   9.670 -0.1215  0.0126  0.4882
  178SOPE   H5R20270   0.480   7.093   9.581 -0.8291 -1.7374 -0.6851
  178SOPE   H5S20271   0.606   7.007   9.679  0.2056 -0.4633 -3.0869
  178SOPE   C2620272   0.421   6.897   9.624 -0.2787  0.1122 -0.5862
  178SOPE   H6R20273   0.486   6.831   9.563 -0.6912 -2.3610  1.4824
  178SOPE   H6S20274   0.386   6.834   9.709  1.2871  0.8740  0.6857
  178SOPE   C2720275   0.296   6.921   9.539 -0.5487 -0.1143  0.5418
  178SOPE   H7R20276   0.233   6.982   9.607 -0.5401  0.6359 -0.1144
  178SOPE   H7S20277   0.325   6.980   9.449  1.5116 -0.1737  1.1270
  178SOPE   C2820278   0.214   6.795   9.495 -0.4953 -0.2990 -0.7361
  178SOPE   H8R20279   0.190   6.746   9.592  2.1226  1.3990  0.8975
  178SOPE   H8S20280   0.119   6.835   9.454 -1.3923 -0.5175  1.0333
  178SOPE   C2920281   0.286   6.700   9.403 -0.7822  0.5031 -0.0783
  178SOPE   H9120282   0.337   6.626   9.466 -0.5731  1.8336  1.3745
  178SOPE  C21020283   0.288   6.693   9.267  0.0407  0.3862  0.2512
  178SOPE  H10120284   0.344   6.613   9.217  0.4338  0.7146  0.1667
  178SOPE  C21120285   0.214   6.784   9.170 -0.2433 -0.3121  0.2748
  178SOPE  H11R20286   0.160   6.869   9.216  0.5115  0.6134 -0.5237
  178SOPE  H11S20287   0.124   6.724   9.141  0.0260  0.0827 -1.4777
  178SOPE  C21220288   0.290   6.838   9.051 -0.0878 -0.0875  0.8580
  178SOPE  H12R20289   0.350   6.754   9.008 -0.0649 -0.1524  1.0142
  178SOPE  H12S20290   0.360   6.917   9.086  1.3198  0.2669 -2.4146
  178SOPE  C21320291   0.188   6.893   8.948  1.1035 -0.1987  0.2176
  178SOPE  H13R20292   0.126   6.971   8.997  2.5168  0.7969  0.4964
  178SOPE  H13S20293   0.109   6.821   8.918  0.5937 -0.6667  2.5337
  178SOPE  C21420294   0.263   6.984   8.849  0.4329  0.6303  0.3912
  178SOPE  H14R20295   0.308   6.916   8.774 -0.3686  1.0962 -0.5455
  178SOPE  H14S20296   0.341   7.046   8.898 -1.0425  1.7430  1.4269
  178SOPE  C21520297   0.172   7.075   8.768  0.0695  1.0209  0.8752
  178SOPE  H15R20298   0.116   7.149   8.830  0.0901  0.2468  1.8316
  178SOPE  H15S20299   0.102   7.003   8.721  0.0203  0.7772  1.3190
  178SOPE  C21620300   0.241   7.158   8.654  0.0609  0.1413 -0.1548
  178SOPE  H16R20301   0.170   7.224   8.599  1.9976  0.6337 -2.2401
  178SOPE  H16S20302   0.273   7.080   8.582 -0.1306 -0.1729  0.1010
  178SOPE  C21720303   0.367   7.237   8.691 -0.0363 -0.0933 -0.6878
  178SOPE  H17R20304   0.402   7.297   8.604  1.2610  0.2376  0.0449
  178SOPE  H17S20305   0.450   7.169   8.718 -1.7092 -2.1014 -0.2857
  178SOPE  C21820306   0.346   7.331   8.807  0.1962 -0.2192  0.4213
  178SOPE  H18R20307   0.440   7.384   8.833 -1.2411  1.1675  3.2096
  178SOPE  H18S20308   0.323   7.271   8.898 -0.6234 -1.7371 -0.7261
  178SOPE  H18T20309   0.267   7.408   8.791  0.8403  0.4657  0.5045
  178SOPE   C3320310  -0.186   7.029   9.637 -0.1383  0.0399 -0.3606
  178SOPE   H3X20311  -0.272   7.097   9.653  0.3552  0.3920  0.8745
  178SOPE   H3Y20312  -0.237   6.932   9.653 -1.3785  0.6494 -0.5137
  178SOPE   C3420313  -0.133   7.012   9.491  0.3648  0.0748 -0.3859
  178SOPE   H4X20314  -0.059   6.930   9.500 -2.5418 -2.9295 -2.1575
  178SOPE   H4Y20315  -0.083   7.108   9.466  3.2467 -0.8331  1.4012
  178SOPE   C3520316  -0.236   6.980   9.391  0.2174 -0.1165 -0.0501
  178SOPE   H5X20317  -0.296   7.072   9.379 -0.9771 -0.7900  0.5452
  178SOPE   H5Y20318  -0.306   6.902   9.429  0.3963 -0.2277  0.0575
  178SOPE   C3620319  -0.163   6.949   9.261 -0.7387 -0.1407 -0.0614
  178SOPE   H6X20320  -0.111   6.851   9.272  2.0647  1.2593 -0.0941
  178SOPE   H6Y20321  -0.073   7.013   9.252 -1.1739  0.4850 -0.0024
  178SOPE   C3720322  -0.254   6.962   9.140 -0.2694 -0.1597  0.3389
  178SOPE   H7X20323  -0.299   7.063   9.132  1.7700  0.8946  1.3433
  178SOPE   H7Y20324  -0.334   6.890   9.168 -1.3744  1.3905  1.3404
  178SOPE   C3820325  -0.185   6.923   9.012  0.5095  0.1823  0.6942
  178SOPE   H8X20326  -0.164   6.816   9.030 -2.4232 -0.4765  0.7771
  178SOPE   H8Y20327  -0.089   6.973   8.987  0.1402  1.3336  1.5241
  178SOPE   C3920328  -0.286   6.923   8.894  0.1852 -0.4219 -0.2490
  178SOPE   H9X20329  -0.301   7.028   8.862 -1.5228 -0.9139 -1.1668
  178SOPE   H9Y20330  -0.387   6.895   8.930 -1.8184  3.8000 -1.9099
  178SOPE  C31020331  -0.233   6.838   8.773  0.0335  0.5086 -0.4925
  178SOPE  H10X20332  -0.204   6.735   8.804 -1.0396 -0.4952 -2.5889
  178SOPE  H10Y20333  -0.144   6.891   8.732  1.1508 -0.7297  0.2764
  178SOPE  C31120334  -0.318   6.848   8.648  0.1085  0.2599 -0.0448
  178SOPE  H11X20335  -0.315   6.956   8.621 -3.0996  0.5668  0.3875
  178SOPE  H11Y20336  -0.425   6.822   8.666 -1.5876  5.3526 -0.8711
  178SOPE  C31220337  -0.273   6.745   8.550 -0.7820 -0.4079  1.0029
  178SOPE  H12X20338  -0.263   6.645   8.598 -3.0010 -1.8422 -1.2584
  178SOPE  H12Y20339  -0.169   6.773   8.523 -0.2691 -3.1730 -0.2880
  178SOPE  C31320340  -0.369   6.722   8.432 -0.6482  0.1441  0.5093
  178SOPE  H13X20341  -0.400   6.824   8.400  1.3576  0.7974  0.5142
  178SOPE  H13Y20342  -0.461   6.669   8.466 -1.2759  1.7191  1.3730
  178SOPE  C31420343  -0.300   6.654   8.308 -0.1517 -0.2440 -0.3558
  178SOPE  H14X20344  -0.378   6.643   8.229  0.2176 -0.3929 -0.7024
  178SOPE  H14Y20345  -0.262   6.555   8.344  1.4353  0.6504  0.5436
  178SOPE  C31520346  -0.183   6.742   8.251 -0.1299  0.2273  0.4015
  178SOPE  H15X20347  -0.133   6.688   8.169 -0.8932  0.8384 -0.4818
  178SOPE  H15Y20348  -0.116   6.761   8.338  1.0973  1.4063 -0.7651
  178SOPE  C31620349  -0.225   6.877   8.183  0.4044  0.0046 -0.6964
  178SOPE  H16X20350  -0.287   6.937   8.253 -1.0758  1.4937 -3.0957
  178SOPE  H16Y20351  -0.291   6.864   8.094  0.7567 -0.4403 -0.8940
  178SOPE  C31720352  -0.106   6.962   8.150  0.4331  0.4171 -0.7672
  178SOPE  H17X20353  -0.026   6.898   8.107  0.4908 -0.5581  0.7429
  178SOPE  H17Y20354  -0.056   7.000   8.241 -0.0056 -0.5636 -0.1062
  178SOPE  C31820355  -0.133   7.085   8.054 -0.0522  0.0960 -0.8127
  178SOPE  H18X20356  -0.046   7.149   8.029  1.0793 -0.6441  1.0314
  178SOPE  H18Y20357  -0.198   7.148   8.117  1.9922  1.4061  0.1024
  178SOPE  H18Z20358  -0.190   7.068   7.960 -0.0073  2.5303 -1.3488
  179SOPE     N20359   3.862   0.969   6.102  0.2188 -0.1134  0.7767
  179SOPE   HN120360   3.791   0.934   6.034  1.3089  0.1676 -0.5616
  179SOPE   HN220361   3.956   0.953   6.060  0.0130  0.5382  0.0339
  179SOPE   HN320362   3.867   0.904   6.183  2.0258  0.0071  0.8154
  179SOPE   C1220363   3.865   1.117   6.150 -0.2639  0.3926 -0.7172
  179SOPE  H12A20364   3.766   1.124   6.199  0.0349  0.7343 -0.1431
  179SOPE  H12B20365   3.880   1.179   6.059 -0.5183  1.0785 -0.2983
  179SOPE   C1120366   3.985   1.142   6.251  0.2109 -0.3518  0.1806
  179SOPE  H11A20367   3.968   1.086   6.345  3.0854  1.9960  2.3013
  179SOPE  H11B20368   3.997   1.246   6.288 -3.0784  0.2504 -0.2134
  179SOPE     P20369   4.244   1.112   6.246 -0.0867 -0.3437  0.1164
  179SOPE   O1320370   4.274   1.244   6.288 -0.3801 -0.4099 -0.1110
  179SOPE   O1420371   4.339   1.043   6.154  0.5580  0.2985  0.2789
  179SOPE   O1220372   4.098   1.096   6.181 -0.5400  0.2609 -0.0731
  179SOPE   O1120373   4.221   1.023   6.371  0.6237 -0.0346 -0.1764
  179SOPE    C120374   4.180   0.885   6.365  0.4517  0.5584  0.4354
  179SOPE    HA20375   4.173   0.836   6.265 -2.0651 -0.6282  1.0971
  179SOPE    HB20376   4.075   0.870   6.400  0.1441  0.5288 -0.4581
  179SOPE    C220377   4.273   0.793   6.462 -0.3527  0.3767  0.1764
  179SOPE    HS20378   4.245   0.687   6.445 -1.9225  0.5406  1.5220
  179SOPE   O2120379   4.258   0.832   6.595 -0.1624 -0.2793  0.0109
  179SOPE   C2120380   4.153   0.820   6.657  0.0520 -0.8137 -0.2231
  179SOPE   O2220381   4.053   0.763   6.620  0.1529  0.1137  0.5521
  179SOPE   C2220382   4.162   0.881   6.797 -0.7651  0.0566 -0.0206
  179SOPE   H2R20383   4.125   0.985   6.806 -0.6728  0.1812 -0.9133
  179SOPE   H2S20384   4.267   0.892   6.830 -0.1036  0.0019 -1.9874
  179SOPE    C320385   4.423   0.807   6.420 -0.3551 -0.5506  0.3427
  179SOPE    HX20386   4.457   0.912   6.428 -0.5068 -0.6430  3.0644
  179SOPE    HY20387   4.436   0.769   6.316 -0.2573 -1.1797  0.5829
  179SOPE   O3120388   4.501   0.717   6.500  0.6901  0.5263 -0.1706
  179SOPE   C3120389   4.591   0.766   6.584 -0.5432  0.4537 -0.0345
  179SOPE   O3220390   4.631   0.881   6.590 -0.3983 -0.6173 -1.0127
  179SOPE   C3220391   4.670   0.649   6.640  0.2735 -1.0399  0.0985
  179SOPE   H2X20392   4.723   0.608   6.551 -1.4468 -0.2659 -1.3432
  179SOPE   H2Y20393   4.597   0.571   6.671 -1.7299  0.8729  0.4951
  179SOPE   C2320394   4.077   0.808   6.898  0.2167 -0.4188 -0.1300
  179SOPE   H3R20395   4.122   0.706   6.904  0.2743 -0.4174 -0.5051
  179SOPE   H3S20396   3.976   0.802   6.852  1.1016 -0.1876 -2.2033
  179SOPE   C2420397   4.065   0.873   7.036 -0.3067  0.4486 -0.1992
  179SOPE   H4R20398   4.157   0.846   7.091  0.2352 -0.3283 -1.4339
  179SOPE   H4S20399   4.069   0.981   7.009  0.6027  0.6671  0.7607
  179SOPE   C2520400   3.938   0.844   7.117  0.5743 -0.4286 -1.1271
  179SOPE   H5R20401   3.909   0.929   7.184 -0.4238 -0.0140 -2.0505
  179SOPE   H5S20402   3.848   0.843   7.052 -1.0109 -0.3779  0.9672
  179SOPE   C2620403   3.947   0.714   7.205 -0.5860 -0.6126 -0.3032
  179SOPE   H6R20404   3.843   0.685   7.231 -0.3774 -1.0495  0.0539
  179SOPE   H6S20405   3.998   0.635   7.144  1.6941  0.4320  0.1546
  179SOPE   C2720406   4.027   0.724   7.335 -0.3138  0.0119 -0.1190
  179SOPE   H7R20407   4.132   0.746   7.308  0.1801 -2.0266 -0.0160
  179SOPE   H7S20408   4.003   0.810   7.402  0.1121  0.4894 -0.5733
  179SOPE   C2820409   4.031   0.594   7.420 -0.5744  0.2609 -0.6482
  179SOPE   H8R20410   3.932   0.543   7.421 -1.1522  1.3012 -2.1448
  179SOPE   H8S20411   4.081   0.517   7.358 -0.5654 -0.4723  0.2406
  179SOPE   C2920412   4.098   0.598   7.553 -0.4341 -0.1119 -0.0317
  179SOPE   H9120413   4.208   0.589   7.547 -0.5850 -1.6890 -0.8252
  179SOPE  C21020414   4.035   0.606   7.673 -0.0206  0.5146  0.3246
  179SOPE  H10120415   4.104   0.609   7.759 -0.3803 -1.0389  0.6977
  179SOPE  C21120416   3.889   0.620   7.689 -0.0761  0.0318 -0.1429
  179SOPE  H11R20417   3.840   0.557   7.611  0.8105  1.4044 -1.8809
  179SOPE  H11S20418   3.864   0.720   7.648  1.7496  0.3839 -0.4875
  179SOPE  C21220419   3.822   0.611   7.830 -0.3766  0.6030  0.4049
  179SOPE  H12R20420   3.722   0.653   7.806  0.1321  1.9944  0.5897
  179SOPE  H12S20421   3.885   0.666   7.903  0.1546  0.7980 -0.1959
  179SOPE  C21320422   3.822   0.462   7.884  0.5439  0.1063 -0.4613
  179SOPE  H13R20423   3.930   0.436   7.883  0.3655 -0.6943  0.1424
  179SOPE  H13S20424   3.776   0.390   7.812 -1.2631  1.3785 -0.6563
  179SOPE  C21420425   3.757   0.450   8.017 -0.7680 -0.0325 -0.5230
  179SOPE  H14R20426   3.659   0.499   8.038 -0.8510  1.3607 -3.5713
  179SOPE  H14S20427   3.823   0.514   8.080 -1.0456  0.4721 -0.7345
  179SOPE  C21520428   3.737   0.310   8.076  0.6677  0.6083 -0.6684
  179SOPE  H15R20429   3.661   0.252   8.020  0.1825  1.9695 -1.4774
  179SOPE  H15S20430   3.713   0.325   8.183  1.0993 -1.8831 -0.1581
  179SOPE  C21620431   3.863   0.228   8.076 -0.1039  0.0503 -0.6118
  179SOPE  H16R20432   3.940   0.289   8.127 -0.1466 -1.1177  0.9208
  179SOPE  H16S20433   3.893   0.211   7.971  0.6715 -0.3892 -0.3260
  179SOPE  C21720434   3.862   0.101   8.167 -0.5403  0.1909  0.1472
  179SOPE  H17R20435   3.966   0.062   8.157  0.1046  1.8362  0.1035
  179SOPE  H17S20436   3.792   0.024   8.127 -0.4903 -0.7527  1.7988
  179SOPE  C21820437   3.843   0.111   8.317 -0.3762 -0.5367 -0.1370
  179SOPE  H18R20438   3.897   0.199   8.357 -1.1342  0.2340 -0.7573
  179SOPE  H18S20439   3.857   0.016   8.372  2.6331  1.0995  2.1647
  179SOPE  H18T20440   3.738   0.145   8.330  0.6430  2.8397  0.2955
  179SOPE   C3320441   4.769   0.672   6.758 -0.1099  0.0789  0.1788
  179SOPE   H3X20442   4.838   0.751   6.721  0.4566 -0.5576 -0.1597
  179SOPE   H3Y20443   4.831   0.580   6.771  1.1882  0.6731 -1.4040
  179SOPE   C3420444   4.698   0.714   6.888 -0.5189  0.2967 -0.3369
  179SOPE   H4X20445   4.604   0.655   6.898 -0.6441  0.3097 -1.2931
  179SOPE   H4Y20446   4.659   0.818   6.879 -2.5626 -0.4013 -0.0851
  179SOPE   C3520447   4.791   0.696   7.014  0.2975  0.6286  0.0407
  179SOPE   H5X20448   4.879   0.763   7.003  1.1468  0.3214  3.7429
  179SOPE   H5Y20449   4.814   0.589   7.034 -3.9275 -1.1034 -2.9208
  179SOPE   C3620450   4.725   0.751   7.142 -0.0404  0.2698 -0.5552
  179SOPE   H6X20451   4.622   0.710   7.148  0.5958 -1.1586  1.4553
  179SOPE   H6Y20452   4.731   0.862   7.137  0.8806  0.2042 -1.0285
  179SOPE   C3720453   4.799   0.706   7.262 -0.4751  0.1649  0.7437
  179SOPE   H7X20454   4.902   0.747   7.250  0.3114 -1.9210 -0.0521
  179SOPE   H7Y20455   4.819   0.597   7.272  0.8256  0.3647  0.4077
  179SOPE   C3820456   4.738   0.759   7.393 -0.0692  0.0209  0.0867
  179SOPE   H8X20457   4.640   0.710   7.410 -0.2159  0.9193  2.1251
  179SOPE   H8Y20458   4.711   0.866   7.394 -0.6368 -0.0852  2.7176
  179SOPE   C3920459   4.825   0.733   7.510 -0.1972  0.6816 -0.7657
  179SOPE   H9X20460   4.843   0.626   7.536  1.4732  1.7163  3.0843
  179SOPE   H9Y20461   4.770   0.775   7.597  0.8705  1.8789 -0.6357
  179SOPE  C31020462   4.961   0.802   7.528  0.1541 -0.1156  0.0281
  179SOPE  H10X20463   4.955   0.913   7.522 -1.4949 -0.1551  0.4925
  179SOPE  H10Y20464   5.023   0.767   7.442 -1.0207 -2.6110  0.0907
  179SOPE  C31120465   5.053   0.761   7.640  0.4641  0.7778 -0.1054
  179SOPE  H11X20466   4.994   0.753   7.733 -0.8654 -2.4838 -1.0990
  179SOPE  H11Y20467   5.135   0.834   7.659 -0.3351  1.5726  0.3311
  179SOPE  C31220468   5.133   0.622   7.618 -0.1112 -0.5978 -0.3283
  179SOPE  H12X20469   5.077   0.577   7.532 -0.1717 -0.3010 -0.4462
  179SOPE  H12Y20470   5.123   0.562   7.711 -0.7052 -1.7608 -1.1068
  179SOPE  C31320471   5.280   0.647   7.582  0.8914 -0.0868  0.4950
  179SOPE  H13X20472   5.336   0.552   7.574 -1.5577 -1.8487  2.3947
  179SOPE  H13Y20473   5.329   0.710   7.660 -0.5279  3.5368 -1.2822
  179SOPE  C31420474   5.299   0.725   7.453  0.2322 -0.6779  0.2441
  179SOPE  H14X20475   5.404   0.761   7.446  0.2831 -0.9939 -0.8551
  179SOPE  H14Y20476   5.229   0.812   7.453 -0.1026 -0.8811  2.6923
  179SOPE  C31520477   5.282   0.636   7.325 -0.3824 -0.1675  0.0094
  179SOPE  H15X20478   5.176   0.605   7.312 -0.0222 -1.1161 -0.7875
  179SOPE  H15Y20479   5.345   0.546   7.337 -1.1200 -0.4586  2.1680
  179SOPE  C31620480   5.303   0.707   7.189 -0.1281 -0.6945 -0.4292
  179SOPE  H16X20481   5.408   0.743   7.186 -0.3590  0.1213  0.7163
  179SOPE  H16Y20482   5.247   0.802   7.203 -0.9623 -1.0835 -0.9718
  179SOPE  C31720483   5.264   0.612   7.069 -0.2435 -0.4264  0.5302
  179SOPE  H17X20484   5.156   0.586   7.064 -0.4927  0.7317 -0.7614
  179SOPE  H17Y20485   5.320   0.517   7.083 -0.1964 -0.3733  0.6985
  179SOPE  C31820486   5.295   0.682   6.934  0.3461 -0.1608 -0.2599
  179SOPE  H18X20487   5.401   0.674   6.903  0.3301 -1.6518  0.0237
  179SOPE  H18Y20488   5.267   0.790   6.938 -0.5763 -0.4242  2.7658
  179SOPE  H18Z20489   5.231   0.643   6.852  0.2338 -2.2859  0.7830
  180SOPE     N20490   3.820   2.075   6.217 -0.4398 -0.4173 -0.4234
  180SOPE   HN120491   3.748   2.025   6.161 -0.3317 -1.0749 -0.0031
  180SOPE   HN220492   3.795   2.175   6.213 -0.4699 -0.3619  0.7465
  180SOPE   HN320493   3.914   2.073   6.173  0.5941  1.5712  1.4846
  180SOPE   C1220494   3.844   2.016   6.358  0.2348 -0.3588  0.5745
  180SOPE  H12A20495   3.747   2.025   6.413  1.4074 -0.6613  2.8060
  180SOPE  H12B20496   3.921   2.087   6.396 -0.3122  1.1420 -0.9633
  180SOPE   C1120497   3.886   1.868   6.361 -0.4825 -0.8300  0.6564
  180SOPE  H11A20498   3.812   1.803   6.308 -0.9702 -0.6766  1.1402
  180SOPE  H11B20499   3.878   1.848   6.470  0.6893  2.2465  1.4017
  180SOPE     P20500   4.131   1.800   6.384 -0.1666  0.2607  0.1265
  180SOPE   O1320501   4.249   1.847   6.310  0.2412  0.3527  0.3662
  180SOPE   O1420502   4.094   1.660   6.399 -0.6543 -0.2278  0.4486
  180SOPE   O1220503   4.012   1.864   6.308 -0.1041 -0.1786  0.8139
  180SOPE   O1120504   4.116   1.872   6.521  0.4917 -0.1859  0.3121
  180SOPE    C120505   4.141   1.999   6.559  0.2372  0.0446  0.2445
  180SOPE    HA20506   4.053   2.048   6.604 -0.4064 -0.1008 -0.8454
  180SOPE    HB20507   4.167   2.070   6.478 -1.6786  2.3443  1.5234
  180SOPE    C220508   4.256   1.991   6.669  0.3593 -0.0556 -0.4455
  180SOPE    HS20509   4.343   1.955   6.610  1.7838 -0.1303  1.5921
  180SOPE   O2120510   4.219   1.902   6.776  0.5488 -0.2961  0.2177
  180SOPE   C2120511   4.318   1.842   6.830  0.9088 -0.1190 -1.0914
  180SOPE   O2220512   4.432   1.855   6.809  0.3390 -0.8729 -0.0863
  180SOPE   C2220513   4.266   1.772   6.953 -0.1220 -0.0326 -0.2425
  180SOPE   H2R20514   4.163   1.737   6.930 -0.7812  0.3837  1.8133
  180SOPE   H2S20515   4.258   1.844   7.038  1.3434  0.6542 -0.6588
  180SOPE    C320516   4.284   2.128   6.713  0.6284 -0.0990  0.4016
  180SOPE    HX20517   4.186   2.167   6.749  0.0222 -0.5208 -0.7226
  180SOPE    HY20518   4.309   2.200   6.633 -0.6843  0.5318  0.5228
  180SOPE   O3120519   4.368   2.143   6.823  0.2836 -0.2347 -0.1952
  180SOPE   C3120520   4.499   2.162   6.805  0.4795  0.2162  0.4042
  180SOPE   O3220521   4.552   2.175   6.694  0.1344 -0.3482  0.0040
  180SOPE   C3220522   4.573   2.165   6.935  0.6285 -0.0635  0.1087
  180SOPE   H2X20523   4.542   2.261   6.982 -1.0184 -0.2325 -0.5542
  180SOPE   H2Y20524   4.681   2.175   6.913  0.5800  2.1346  0.6102
  180SOPE   C2320525   4.354   1.647   7.006 -0.4026 -0.6004  0.7718
  180SOPE   H3R20526   4.450   1.689   7.044 -0.0572 -0.2007 -0.4713
  180SOPE   H3S20527   4.365   1.583   6.916 -3.6701  1.6311 -1.4750
  180SOPE   C2420528   4.288   1.560   7.112  0.9089 -0.0847 -0.1085
  180SOPE   H4R20529   4.182   1.541   7.086  0.5701  2.6350 -0.9987
  180SOPE   H4S20530   4.351   1.469   7.122  1.0835 -0.1207 -1.3630
  180SOPE   C2520531   4.295   1.630   7.250  0.0090  0.2482  0.1432
  180SOPE   H5R20532   4.401   1.649   7.276 -0.0177 -0.9936  1.2559
  180SOPE   H5S20533   4.238   1.726   7.249 -0.2296  0.1114 -1.1545
  180SOPE   C2620534   4.252   1.531   7.368 -0.3440 -0.7105  0.3184
  180SOPE   H6R20535   4.145   1.502   7.362 -1.2016  0.9204  4.7290
  180SOPE   H6S20536   4.315   1.439   7.366 -0.8612 -1.0874  0.9793
  180SOPE   C2720537   4.259   1.603   7.502  0.1520  0.0245 -0.3441
  180SOPE   H7R20538   4.369   1.614   7.518  0.3864  1.6149 -2.6310
  180SOPE   H7S20539   4.210   1.700   7.478 -0.5061 -0.2166  0.0121
  180SOPE   C2820540   4.184   1.534   7.616  0.3493 -0.1240 -0.0623
  180SOPE   H8R20541   4.080   1.571   7.607  0.8896  1.0398 -2.3436
  180SOPE   H8S20542   4.197   1.426   7.596  2.3842  0.2343 -0.9563
  180SOPE   C2920543   4.235   1.577   7.748  0.3267  0.3908 -0.0836
  180SOPE   H9120544   4.289   1.673   7.753  0.7529  0.1742 -0.5018
  180SOPE  C21020545   4.224   1.516   7.865 -0.0040  0.4806  0.3778
  180SOPE  H10120546   4.276   1.557   7.954  1.0150 -1.0576  0.5375
  180SOPE  C21120547   4.154   1.377   7.887 -0.1245  0.1128  0.4340
  180SOPE  H11R20548   4.121   1.324   7.795  2.1270  1.2339 -1.1037
  180SOPE  H11S20549   4.072   1.411   7.954  0.5738  1.1943  0.7676
  180SOPE  C21220550   4.248   1.270   7.960  0.1452  0.1038 -0.1758
  180SOPE  H12R20551   4.316   1.308   8.040  0.8127 -1.6401  0.1231
  180SOPE  H12S20552   4.315   1.223   7.886 -0.8236 -0.1439 -0.9120
  180SOPE  C21320553   4.172   1.151   8.014  0.0114  0.2844  0.1929
  180SOPE  H13R20554   4.098   1.114   7.940 -1.7703  2.7049  0.6554
  180SOPE  H13S20555   4.122   1.175   8.110 -1.5383  0.5677 -0.6569
  180SOPE  C21420556   4.258   1.029   8.040 -0.3581  0.1326  0.1206
  180SOPE  H14R20557   4.359   1.056   8.077  0.6720  0.6704 -2.8592
  180SOPE  H14S20558   4.267   0.986   7.938 -3.1835  0.0905 -0.1918
  180SOPE  C21520559   4.193   0.925   8.138 -0.5750  0.1447 -0.0628
  180SOPE  H15R20560   4.098   0.884   8.098  0.5072 -1.3430 -1.2022
  180SOPE  H15S20561   4.159   0.964   8.237  0.5909 -0.5221  0.6188
  180SOPE  C21620562   4.285   0.808   8.164 -0.0291 -0.0915  0.4640
  180SOPE  H16R20563   4.371   0.844   8.225  0.7184 -0.6894 -0.2207
  180SOPE  H16S20564   4.323   0.771   8.066 -0.2803  0.6273  0.0910
  180SOPE  C21720565   4.216   0.702   8.245  0.1172 -0.0921  0.6745
  180SOPE  H17R20566   4.162   0.758   8.325 -1.2713 -0.2812 -0.1049
  180SOPE  H17S20567   4.299   0.644   8.291  1.6726  2.0016  0.6974
  180SOPE  C21820568   4.122   0.616   8.160 -0.4605  0.2104 -0.3219
  180SOPE  H18R20569   4.178   0.554   8.087  1.2716 -0.2690  1.3519
  180SOPE  H18S20570   4.046   0.687   8.121 -0.4370  1.3625  1.6308
  180SOPE  H18T20571   4.078   0.539   8.226  0.6712  1.7750  2.4209
  180SOPE   C3320572   4.558   2.041   7.022 -0.1005 -0.8818  0.0847
  180SOPE   H3X20573   4.604   1.951   6.977  0.0578 -0.4218 -0.6866
  180SOPE   H3Y20574   4.448   2.027   7.035 -0.1143  0.1251  1.3262
  180SOPE   C3420575   4.614   2.071   7.156 -0.3135 -0.0781  0.1325
  180SOPE   H4X20576   4.586   2.170   7.198 -0.0025 -1.0933  2.9633
  180SOPE   H4Y20577   4.724   2.075   7.145  0.1010 -1.1646  3.0500
  180SOPE   C3520578   4.558   1.971   7.260 -0.3339  0.1973  0.3653
  180SOPE   H5X20579   4.569   1.869   7.216 -2.2641  0.0997 -0.0048
  180SOPE   H5Y20580   4.451   1.995   7.281 -0.3155  0.8992 -0.3021
  180SOPE   C3620581   4.641   1.978   7.385 -0.2531 -0.2086 -0.0034
  180SOPE   H6X20582   4.627   2.082   7.422  0.7105 -0.7364  1.9881
  180SOPE   H6Y20583   4.750   1.973   7.362 -0.3477  1.7106 -1.1043
  180SOPE   C3720584   4.599   1.872   7.480  0.1733 -0.7212 -0.6179
  180SOPE   H7X20585   4.648   1.775   7.457 -1.3574 -1.9368  1.0557
  180SOPE   H7Y20586   4.493   1.842   7.471  0.5809 -1.9489 -1.5636
  180SOPE   C3820587   4.627   1.909   7.629 -0.8451 -0.1508  0.8993
  180SOPE   H8X20588   4.570   1.998   7.663  0.1566  0.0917  1.9924
  180SOPE   H8Y20589   4.737   1.921   7.639 -0.6087  0.0718 -1.3946
  180SOPE   C3920590   4.576   1.800   7.724  0.3135 -0.3537 -0.2116
  180SOPE   H9X20591   4.575   1.699   7.677  1.7604 -0.6740  0.3819
  180SOPE   H9Y20592   4.468   1.820   7.739  0.3879 -0.0850 -0.0225
  180SOPE  C31020593   4.646   1.802   7.862  0.1868  0.4177 -0.0323
  180SOPE  H10X20594   4.651   1.909   7.893  0.1146  0.3286  0.2914
  180SOPE  H10Y20595   4.741   1.747   7.847 -0.9280 -2.1140  1.4462
  180SOPE  C31120596   4.561   1.723   7.968  0.4027  0.0752  0.5370
  180SOPE  H11X20597   4.551   1.617   7.937  3.3910 -0.7567  2.0358
  180SOPE  H11Y20598   4.459   1.765   7.977  0.2242  0.1311 -1.4620
  180SOPE  C31220599   4.628   1.705   8.101  0.8409  0.1179 -0.3123
  180SOPE  H12X20600   4.629   1.801   8.158 -1.0893  1.5026 -2.4084
  180SOPE  H12Y20601   4.730   1.666   8.084  1.0291  0.6432 -0.4171
  180SOPE  C31320602   4.559   1.614   8.197  0.3499  0.2292  0.3028
  180SOPE  H13X20603   4.547   1.511   8.159  0.0136  0.3647  0.0320
  180SOPE  H13Y20604   4.451   1.641   8.206  0.4927  0.6632  0.7581
  180SOPE  C31420605   4.618   1.581   8.340 -0.1243 -0.3428 -0.3154
  180SOPE  H14X20606   4.724   1.551   8.326 -0.3394 -1.8647  1.0382
  180SOPE  H14Y20607   4.548   1.504   8.379  0.4011 -0.1288  1.1240
  180SOPE  C31520608   4.619   1.707   8.443 -0.1817  0.8470  0.5558
  180SOPE  H15X20609   4.605   1.665   8.545 -3.5787  2.8316  1.0871
  180SOPE  H15Y20610   4.526   1.761   8.415 -1.1472 -0.3522  1.3313
  180SOPE  C31620611   4.739   1.805   8.427 -0.3085 -0.5869 -0.4468
  180SOPE  H16X20612   4.764   1.838   8.324 -0.0378 -1.8680 -0.8025
  180SOPE  H16Y20613   4.827   1.747   8.462  2.6128  1.1228 -4.2784
  180SOPE  C31720614   4.720   1.924   8.524 -0.0076  0.0487  0.0448
  180SOPE  H17X20615   4.688   1.872   8.616  4.0296 -1.8056  0.6050
  180SOPE  H17Y20616   4.650   2.001   8.484 -1.1019 -0.7071  0.4501
  180SOPE  C31820617   4.848   1.996   8.582  0.2205 -0.1035  0.1639
  180SOPE  H18X20618   4.914   1.930   8.642 -0.3822 -1.2143 -0.3583
  180SOPE  H18Y20619   4.828   2.075   8.658 -0.3410 -0.4445  0.3844
  180SOPE  H18Z20620   4.895   2.050   8.497 -1.7991  0.5849 -0.5773
  181SOPE     N20621   5.643   0.009   5.822 -0.1525 -0.0942 -0.5454
  181SOPE   HN120622   5.551   0.025   5.868 -0.8138 -1.3895 -1.3527
  181SOPE   HN220623   5.644   0.030   5.720 -0.0410 -1.9763 -0.9817
  181SOPE   HN320624   5.659  -0.094   5.831  0.2463  0.1416  2.2050
  181SOPE   C1220625   5.748   0.080   5.896 -0.7034  0.6839  0.3171
  181SOPE  H12A20626   5.716   0.186   5.909  0.9060  1.1678  0.6003
  181SOPE  H12B20627   5.834   0.072   5.826 -1.2636  0.3107 -0.3350
  181SOPE   C1120628   5.783   0.015   6.030 -0.0142 -0.0649 -0.4169
  181SOPE  H11A20629   5.703   0.032   6.106  0.6937 -1.7267  0.7569
  181SOPE  H11B20630   5.871   0.055   6.084  0.1714 -0.1265 -0.6756
  181SOPE     P20631   5.859  -0.233   6.097  0.4392 -0.0059 -0.0682
  181SOPE   O1320632   5.991  -0.190   6.142  0.1221 -0.0892  0.2441
  181SOPE   O1420633   5.851  -0.367   6.031  0.8043  0.0996  0.0040
  181SOPE   O1220634   5.795  -0.126   5.999 -0.6944 -0.3304  0.3464
  181SOPE   O1120635   5.770  -0.224   6.226 -0.1865  0.3061 -0.3104
  181SOPE    C120636   5.631  -0.266   6.247  0.4057 -0.1708  0.1984
  181SOPE    HA20637   5.599  -0.313   6.152  0.3728 -1.9013  1.0248
  181SOPE    HB20638   5.566  -0.178   6.268 -1.3495 -1.5864  0.9498
  181SOPE    C220639   5.613  -0.359   6.363 -0.4458 -0.1000  0.4795
  181SOPE    HS20640   5.509  -0.395   6.374  0.0390 -1.5248  0.6042
  181SOPE   O2120641   5.673  -0.313   6.483 -0.0235  0.2007  0.2886
  181SOPE   C2120642   5.595  -0.228   6.549  0.0698  0.7139 -0.2825
  181SOPE   O2220643   5.496  -0.181   6.507  0.1860 -0.1622 -0.1031
  181SOPE   C2220644   5.651  -0.208   6.687  0.0541  0.0719 -0.2071
  181SOPE   H2R20645   5.675  -0.102   6.710 -1.2973  0.1824  0.8259
  181SOPE   H2S20646   5.751  -0.254   6.698  0.8866  1.9230  0.3393
  181SOPE    C320647   5.688  -0.496   6.344 -0.2198 -0.0815 -0.0597
  181SOPE    HX20648   5.792  -0.481   6.306 -0.4459  2.6555  0.1999
  181SOPE    HY20649   5.636  -0.542   6.257 -3.7560  2.4567  0.4921
  181SOPE   O3120650   5.682  -0.583   6.460  0.3302  0.3574  0.1657
  181SOPE   C3120651   5.794  -0.600   6.520  0.2639  0.5376  0.2442
  181SOPE   O3220652   5.904  -0.552   6.495  0.6192  0.0768 -0.1991
  181SOPE   C3220653   5.766  -0.699   6.632  0.2682 -0.0444  0.2467
  181SOPE   H2X20654   5.796  -0.799   6.593  0.2234 -0.2832  0.8046
  181SOPE   H2Y20655   5.658  -0.686   6.655  0.2554  2.3111 -0.8609
  181SOPE   C2320656   5.539  -0.269   6.785 -0.4504 -0.1906 -0.1286
  181SOPE   H3R20657   5.554  -0.379   6.786  1.0185 -0.0074 -0.1471
  181SOPE   H3S20658   5.432  -0.247   6.762 -0.1255  0.9561 -0.6155
  181SOPE   C2420659   5.561  -0.213   6.928 -0.5759  0.1166 -0.4348
  181SOPE   H4R20660   5.668  -0.226   6.956 -0.7275 -1.8191 -0.5685
  181SOPE   H4S20661   5.535  -0.106   6.924  1.2276  0.5791 -0.5241
  181SOPE   C2520662   5.495  -0.295   7.036  0.0829  0.2310 -0.0855
  181SOPE   H5R20663   5.389  -0.314   7.010  0.4380 -2.0900 -0.0397
  181SOPE   H5S20664   5.538  -0.397   7.050  0.0461  0.3110  0.6928
  181SOPE   C2620665   5.498  -0.224   7.176 -0.4077 -0.1961  0.5101
  181SOPE   H6R20666   5.586  -0.237   7.242  0.2179  0.5591 -0.1509
  181SOPE   H6S20667   5.509  -0.118   7.144  1.2151 -0.6594 -0.6228
  181SOPE   C2720668   5.375  -0.246   7.257  0.8113 -0.1037 -0.9786
  181SOPE   H7R20669   5.288  -0.199   7.207  0.7836 -0.2100 -1.0308
  181SOPE   H7S20670   5.361  -0.356   7.251 -0.3615  0.0458 -1.1480
  181SOPE   C2820671   5.376  -0.196   7.403 -0.0484 -0.0034  0.4921
  181SOPE   H8R20672   5.452  -0.254   7.460 -0.8841 -0.6509  0.9602
  181SOPE   H8S20673   5.419  -0.093   7.396  2.2323 -0.9051  0.4613
  181SOPE   C2920674   5.251  -0.180   7.492 -0.2285 -0.0013  0.0083
  181SOPE   H9120675   5.178  -0.101   7.473  0.2954  0.0265 -2.1211
  181SOPE  C21020676   5.220  -0.259   7.595  0.0061 -0.1145 -0.3691
  181SOPE  H10120677   5.130  -0.229   7.650  0.9051  1.2400  0.4452
  181SOPE  C21120678   5.293  -0.376   7.652  0.3608  0.2874  0.2117
  181SOPE  H11R20679   5.400  -0.361   7.624  0.4178  2.3813  1.3443
  181SOPE  H11S20680   5.246  -0.458   7.594 -1.0650  1.6728 -0.6626
  181SOPE  C21220681   5.268  -0.391   7.803  0.3399  0.2422 -0.5098
  181SOPE  H12R20682   5.284  -0.500   7.820 -1.5490 -0.0434 -0.3339
  181SOPE  H12S20683   5.162  -0.360   7.818 -0.2237 -0.1470 -3.2186
  181SOPE  C21320684   5.354  -0.292   7.887 -0.8422  0.3946 -0.0921
  181SOPE  H13R20685   5.335  -0.189   7.848  1.7633  0.5456 -1.1873
  181SOPE  H13S20686   5.462  -0.315   7.875 -1.3427 -0.7840 -3.1816
  181SOPE  C21420687   5.309  -0.287   8.039 -0.0121 -0.0665  0.4203
  181SOPE  H14R20688   5.395  -0.246   8.097  0.1147 -0.2045  0.3325
  181SOPE  H14S20689   5.303  -0.395   8.063  1.1527 -0.5117 -1.1324
  181SOPE  C21520690   5.189  -0.204   8.068 -0.1540  0.1788  0.0448
  181SOPE  H15R20691   5.099  -0.241   8.013  0.7541 -1.2865 -0.5005
  181SOPE  H15S20692   5.203  -0.099   8.034  2.1029 -0.3394 -0.7926
  181SOPE  C21620693   5.163  -0.189   8.216 -0.4584  0.0774  0.3900
  181SOPE  H16R20694   5.250  -0.137   8.263 -0.7687  1.4351 -0.4784
  181SOPE  H16S20695   5.149  -0.285   8.271  2.2912 -0.2556  0.6412
  181SOPE  C21720696   5.046  -0.102   8.253  0.0402  0.0455  0.1682
  181SOPE  H17R20697   5.016  -0.021   8.184 -6.2890 -0.6984  1.4389
  181SOPE  H17S20698   5.075  -0.050   8.347 -1.4890 -0.1027  0.7517
  181SOPE  C21820699   4.920  -0.181   8.285  0.0204 -0.3888  0.3101
  181SOPE  H18R20700   4.831  -0.117   8.299 -0.6192 -1.6974  2.9558
  181SOPE  H18S20701   4.935  -0.255   8.366  2.8008 -0.4553 -0.1520
  181SOPE  H18T20702   4.901  -0.241   8.193  0.8082  1.6810 -1.2879
  181SOPE   C3320703   5.832  -0.660   6.773 -0.4824  0.4170  0.6048
  181SOPE   H3X20704   5.828  -0.549   6.780 -0.9960  0.6004 -1.7083
  181SOPE   H3Y20705   5.941  -0.682   6.777 -0.1935  1.6314 -0.1874
  181SOPE   C3420706   5.765  -0.715   6.899 -0.1562 -0.1708  0.6167
  181SOPE   H4X20707   5.794  -0.822   6.909  0.8375  0.0672  0.3740
  181SOPE   H4Y20708   5.654  -0.715   6.892 -0.1621 -0.9399  0.6219
  181SOPE   C3520709   5.805  -0.660   7.033 -0.6325  0.6613 -0.4537
  181SOPE   H5X20710   5.809  -0.549   7.038 -2.2633  0.7685 -1.1883
  181SOPE   H5Y20711   5.913  -0.689   7.039 -0.4208  1.7234  1.4424
  181SOPE   C3620712   5.719  -0.710   7.152 -0.4204 -0.7953 -0.0938
  181SOPE   H6X20713   5.612  -0.712   7.124 -0.2207 -2.5434 -0.8586
  181SOPE   H6Y20714   5.736  -0.644   7.240 -1.7417 -1.1226  0.4279
  181SOPE   C3720715   5.756  -0.855   7.197  0.3163 -0.5107  0.2207
  181SOPE   H7X20716   5.849  -0.859   7.259  0.6665 -0.1510 -0.2650
  181SOPE   H7Y20717   5.783  -0.910   7.105 -3.0651  0.6019 -1.6005
  181SOPE   C3820718   5.637  -0.933   7.260  0.5004  0.1395 -0.1277
  181SOPE   H8X20719   5.562  -0.936   7.179 -0.0510 -0.8209  0.4039
  181SOPE   H8Y20720   5.581  -0.876   7.338  1.0602 -0.9665  1.1122
  181SOPE   C3920721   5.679  -1.075   7.301 -0.3023 -0.1007  0.0163
  181SOPE   H9X20722   5.780  -1.069   7.346 -0.4405 -3.0869  0.8890
  181SOPE   H9Y20723   5.682  -1.137   7.209  0.1694  1.4830 -1.0779
  181SOPE  C31020724   5.585  -1.142   7.402 -0.2511 -0.1448 -0.4612
  181SOPE  H10X20725   5.619  -1.246   7.422 -1.1915 -0.3622  0.0851
  181SOPE  H10Y20726   5.481  -1.137   7.364 -0.5339  1.4158  0.4082
  181SOPE  C31120727   5.587  -1.086   7.546 -0.1733  0.1203  0.2404
  181SOPE  H11X20728   5.548  -0.982   7.535 -0.1558  0.1789  0.7220
  181SOPE  H11Y20729   5.694  -1.084   7.575 -0.0745 -0.1562 -0.1004
  181SOPE  C31220730   5.511  -1.169   7.651 -0.6337  0.1791  0.0689
  181SOPE  H12X20731   5.554  -1.270   7.662  0.1048  0.6108  1.3567
  181SOPE  H12Y20732   5.416  -1.200   7.602  0.9743 -1.6846 -2.0781
  181SOPE  C31320733   5.474  -1.096   7.776  0.3636 -1.0651  0.2926
  181SOPE  H13X20734   5.444  -0.992   7.750  2.0917 -0.6335 -0.0914
  181SOPE  H13Y20735   5.570  -1.105   7.832  1.1013 -1.9176 -1.0632
  181SOPE  C31420736   5.363  -1.174   7.860  0.3060  0.7912 -1.5447
  181SOPE  H14X20737   5.274  -1.174   7.793 -0.9011 -1.7897 -0.1041
  181SOPE  H14Y20738   5.338  -1.111   7.948  4.8845  0.6154  0.1121
  181SOPE  C31520739   5.385  -1.324   7.899  0.0325  0.4455 -0.2240
  181SOPE  H15X20740   5.414  -1.371   7.803 -0.7252  1.7472 -1.1307
  181SOPE  H15Y20741   5.293  -1.365   7.946  0.1276  1.0269  0.4830
  181SOPE  C31620742   5.487  -1.354   8.008  0.8151  1.0541  0.1370
  181SOPE  H16X20743   5.588  -1.312   7.987  1.3147 -0.5549 -0.8787
  181SOPE  H16Y20744   5.496  -1.465   8.010 -2.0055  0.7277 -0.6927
  181SOPE  C31720745   5.454  -1.309   8.148  0.0621 -0.2504 -0.4996
  181SOPE  H17X20746   5.346  -1.335   8.160 -0.5412  0.6133 -3.2924
  181SOPE  H17Y20747   5.475  -1.202   8.168 -0.6956 -0.5357  2.2317
  181SOPE  C31820748   5.538  -1.388   8.253 -0.2265  0.4462  0.2625
  181SOPE  H18X20749   5.509  -1.357   8.355  1.1858 -1.5963  1.3677
  181SOPE  H18Y20750   5.647  -1.390   8.234 -0.6870 -0.8580 -2.9979
  181SOPE  H18Z20751   5.499  -1.492   8.248 -0.7180  0.6298  0.1913
  182SOPE     N20752   4.110   5.670   6.085  0.1659 -0.4394  0.2315
  182SOPE   HN120753   4.174   5.596   6.051  0.4238 -1.5194  2.8824
  182SOPE   HN220754   4.090   5.745   6.015 -2.6988  0.1465  1.5327
  182SOPE   HN320755   4.145   5.716   6.171  0.7302 -0.6555  0.1182
  182SOPE   C1220756   3.970   5.634   6.122  0.5124  0.4633  0.3924
  182SOPE  H12A20757   3.912   5.602   6.033 -0.4640 -0.7246  1.4230
  182SOPE  H12B20758   3.920   5.730   6.148  0.0911  0.5782 -0.7919
  182SOPE   C1120759   3.957   5.525   6.231 -0.4005  0.2271  0.1884
  182SOPE  H11A20760   3.852   5.535   6.266 -0.8398 -1.0009 -0.6981
  182SOPE  H11B20761   4.023   5.542   6.318  0.0811  0.4785 -0.2196
  182SOPE     P20762   3.867   5.297   6.145  0.0453 -0.1300  0.1526
  182SOPE   O1320763   3.929   5.173   6.099  0.1548  0.1679  0.2700
  182SOPE   O1420764   3.766   5.358   6.053  0.8085 -0.3349  0.1037
  182SOPE   O1220765   3.981   5.399   6.172  0.4364 -0.0347 -0.2559
  182SOPE   O1120766   3.794   5.276   6.287  0.2437 -0.2486  0.4367
  182SOPE    C120767   3.881   5.219   6.389  0.4985 -0.1772 -0.6712
  182SOPE    HA20768   3.990   5.239   6.383  0.5621  0.1796  1.0821
  182SOPE    HB20769   3.869   5.109   6.397  2.1053 -0.3829 -0.7035
  182SOPE    C220770   3.836   5.277   6.524  0.1870 -0.0965 -0.2214
  182SOPE    HS20771   3.726   5.268   6.528  0.2579 -0.6028  2.7731
  182SOPE   O2120772   3.863   5.420   6.508 -0.1996  0.3092  0.5098
  182SOPE   C2120773   3.772   5.497   6.577 -0.0997  0.4434 -0.6368
  182SOPE   O2220774   3.677   5.453   6.638  0.2070 -0.3839 -0.0238
  182SOPE   C2220775   3.823   5.641   6.596  0.9064  0.0335  0.3867
  182SOPE   H2R20776   3.862   5.678   6.499  1.1181  1.7098  1.0728
  182SOPE   H2S20777   3.913   5.620   6.659 -0.3032  1.1070  2.5947
  182SOPE    C320778   3.912   5.221   6.647 -0.2100  0.6494  0.5063
  182SOPE    HX20779   4.020   5.247   6.641 -0.5929  2.4553  0.7269
  182SOPE    HY20780   3.901   5.111   6.652  2.1316  0.3916  0.8885
  182SOPE   O3120781   3.861   5.268   6.778 -0.1342  0.4121  0.0232
  182SOPE   C3120782   3.742   5.221   6.816 -0.3507 -0.1918 -0.3235
  182SOPE   O3220783   3.673   5.144   6.756 -0.1151 -0.4022  0.0913
  182SOPE   C3220784   3.722   5.273   6.958  0.0354 -0.2244  0.7946
  182SOPE   H2X20785   3.638   5.346   6.957  0.0267 -0.1621 -2.4588
  182SOPE   H2Y20786   3.811   5.335   6.983 -0.3675  1.0949 -0.8985
  182SOPE   C2320787   3.727   5.741   6.662 -0.1747  0.2594  0.0854
  182SOPE   H3R20788   3.623   5.703   6.651  0.3641 -0.8362 -1.4046
  182SOPE   H3S20789   3.742   5.840   6.615 -0.9093  0.8034  0.9392
  182SOPE   C2420790   3.770   5.771   6.802  0.3057 -0.7120 -0.0775
  182SOPE   H4R20791   3.878   5.795   6.792 -0.1502  0.7706 -2.0950
  182SOPE   H4S20792   3.722   5.863   6.841 -0.2989 -0.7365 -0.7362
  182SOPE   C2520793   3.749   5.661   6.909  0.1311 -0.0700 -0.4518
  182SOPE   H5R20794   3.640   5.639   6.913 -0.0539  0.2664 -2.5171
  182SOPE   H5S20795   3.806   5.567   6.890  1.3203  0.1086  1.8679
  182SOPE   C2620796   3.809   5.696   7.050 -0.0404 -0.4536  1.3506
  182SOPE   H6R20797   3.917   5.721   7.045 -0.7102  2.6775 -0.1792
  182SOPE   H6S20798   3.762   5.793   7.079 -1.6521 -0.9092  0.3804
  182SOPE   C2720799   3.762   5.597   7.155 -0.0371  0.3307  0.2316
  182SOPE   H7R20800   3.657   5.567   7.135  0.6526 -0.5077 -2.6238
  182SOPE   H7S20801   3.819   5.505   7.129 -0.6100  0.0316  0.0139
  182SOPE   C2820802   3.795   5.645   7.300 -0.2469  0.3781 -0.4442
  182SOPE   H8R20803   3.783   5.755   7.313 -0.1585  0.1338  2.3529
  182SOPE   H8S20804   3.717   5.600   7.366  1.2855 -0.1355  1.0847
  182SOPE   C2920805   3.935   5.616   7.338 -0.2797  0.6692  0.2164
  182SOPE   H9120806   4.021   5.628   7.271  0.4796 -1.3906  0.7614
  182SOPE  C21020807   3.965   5.562   7.458  0.1021 -0.4313 -0.6539
  182SOPE  H10120808   4.070   5.541   7.484 -0.2755 -0.0641  1.3537
  182SOPE  C21120809   3.878   5.522   7.576  0.9558 -0.3753  0.5050
  182SOPE  H11R20810   3.937   5.458   7.646 -0.3326  0.3043  2.3137
  182SOPE  H11S20811   3.793   5.459   7.542  0.3926  0.4312  0.4034
  182SOPE  C21220812   3.819   5.632   7.667 -0.5756  0.3789  0.0785
  182SOPE  H12R20813   3.766   5.701   7.598  0.2786 -0.0863 -1.0787
  182SOPE  H12S20814   3.895   5.692   7.723 -0.5395 -0.5064  1.0059
  182SOPE  C21320815   3.722   5.568   7.760 -0.3242 -0.4139  0.4663
  182SOPE  H13R20816   3.765   5.500   7.836 -1.0361  0.3000  1.5371
  182SOPE  H13S20817   3.659   5.497   7.702 -0.8243 -1.9397  2.7484
  182SOPE  C21420818   3.638   5.677   7.834 -0.1688  0.2971 -0.2844
  182SOPE  H14R20819   3.568   5.719   7.759  0.2833  0.0207 -0.8691
  182SOPE  H14S20820   3.708   5.760   7.857 -1.2628  1.1668  0.0173
  182SOPE  C21520821   3.561   5.629   7.953 -0.6601  0.6064 -0.6164
  182SOPE  H15R20822   3.627   5.579   8.028 -0.1689  1.8994 -0.1501
  182SOPE  H15S20823   3.490   5.551   7.920 -0.6355  1.3026 -2.3948
  182SOPE  C21620824   3.477   5.735   8.019 -0.5936  0.5179  0.1460
  182SOPE  H16R20825   3.392   5.762   7.954  0.1089  0.3480 -0.8758
  182SOPE  H16S20826   3.551   5.814   8.045 -0.6510  0.4517  0.5150
  182SOPE  C21720827   3.410   5.679   8.145  0.5593  0.8723 -0.5692
  182SOPE  H17R20828   3.343   5.598   8.107 -1.8707  1.4627  2.0238
  182SOPE  H17S20829   3.336   5.749   8.191 -3.5857 -0.4144 -4.4609
  182SOPE  C21820830   3.511   5.631   8.251  0.8742 -0.0210 -0.4035
  182SOPE  H18R20831   3.600   5.697   8.248  0.8021  0.0962  0.0233
  182SOPE  H18S20832   3.532   5.525   8.227  1.0605 -0.0889  0.0686
  182SOPE  H18T20833   3.466   5.629   8.352  1.6940 -1.1039 -0.0554
  182SOPE   C3320834   3.717   5.156   7.054 -0.5809  0.0589  0.3655
  182SOPE   H3X20835   3.812   5.099   7.045  0.4804  2.0276 -2.0030
  182SOPE   H3Y20836   3.626   5.103   7.018 -0.5356 -1.1045  1.8606
  182SOPE   C3420837   3.693   5.200   7.205 -0.3571  0.2117 -0.1348
  182SOPE   H4X20838   3.595   5.252   7.217  0.2508  2.1516 -2.6719
  182SOPE   H4Y20839   3.770   5.279   7.218  0.6218 -0.5691 -1.0094
  182SOPE   C3520840   3.709   5.091   7.319  0.6326 -0.4061 -0.2823
  182SOPE   H5X20841   3.806   5.037   7.328  0.7870  0.0612  1.3175
  182SOPE   H5Y20842   3.620   5.024   7.322  0.4899 -0.2031  0.4965
  182SOPE   C3620843   3.712   5.167   7.457  0.0463  0.2579 -0.4377
  182SOPE   H6X20844   3.611   5.205   7.481 -0.1918 -1.8731  2.4274
  182SOPE   H6Y20845   3.785   5.251   7.452  0.4567  0.0822  1.5093
  182SOPE   C3720846   3.770   5.089   7.578 -0.2980 -0.2554 -0.1180
  182SOPE   H7X20847   3.878   5.064   7.570 -0.2357 -0.7477  1.8972
  182SOPE   H7Y20848   3.725   4.989   7.591  0.7741 -0.5093  1.9509
  182SOPE   C3820849   3.739   5.156   7.709 -0.8213  0.0938 -0.1571
  182SOPE   H8X20850   3.631   5.145   7.733 -0.8490  0.7173  0.0067
  182SOPE   H8Y20851   3.755   5.266   7.708 -2.2273  0.3158 -0.4238
  182SOPE   C3920852   3.810   5.079   7.833  0.3458  0.2524 -0.6132
  182SOPE   H9X20853   3.917   5.108   7.819  0.2645  0.6495 -0.4105
  182SOPE   H9Y20854   3.788   4.971   7.821 -4.8229  1.0172 -0.0267
  182SOPE  C31020855   3.760   5.119   7.976 -0.0737 -0.4950  0.7954
  182SOPE  H10X20856   3.664   5.076   8.013 -1.1875 -1.8839 -3.0922
  182SOPE  H10Y20857   3.746   5.229   7.978  0.0703 -0.4632  0.2167
  182SOPE  C31120858   3.857   5.083   8.085 -0.0795 -1.2164 -0.7201
  182SOPE  H11X20859   3.954   5.134   8.062 -0.0584 -0.6568  0.5375
  182SOPE  H11Y20860   3.876   4.976   8.064  2.7978 -0.9347 -0.0321
  182SOPE  C31220861   3.810   5.113   8.231 -0.1575 -0.2436 -0.2564
  182SOPE  H12X20862   3.877   5.066   8.305  0.7816  0.9153 -0.3431
  182SOPE  H12Y20863   3.713   5.062   8.252 -0.0641 -0.3758 -0.1479
  182SOPE  C31320864   3.812   5.262   8.255  0.1660 -0.3883 -0.6085
  182SOPE  H13X20865   3.730   5.311   8.199 -1.4069 -2.4655 -0.2502
  182SOPE  H13Y20866   3.908   5.312   8.229 -0.6100  1.0715 -0.7573
  182SOPE  C31420867   3.762   5.286   8.399 -0.0719  0.5954 -0.4425
  182SOPE  H14X20868   3.819   5.227   8.474 -1.4186  0.6293  0.6496
  182SOPE  H14Y20869   3.659   5.246   8.396  0.9095 -2.3328  1.2714
  182SOPE  C31520870   3.764   5.430   8.443 -0.2466 -0.0002  1.1182
  182SOPE  H15X20871   3.719   5.500   8.369 -1.0252 -1.9619 -0.3392
  182SOPE  H15Y20872   3.865   5.469   8.468 -0.8818  3.1757 -0.6903
  182SOPE  C31620873   3.697   5.435   8.578  0.0413  0.2222  0.4381
  182SOPE  H16X20874   3.740   5.345   8.626 -0.6313 -0.2189  0.2376
  182SOPE  H16Y20875   3.589   5.411   8.562  0.2628  1.5428 -4.7122
  182SOPE  C31720876   3.726   5.563   8.654 -0.2625 -0.5518  0.0228
  182SOPE  H17X20877   3.660   5.648   8.626 -1.1040 -1.3761 -0.5550
  182SOPE  H17Y20878   3.835   5.585   8.646 -0.4032  0.5784  0.9669
  182SOPE  C31820879   3.694   5.536   8.802  0.6196  0.3833 -0.2282
  182SOPE  H18X20880   3.596   5.483   8.804  1.6805 -1.7497 -1.0004
  182SOPE  H18Y20881   3.696   5.635   8.852  2.8254 -0.4193  1.4617
  182SOPE  H18Z20882   3.766   5.470   8.856 -0.8498  1.5747  3.5203
  183SOPE     N20883   2.440   3.619   6.149 -0.4318  0.6814  0.1667
  183SOPE   HN120884   2.485   3.687   6.084 -0.5803  0.9056  0.2962
  183SOPE   HN220885   2.473   3.523   6.126  0.2891  0.9758 -0.0819
  183SOPE   HN320886   2.340   3.616   6.121 -0.2222 -1.2445 -0.5142
  183SOPE   C1220887   2.469   3.661   6.287 -0.2743 -0.1770  0.4529
  183SOPE  H12A20888   2.441   3.578   6.354 -1.6918  0.0009  0.1014
  183SOPE  H12B20889   2.399   3.744   6.311 -0.7419 -0.8774  1.5505
  183SOPE   C1120890   2.618   3.679   6.300 -0.7059 -0.2111 -0.6905
  183SOPE  H11A20891   2.644   3.695   6.407  3.7518  1.8339 -1.8499
  183SOPE  H11B20892   2.636   3.784   6.266 -0.1549  0.1500  0.6413
  183SOPE     P20893   2.849   3.584   6.233 -0.4640  0.3807 -0.4361
  183SOPE   O1320894   2.902   3.643   6.108  0.4074 -0.0461 -0.3561
  183SOPE   O1420895   2.889   3.442   6.263 -0.0863 -0.3511 -0.1363
  183SOPE   O1220896   2.696   3.582   6.229  1.1535  0.2285 -0.5042
  183SOPE   O1120897   2.884   3.676   6.361 -0.8109 -0.6226  0.4021
  183SOPE    C120898   2.953   3.806   6.347  0.0434 -0.3523 -0.4152
  183SOPE    HA20899   2.885   3.894   6.342  0.5904  0.0229 -1.7852
  183SOPE    HB20900   3.024   3.809   6.262 -0.7488 -1.1036 -1.1085
  183SOPE    C220901   3.030   3.824   6.483 -0.1955  0.1326  0.3830
  183SOPE    HS20902   3.053   3.721   6.518 -0.6893 -0.4308 -0.9202
  183SOPE   O2120903   2.953   3.907   6.573 -0.3084  0.1467  0.7504
  183SOPE   C2120904   2.945   3.867   6.697 -0.3727  0.2018  0.4027
  183SOPE   O2220905   2.989   3.763   6.748 -0.1629  0.1316 -0.2453
  183SOPE   C2220906   2.883   3.976   6.779 -0.5709  0.0882 -0.5323
  183SOPE   H2R20907   2.776   3.981   6.748 -0.3518 -2.1043 -1.8908
  183SOPE   H2S20908   2.942   4.069   6.764  1.1361 -0.5973  1.5262
  183SOPE    C320909   3.158   3.907   6.469  0.0472  0.0304  0.3775
  183SOPE    HX20910   3.115   4.002   6.430 -3.5441 -1.2948  0.8004
  183SOPE    HY20911   3.234   3.856   6.405 -0.0124  0.5211 -0.0920
  183SOPE   O3120912   3.210   3.946   6.599 -0.5152  0.0275  0.2436
  183SOPE   C3120913   3.300   3.878   6.659  0.5499 -0.1472  0.3348
  183SOPE   O3220914   3.343   3.769   6.618 -0.0482 -0.2193 -0.2658
  183SOPE   C3220915   3.342   3.948   6.782 -0.7155  0.1946 -0.1711
  183SOPE   H2X20916   3.286   4.045   6.788 -1.3070 -0.0286 -1.5351
  183SOPE   H2Y20917   3.451   3.966   6.773 -0.5176 -1.0948 -0.4817
  183SOPE   C2320918   2.892   3.958   6.931  0.0788 -0.7010 -0.0048
  183SOPE   H3R20919   2.997   3.936   6.958  0.6735  1.4973 -0.3266
  183SOPE   H3S20920   2.835   3.875   6.979  1.7971 -1.0585  1.5500
  183SOPE   C2420921   2.852   4.081   7.009  0.1558 -0.2155 -0.5699
  183SOPE   H4R20922   2.888   4.170   6.952 -0.5326  0.2406 -0.3154
  183SOPE   H4S20923   2.743   4.079   7.030  0.3462 -2.3519  0.4675
  183SOPE   C2520924   2.920   4.090   7.146 -0.0614 -0.9734 -0.6393
  183SOPE   H5R20925   2.921   4.002   7.213  2.1369  1.5187  3.0062
  183SOPE   H5S20926   3.030   4.099   7.128  0.0220 -0.6294  0.0093
  183SOPE   C2620927   2.873   4.213   7.231 -0.0395 -0.3792  0.6393
  183SOPE   H6R20928   2.962   4.248   7.289  0.0982 -0.3194  0.3928
  183SOPE   H6S20929   2.848   4.302   7.170 -0.5962 -0.1552  1.1837
  183SOPE   C2720930   2.761   4.174   7.324  0.7781  0.6056 -0.2291
  183SOPE   H7R20931   2.668   4.164   7.263  0.0201  1.6430  0.7165
  183SOPE   H7S20932   2.781   4.081   7.381 -0.1291  1.0271  0.8177
  183SOPE   C2820933   2.733   4.283   7.423 -0.5701 -0.3574 -0.7876
  183SOPE   H8R20934   2.749   4.381   7.373 -0.3509 -0.8157 -1.6317
  183SOPE   H8S20935   2.624   4.285   7.443 -0.0491 -0.0391  2.5505
  183SOPE   C2920936   2.809   4.278   7.553  0.1363 -0.2469 -0.5274
  183SOPE   H9120937   2.918   4.273   7.547  0.1597 -1.2313  0.3886
  183SOPE  C21020938   2.755   4.233   7.664 -0.4804 -0.2069 -0.1631
  183SOPE  H10120939   2.825   4.233   7.749  0.7755 -1.7567 -1.1540
  183SOPE  C21120940   2.613   4.194   7.700  0.5869 -0.3866 -0.5341
  183SOPE  H11R20941   2.596   4.084   7.696 -0.8452 -0.1612 -1.3591
  183SOPE  H11S20942   2.542   4.228   7.621 -2.4224 -0.4826  1.9053
  183SOPE  C21220943   2.558   4.260   7.833 -0.3804 -0.0415 -0.7019
  183SOPE  H12R20944   2.447   4.266   7.830 -0.3523  3.3848  0.8446
  183SOPE  H12S20945   2.601   4.363   7.834  0.2871 -0.3056  1.5287
  183SOPE  C21320946   2.610   4.190   7.961 -0.0110  0.0691 -0.1699
  183SOPE  H13R20947   2.721   4.184   7.963 -0.0078 -1.1481 -1.8922
  183SOPE  H13S20948   2.578   4.084   7.954  0.4387 -0.2868  2.4240
  183SOPE  C21420949   2.553   4.251   8.084  1.0195 -0.0480  0.0280
  183SOPE  H14R20950   2.448   4.214   8.094  0.8320  0.5121  0.1936
  183SOPE  H14S20951   2.549   4.362   8.084 -1.7084 -0.0663  0.6070
  183SOPE  C21520952   2.632   4.200   8.205  0.2205  0.2405  0.0000
  183SOPE  H15R20953   2.732   4.248   8.196  0.0253  0.2496 -3.4962
  183SOPE  H15S20954   2.643   4.094   8.176 -1.0959  0.2483 -0.5965
  183SOPE  C21620955   2.552   4.213   8.333 -0.4337 -0.1996  0.4212
  183SOPE  H16R20956   2.609   4.174   8.420 -0.6972 -1.6689 -0.0402
  183SOPE  H16S20957   2.453   4.163   8.327 -0.0414 -1.1787  1.7341
  183SOPE  C21720958   2.537   4.363   8.385 -0.3468 -0.3267 -0.5748
  183SOPE  H17R20959   2.468   4.415   8.315  1.0525  1.7466 -0.4926
  183SOPE  H17S20960   2.639   4.405   8.375 -0.8144  0.4978 -2.3174
  183SOPE  C21820961   2.476   4.371   8.521  0.3327 -0.1825  0.2059
  183SOPE  H18R20962   2.457   4.476   8.552  0.6856  0.1214 -0.6025
  183SOPE  H18S20963   2.545   4.321   8.593  2.8964  2.1547 -0.4575
  183SOPE  H18T20964   2.381   4.313   8.525 -0.1376  0.6078  2.6130
  183SOPE   C3320965   3.314   3.863   6.903  0.7488 -0.5382 -0.1568
  183SOPE   H3X20966   3.370   3.769   6.925 -2.2177 -2.0408  1.5901
  183SOPE   H3Y20967   3.212   3.824   6.884  0.4697  0.6083 -1.1130
  183SOPE   C3420968   3.295   3.937   7.036 -0.4518  0.4004 -0.3009
  183SOPE   H4X20969   3.202   3.998   7.039  0.1647  1.4227 -0.9534
  183SOPE   H4Y20970   3.369   4.020   7.044  2.6870 -2.3300  1.1058
  183SOPE   C3520971   3.330   3.853   7.158  0.5120  0.6678 -0.7645
  183SOPE   H5X20972   3.426   3.799   7.145 -0.3993 -1.6160  1.3244
  183SOPE   H5Y20973   3.253   3.775   7.175  0.6026  0.1097 -2.7265
  183SOPE   C3620974   3.326   3.931   7.291 -0.1912  0.1511 -0.3561
  183SOPE   H6X20975   3.229   3.984   7.302 -0.6246 -0.4595 -1.0923
  183SOPE   H6Y20976   3.408   4.005   7.297  0.8994 -1.0491 -0.0620
  183SOPE   C3720977   3.334   3.829   7.404  0.2506 -0.2767 -1.6216
  183SOPE   H7X20978   3.418   3.757   7.401 -0.0789 -1.0234  2.1766
  183SOPE   H7Y20979   3.237   3.774   7.407 -1.1780  2.1189 -0.3329
  183SOPE   C3820980   3.327   3.905   7.534 -0.3799 -0.2720 -0.9327
  183SOPE   H8X20981   3.226   3.949   7.552 -0.3867  1.0186 -3.5491
  183SOPE   H8Y20982   3.397   3.991   7.540  0.3536 -0.9552  0.8994
  183SOPE   C3920983   3.360   3.803   7.645  0.2089 -0.0380  0.6177
  183SOPE   H9X20984   3.460   3.764   7.617 -0.2888 -2.0472  1.4798
  183SOPE   H9Y20985   3.286   3.721   7.632  0.6827 -0.3824  0.0568
  183SOPE  C31020986   3.347   3.860   7.792  0.3995  0.3093  0.2623
  183SOPE  H10X20987   3.364   3.766   7.849  0.0259 -2.3778 -3.6291
  183SOPE  H10Y20988   3.241   3.888   7.807  0.2017  0.0688 -0.6408
  183SOPE  C31120989   3.428   3.988   7.822 -0.0591  0.6651 -0.0121
  183SOPE  H11X20990   3.424   4.075   7.753  2.8538  2.1028  1.4150
  183SOPE  H11Y20991   3.537   3.967   7.821  0.1686  1.6391  1.5028
  183SOPE  C31220992   3.374   4.044   7.959 -0.6384 -0.3523  0.5681
  183SOPE  H12X20993   3.361   3.958   8.028  2.3897 -0.6639  0.8571
  183SOPE  H12Y20994   3.282   4.106   7.947 -0.2239  0.3265  0.8733
  183SOPE  C31320995   3.468   4.139   8.031  0.3592  0.5875  0.0475
  183SOPE  H13X20996   3.501   4.213   7.955  2.1316 -0.0737  0.1194
  183SOPE  H13Y20997   3.562   4.086   8.061  0.7449  0.5741 -1.1429
  183SOPE  C31420998   3.392   4.203   8.149 -0.4849  0.6639 -0.3294
  183SOPE  H14X20999   3.344   4.126   8.214 -1.6065  1.7327  0.1432
  183SOPE  H14Y21000   3.312   4.267   8.107 -1.1821  0.0390  0.0154
  183SOPE  C31521001   3.476   4.290   8.234 -0.0117  0.1010  0.1146
  183SOPE  H15X21002   3.523   4.369   8.172 -2.1927  0.6537 -0.9079
  183SOPE  H15Y21003   3.563   4.235   8.276  1.0476  2.1302  0.7199
  183SOPE  C31621004   3.394   4.355   8.339  0.0361  0.4641  0.2507
  183SOPE  H16X21005   3.349   4.279   8.407  0.1616  0.4630  0.3339
  183SOPE  H16Y21006   3.310   4.403   8.285  0.1489 -0.4934 -0.8146
  183SOPE  C31721007   3.477   4.464   8.420  0.4670  0.1178  0.4747
  183SOPE  H17X21008   3.503   4.547   8.352  0.0811 -0.2649 -0.1436
  183SOPE  H17Y21009   3.573   4.413   8.444 -0.0924 -1.5442 -0.6164
  183SOPE  C31821010   3.393   4.510   8.533  0.5915 -0.2023  0.0349
  183SOPE  H18X21011   3.301   4.561   8.498  1.8848  0.4632 -2.6289
  183SOPE  H18Y21012   3.456   4.576   8.597  1.7041 -2.1050  1.0104
  183SOPE  H18Z21013   3.375   4.425   8.602  1.9092  2.0278  3.3936
  184SOPE     N21014   5.251   0.451   6.455  0.3577 -0.1993  0.3529
  184SOPE   HN121015   5.328   0.427   6.520  1.3924  1.2840 -0.2785
  184SOPE   HN221016   5.153   0.456   6.488 -0.1777 -3.6337 -0.3378
  184SOPE   HN321017   5.262   0.378   6.381  2.1570  0.1804  0.1959
  184SOPE   C1221018   5.300   0.583   6.401 -0.5062  0.2262 -0.0234
  184SOPE  H12A21019   5.314   0.646   6.491  0.3930 -1.5171  1.1153
  184SOPE  H12B21020   5.220   0.624   6.335  0.4302  0.9733 -0.7238
  184SOPE   C1121021   5.418   0.565   6.311 -0.6780 -0.8853 -0.6105
  184SOPE  H11A21022   5.507   0.564   6.377 -0.8221 -0.3463 -0.4045
  184SOPE  H11B21023   5.417   0.661   6.254 -1.6742 -1.3059 -1.3372
  184SOPE     P21024   5.498   0.420   6.110  0.5821 -0.0004 -0.0877
  184SOPE   O1321025   5.512   0.531   6.017  0.1214  0.0340 -0.1677
  184SOPE   O1421026   5.462   0.278   6.066 -0.5849  0.0067  0.5380
  184SOPE   O1221027   5.404   0.452   6.225  0.2828  0.1774  0.3658
  184SOPE   O1121028   5.635   0.391   6.186  0.2096 -0.4504 -0.3906
  184SOPE    C121029   5.665   0.271   6.260  0.2422 -0.3136 -0.7748
  184SOPE    HA21030   5.773   0.242   6.257  0.3270 -0.8041  2.7849
  184SOPE    HB21031   5.607   0.187   6.217 -0.2631  0.8369 -2.4241
  184SOPE    C221032   5.616   0.265   6.415  0.2053  0.0851 -0.5122
  184SOPE    HS21033   5.515   0.312   6.419  0.7341  1.2932 -0.8032
  184SOPE   O2121034   5.708   0.342   6.503 -0.2557  0.5524 -0.2622
  184SOPE   C2121035   5.647   0.420   6.588  0.9456 -0.6191 -0.8683
  184SOPE   O2221036   5.527   0.454   6.589 -0.2808  0.0356  0.5382
  184SOPE   C2221037   5.749   0.458   6.696 -0.0159 -0.6827 -0.9458
  184SOPE   H2R21038   5.805   0.548   6.663 -0.4529  0.1422  0.4766
  184SOPE   H2S21039   5.817   0.370   6.705  0.7371 -0.0276 -0.1048
  184SOPE    C321040   5.594   0.123   6.464  0.1927  0.2438  0.1889
  184SOPE    HX21041   5.689   0.068   6.443 -0.6429 -1.1096 -0.2219
  184SOPE    HY21042   5.515   0.083   6.397 -0.5059  0.4427  0.8721
  184SOPE   O3121043   5.565   0.114   6.603 -0.2450 -0.7135 -0.3262
  184SOPE   C3121044   5.445   0.151   6.645  0.7162  0.8167  0.3012
  184SOPE   O3221045   5.353   0.203   6.577  0.2533  0.5804  0.4764
  184SOPE   C3221046   5.438   0.152   6.802 -0.0408  0.3512  0.4463
  184SOPE   H2X21047   5.517   0.220   6.840 -2.7303  3.0687  1.5896
  184SOPE   H2Y21048   5.454   0.048   6.837  0.4362  0.4960  0.6647
  184SOPE   C2321049   5.674   0.503   6.826  0.1028  0.2910 -0.4904
  184SOPE   H3R21050   5.601   0.427   6.861  3.2762 -2.0043  1.6865
  184SOPE   H3S21051   5.616   0.597   6.813  1.3133  1.3420  1.2968
  184SOPE   C2421052   5.768   0.534   6.943 -0.0050 -0.2779 -0.1193
  184SOPE   H4R21053   5.851   0.461   6.946 -0.1133 -0.4349 -0.8255
  184SOPE   H4S21054   5.828   0.625   6.925  0.2966 -0.6655 -1.1082
  184SOPE   C2521055   5.694   0.544   7.077  0.3493  0.1136 -0.0008
  184SOPE   H5R21056   5.633   0.636   7.078  0.3105  0.0881  1.0577
  184SOPE   H5S21057   5.627   0.455   7.075 -0.4250  0.6996 -0.3071
  184SOPE   C2621058   5.793   0.552   7.194 -0.5226 -0.0539 -0.8279
  184SOPE   H6R21059   5.872   0.474   7.199 -0.8561 -0.3213  0.7219
  184SOPE   H6S21060   5.852   0.647   7.196  3.3197 -2.1748  2.2157
  184SOPE   C2721061   5.703   0.538   7.325 -0.2699 -0.1999 -0.2211
  184SOPE   H7R21062   5.614   0.602   7.313  0.9721  1.3548 -1.6781
  184SOPE   H7S21063   5.682   0.430   7.337  2.3122 -0.8602 -0.9234
  184SOPE   C2821064   5.781   0.578   7.453 -0.0118 -0.7192  0.1043
  184SOPE   H8R21065   5.881   0.529   7.457  0.4825  0.3094  1.1309
  184SOPE   H8S21066   5.806   0.686   7.441  0.2626 -0.7243  0.6028
  184SOPE   C2921067   5.697   0.550   7.571 -0.8058  0.1168  0.5399
  184SOPE   H9121068   5.594   0.586   7.566 -1.1234 -0.8230  0.0734
  184SOPE  C21021069   5.741   0.481   7.675 -0.3721  0.1919 -0.0397
  184SOPE  H10121070   5.672   0.461   7.759  0.1727 -0.4646  0.2573
  184SOPE  C21121071   5.877   0.414   7.698  0.0335 -0.6054  0.6550
  184SOPE  H11R21072   5.954   0.436   7.621  0.6606 -2.4697  0.7058
  184SOPE  H11S21073   5.852   0.307   7.682 -1.2935  0.0663 -2.5310
  184SOPE  C21221074   5.952   0.425   7.836 -0.0489  0.2888  0.0945
  184SOPE  H12R21075   5.965   0.535   7.848 -1.4416  0.3631  1.1913
  184SOPE  H12S21076   6.056   0.386   7.840 -0.3019 -0.3667  0.3156
  184SOPE  C21321077   5.855   0.379   7.947  0.1963  0.3387  0.5221
  184SOPE  H13R21078   5.830   0.277   7.912 -1.1538  0.8368 -0.0153
  184SOPE  H13S21079   5.762   0.437   7.933 -1.4868 -2.7638 -2.5991
  184SOPE  C21421080   5.907   0.397   8.092 -0.2657 -0.3404  0.5260
  184SOPE  H14R21081   5.825   0.385   8.166  2.2559 -0.5875  3.4830
  184SOPE  H14S21082   5.948   0.500   8.104  1.0240 -0.9364  1.3925
  184SOPE  C21521083   6.019   0.298   8.130 -0.2525 -0.0529 -0.0926
  184SOPE  H15R21084   6.090   0.362   8.186 -0.7581 -0.8560  1.5023
  184SOPE  H15S21085   6.071   0.257   8.040 -0.6599 -0.4287 -0.1573
  184SOPE  C21621086   5.965   0.185   8.226 -0.9425 -0.6196 -0.5443
  184SOPE  H16R21087   5.892   0.116   8.178  2.1290 -3.5726 -1.3642
  184SOPE  H16S21088   5.916   0.248   8.303  1.4611  2.1885 -1.1441
  184SOPE  C21721089   6.079   0.101   8.283  0.2069  1.0736  0.3271
  184SOPE  H17R21090   6.045   0.041   8.371  0.7954  0.2177 -0.0119
  184SOPE  H17S21091   6.156   0.165   8.331  1.0126  0.2723  0.1471
  184SOPE  C21821092   6.142  -0.006   8.183  0.6445 -0.3105  0.1597
  184SOPE  H18R21093   6.216  -0.072   8.233 -0.1136 -1.9966 -0.8581
  184SOPE  H18S21094   6.177   0.051   8.094 -1.4682 -0.9694 -1.1540
  184SOPE  H18T21095   6.059  -0.068   8.143  1.0400 -0.7388 -0.0057
  184SOPE   C3321096   5.311   0.211   6.854 -0.7081  0.2821  0.1258
  184SOPE   H3X21097   5.231   0.163   6.794 -0.9697  0.3754  0.3989
  184SOPE   H3Y21098   5.300   0.321   6.845  1.3964  0.5131 -0.0569
  184SOPE   C3421099   5.294   0.167   7.001 -0.7350  0.1783  0.0741
  184SOPE   H4X21100   5.375   0.209   7.063 -1.3514 -0.6096  1.4785
  184SOPE   H4Y21101   5.310   0.057   7.001  1.1000  0.4205 -0.4245
  184SOPE   C3521102   5.156   0.206   7.060  0.2860  0.3094  0.2310
  184SOPE   H5X21103   5.069   0.165   7.005 -0.5720  0.3337  1.5413
  184SOPE   H5Y21104   5.150   0.316   7.044  1.5182  0.6186  1.6889
  184SOPE   C3621105   5.140   0.190   7.213  0.2119 -0.1368 -0.4487
  184SOPE   H6X21106   5.224   0.237   7.269 -0.8424 -0.4139  1.4474
  184SOPE   H6Y21107   5.141   0.081   7.234 -0.8933 -0.1139 -0.2563
  184SOPE   C3721108   5.015   0.255   7.261  0.1259 -0.2869  0.3146
  184SOPE   H7X21109   4.929   0.202   7.215  0.8967 -0.5986 -0.8162
  184SOPE   H7Y21110   5.010   0.364   7.238 -1.3357 -0.7314 -1.7324
  184SOPE   C3821111   5.004   0.254   7.416  0.7664 -0.6991 -0.0898
  184SOPE   H8X21112   5.076   0.328   7.458  0.1215 -0.4693  0.6509
  184SOPE   H8Y21113   5.016   0.150   7.454 -2.3782 -1.1911 -0.1911
  184SOPE   C3921114   4.865   0.311   7.462  0.1284  0.0857 -0.3626
  184SOPE   H9X21115   4.793   0.243   7.411  0.9174  0.1633 -1.6467
  184SOPE   H9Y21116   4.844   0.411   7.419 -0.0005 -0.4099 -1.5028
  184SOPE  C31021117   4.836   0.315   7.613 -0.2346 -0.1195 -0.1424
  184SOPE  H10X21118   4.907   0.391   7.653 -3.6104  2.5846  1.2038
  184SOPE  H10Y21119   4.858   0.217   7.662  0.0513 -1.3398 -2.5371
  184SOPE  C31121120   4.685   0.350   7.647 -0.1360 -0.1287  0.0996
  184SOPE  H11X21121   4.608   0.284   7.602 -1.3337  1.4578 -0.2877
  184SOPE  H11Y21122   4.671   0.445   7.592  4.1443  0.1840 -0.8099
  184SOPE  C31221123   4.664   0.364   7.795  0.1009 -0.3835 -0.1106
  184SOPE  H12X21124   4.735   0.433   7.844  0.0626  1.0642 -1.9916
  184SOPE  H12Y21125   4.675   0.266   7.848 -1.8724  0.8808  2.9579
  184SOPE  C31321126   4.525   0.425   7.823 -0.2894  0.1059  0.3589
  184SOPE  H13X21127   4.501   0.508   7.752  0.7354  1.0613  1.0819
  184SOPE  H13Y21128   4.522   0.452   7.931 -0.5925 -0.3825  0.4723
  184SOPE  C31421129   4.404   0.332   7.804  0.5727  0.0675  0.3028
  184SOPE  H14X21130   4.396   0.310   7.695 -2.3172 -1.3624  0.7179
  184SOPE  H14Y21131   4.308   0.385   7.822  0.3055  0.0981 -1.1195
  184SOPE  C31521132   4.400   0.196   7.882  0.7650 -0.4381  0.1672
  184SOPE  H15X21133   4.479   0.143   7.825  1.6130  2.7396 -1.8436
  184SOPE  H15Y21134   4.307   0.143   7.852  0.7452 -1.5525  2.0100
  184SOPE  C31621135   4.425   0.196   8.029 -0.1024 -0.0864 -0.2853
  184SOPE  H16X21136   4.521   0.252   8.038  0.0453 -0.0627 -1.7203
  184SOPE  H16Y21137   4.439   0.094   8.072 -0.7434 -0.8957 -1.9060
  184SOPE  C31721138   4.317   0.272   8.112  0.3658  0.0825  0.0544
  184SOPE  H17X21139   4.216   0.239   8.081  0.6883 -2.6295  1.5338
  184SOPE  H17Y21140   4.318   0.379   8.082 -0.5115  0.1851  0.3819
  184SOPE  C31821141   4.320   0.252   8.264  0.7716  0.2966 -0.4514
  184SOPE  H18X21142   4.422   0.274   8.303  0.3172  0.5583  0.6440
  184SOPE  H18Y21143   4.304   0.145   8.291  1.3683  0.7991  2.1779
  184SOPE  H18Z21144   4.245   0.313   8.318  0.9380  0.5325 -0.4879
  185SAPI   C1221145   4.961   1.955  10.720  0.6732  0.4452 -1.1557
  185SAPI    H221146   4.911   1.937  10.623  2.0405 -1.7100 -1.5378
  185SAPI    O221147   5.077   1.867  10.723 -0.1304 -0.5309  0.2110
  185SAPI   HO221148   5.044   1.776  10.721 -1.2047 -0.1375 -1.0853
  185SAPI   C1321149   4.994   2.100  10.738 -0.2234  0.0155  0.2889
  185SAPI    H321150   4.898   2.156  10.735  0.0893  0.5549  0.1719
  185SAPI    O321151   5.071   2.145  10.622  0.0971 -0.0186  0.0652
  185SAPI   HO321152   5.165   2.143  10.639  0.0131  2.0321  1.1482
  185SAPI   C1421153   5.060   2.124  10.878 -0.5460  0.0985 -0.5458
  185SAPI    H421154   5.155   2.068  10.888  1.7432  3.0667 -3.5010
  185SAPI    O421155   5.095   2.262  10.894 -0.6683 -0.2842 -0.8854
  185SAPI   HO421156   5.022   2.323  10.884  1.2680  2.4531  0.3526
  185SAPI   C1521157   4.961   2.071  10.982  0.6927  0.1229 -0.1068
  185SAPI    H521158   4.867   2.127  10.963  0.9528  0.6573  0.1653
  185SAPI    O521159   5.006   2.095  11.116  0.0528 -0.1747 -0.1320
  185SAPI   HO521160   5.000   2.189  11.134 -0.8028 -0.4275  0.9704
  185SAPI   C1621161   4.927   1.921  10.966 -0.2166 -0.3092 -0.4248
  185SAPI    H621162   5.020   1.861  10.972  0.0069 -0.1180 -1.6568
  185SAPI    O621163   4.840   1.866  11.068  0.0184  0.2523  0.1821
  185SAPI   HO621164   4.815   1.933  11.133 -1.9367  1.0951 -1.3015
  185SAPI   C1121165   4.870   1.902  10.835 -0.0512 -0.1501  0.7117
  185SAPI    H121166   4.777   1.962  10.827  0.8311  1.2623  0.6243
  185SAPI     P21167   4.687   1.714  10.785 -0.1377 -0.0590  0.1030
  185SAPI   O1321168   4.589   1.823  10.815  0.0118  0.7630 -0.3670
  185SAPI   O1421169   4.661   1.583  10.852  0.1912 -0.3362 -0.2879
  185SAPI   O1221170   4.843   1.765  10.813 -0.3436 -0.5520 -0.2723
  185SAPI   O1121171   4.691   1.691  10.624 -0.3375  0.0777  0.1764
  185SAPI    C121172   4.790   1.608  10.575 -0.5025  0.5235 -1.0677
  185SAPI    HA21173   4.896   1.629  10.600 -0.2212  1.1826 -2.6643
  185SAPI    HB21174   4.768   1.501  10.596 -1.2753  0.7492 -0.7088
  185SAPI    C221175   4.783   1.598  10.419 -0.7655  0.0112  0.4836
  185SAPI    HS21176   4.855   1.526  10.374 -1.1193  0.8060 -1.4669
  185SAPI   O2121177   4.807   1.727  10.359 -0.4701 -0.2063  0.3724
  185SAPI   C2121178   4.917   1.799  10.386  0.2525 -0.0701 -0.7772
  185SAPI   O2221179   5.015   1.752  10.436 -0.2077  0.6591 -0.0540
  185SAPI   C2221180   4.914   1.932  10.322  0.4044 -0.8453  0.4694
  185SAPI   H2R21181   4.837   2.002  10.361  0.8526 -0.3992  0.5785
  185SAPI   H2S21182   5.010   1.985  10.339  0.1534 -0.1455 -0.2372
  185SAPI    C321183   4.641   1.550  10.376  0.1101 -0.9284 -0.7556
  185SAPI    HX21184   4.589   1.647  10.391  0.7916 -0.7297  0.4119
  185SAPI    HY21185   4.600   1.477  10.449  0.0056 -0.8801 -0.7665
  185SAPI   O3121186   4.631   1.510  10.238  1.0394 -0.3650  0.0952
  185SAPI   C3121187   4.622   1.606  10.147 -0.0044 -0.5579 -0.6393
  185SAPI   O3221188   4.576   1.718  10.159  0.0183 -0.1252  0.0602
  185SAPI   C3221189   4.695   1.565  10.019  0.0408  0.8271 -0.2139
  185SAPI   H2X21190   4.684   1.658   9.958  0.8217  0.9853 -0.1208
  185SAPI   H2Y21191   4.638   1.481   9.975  0.5021  1.1095 -1.4021
  185SAPI   C2321192   4.898   1.931  10.171 -0.0027 -0.0694 -0.7006
  185SAPI   H3R21193   4.821   1.857  10.140 -0.1860 -0.2716  0.2139
  185SAPI   H3S21194   4.992   1.894  10.125  1.5673  1.4659  1.0991
  185SAPI   C2421195   4.865   2.073  10.113 -0.0044 -0.0096  0.2233
  185SAPI   H4R21196   4.952   2.107  10.052 -0.1730 -1.6345 -0.9867
  185SAPI   H4S21197   4.865   2.142  10.200 -0.9972 -0.6978  0.7909
  185SAPI   C2521198   4.734   2.075  10.040  0.3909 -0.8467  0.2410
  185SAPI   H5R21199   4.646   2.119  10.089  0.7571  0.2615 -0.0668
  185SAPI   C2621200   4.710   2.032   9.918  0.5796  0.0990 -0.2440
  185SAPI   H6R21201   4.609   2.038   9.874  0.6580  1.7100 -0.2828
  185SAPI   C2721202   4.816   1.969   9.837 -0.8696 -0.1689  0.3355
  185SAPI   H7R21203   4.895   1.917   9.896 -0.9498  0.3683  0.9269
  185SAPI   H7S21204   4.862   2.050   9.775  1.5313 -0.4918  1.6144
  185SAPI   C2821205   4.764   1.875   9.732 -0.0487  0.7182 -0.2969
  185SAPI   H8R21206   4.765   1.771   9.766  2.1193  0.1319 -1.9904
  185SAPI   C2921207   4.706   1.894   9.613 -0.0865 -0.0178 -0.0088
  185SAPI   H9R21208   4.658   1.814   9.556 -0.8263  1.1082 -1.0251
  185SAPI  C21021209   4.700   2.028   9.550  0.3014  0.0088  0.1553
  185SAPI  H10R21210   4.800   2.062   9.516  0.3706  1.7420  1.9001
  185SAPI  H10S21211   4.683   2.095   9.637  0.6649 -0.0367  0.2631
  185SAPI  C21121212   4.584   2.038   9.444 -0.5761  0.7365  0.0757
  185SAPI  H11R21213   4.485   2.067   9.482 -0.3858  2.8857 -0.8849
  185SAPI  C21221214   4.588   2.011   9.313 -0.1633  0.2807 -0.1454
  185SAPI  H12R21215   4.495   2.013   9.255  0.0027 -0.7072 -0.4719
  185SAPI  C21321216   4.711   1.968   9.234 -0.1358  0.4955 -0.3905
  185SAPI  H13R21217   4.678   1.871   9.191  3.2043 -0.6363 -0.7354
  185SAPI  H13S21218   4.794   1.941   9.304 -1.0669  1.3043  1.0768
  185SAPI  C21421219   4.757   2.057   9.123 -0.0145 -0.1096 -0.2721
  185SAPI  H14R21220   4.675   2.124   9.095 -1.3150  0.0837  3.3931
  185SAPI  C21521221   4.879   2.055   9.066 -0.3435  0.8921  0.8389
  185SAPI  H15R21222   4.917   2.124   8.990  0.3870 -1.9562 -1.5892
  185SAPI  C21621223   4.988   1.961   9.107  0.1362  0.6465  0.5099
  185SAPI  H16R21224   4.957   1.859   9.073 -0.2268  0.5924  0.9879
  185SAPI  H16S21225   4.994   1.960   9.218  1.2052 -0.1454  0.4551
  185SAPI  C21721226   5.122   2.017   9.063  0.4183  0.1535  0.0273
  185SAPI  H17R21227   5.195   1.954   9.119 -0.0924 -0.0226  0.4994
  185SAPI  H17S21228   5.132   2.124   9.088 -0.0591  0.2738 -0.2880
  185SAPI  C21821229   5.151   2.003   8.912  0.1029 -0.1708  0.1017
  185SAPI  H18R21230   5.243   2.052   8.873 -0.6605 -0.1008 -1.7584
  185SAPI  H18S21231   5.074   2.060   8.854 -0.2859 -0.9057 -0.1125
  185SAPI  C21921232   5.145   1.861   8.855  0.2291  0.4252  0.8508
  185SAPI  H19R21233   5.044   1.817   8.871  1.2673 -3.4675 -1.7326
  185SAPI  H19S21234   5.208   1.810   8.931 -1.3583 -0.2159  1.8037
  185SAPI  C22021235   5.193   1.836   8.714 -0.4535  0.2643  0.4861
  185SAPI  H20R21236   5.142   1.903   8.641  0.5440 -0.3396 -0.8193
  185SAPI  H20S21237   5.174   1.731   8.684  1.0667  0.7258 -2.4801
  185SAPI  H20T21238   5.303   1.850   8.718 -0.1195 -1.1347 -1.7678
  185SAPI   C3321239   4.850   1.529  10.035  0.9793  0.2379  0.0762
  185SAPI   H3X21240   4.857   1.462  10.123  1.7275  0.9017  0.5305
  185SAPI   H3Y21241   4.918   1.615  10.049  3.8495 -1.5375 -1.7834
  185SAPI   C3421242   4.900   1.452   9.913 -0.8704 -0.2768 -0.1630
  185SAPI   H4X21243   4.831   1.365   9.903  0.5502 -1.3100 -1.4776
  185SAPI   H4Y21244   5.003   1.412   9.921 -0.9252 -0.8713 -1.9360
  185SAPI   C3521245   4.890   1.512   9.771 -0.4245 -0.3852  1.0670
  185SAPI   H5X21246   4.958   1.599   9.755 -1.4302  0.2037 -0.1898
  185SAPI   H5Y21247   4.783   1.539   9.760 -0.0841  0.1004 -1.9562
  185SAPI   C3621248   4.934   1.406   9.669 -0.2641 -0.2018  0.3478
  185SAPI   H6X21249   4.882   1.308   9.676 -2.3593  0.7058 -1.2408
  185SAPI   H6Y21250   5.042   1.382   9.673 -0.2793 -0.0978  2.5031
  185SAPI   C3721251   4.917   1.442   9.524  0.4589  0.2392 -0.0997
  185SAPI   H7X21252   4.811   1.445   9.490  0.9651  2.8388 -1.6823
  185SAPI   H7Y21253   4.960   1.353   9.473  1.6967  0.6028  0.2851
  185SAPI   C3821254   4.992   1.570   9.489 -0.2626  0.0463 -0.0099
  185SAPI   H8X21255   5.091   1.559   9.539 -0.7186 -2.4503  0.5053
  185SAPI   H8Y21256   4.932   1.656   9.524 -2.5119 -1.4708  0.1142
  185SAPI   C3921257   5.023   1.583   9.342 -0.1979 -0.0934 -1.1870
  185SAPI   H9X21258   5.078   1.490   9.317 -2.1989 -2.0766  1.2647
  185SAPI   H9Y21259   5.073   1.682   9.327  1.4683 -0.4878  1.1471
  185SAPI  C31021260   4.903   1.584   9.246 -0.2676  0.2550  0.2494
  185SAPI  H10X21261   4.859   1.685   9.263  0.6384  0.7473 -0.2194
  185SAPI  H10Y21262   4.829   1.506   9.274 -0.7088  0.8852  0.8727
  185SAPI  C31121263   4.939   1.559   9.094 -0.4614 -0.2937 -0.4748
  185SAPI  H11X21264   4.965   1.451   9.083 -1.2479 -0.9045  2.6656
  185SAPI  H11Y21265   5.030   1.619   9.077 -1.0271  1.3257  1.7296
  185SAPI  C31221266   4.837   1.598   8.992 -0.2416 -0.1631  0.3748
  185SAPI  H12X21267   4.847   1.708   8.993  0.9107 -0.2440  2.0447
  185SAPI  H12Y21268   4.735   1.560   9.018 -0.6367 -1.4560 -2.6547
  185SAPI  C31321269   4.869   1.553   8.851  0.2225 -0.3622 -0.2203
  185SAPI  H13X21270   4.970   1.589   8.821  1.0357 -0.5558  2.0760
  185SAPI  H13Y21271   4.800   1.588   8.771  1.7469 -0.8226 -1.7824
  185SAPI  C31421272   4.875   1.396   8.827 -0.0649  0.4133 -0.5144
  185SAPI  H14X21273   4.780   1.341   8.842 -0.2489  0.8791  0.0813
  185SAPI  H14Y21274   4.934   1.354   8.911  0.6002  0.8628 -0.7538
  185SAPI  C31521275   4.953   1.354   8.693 -0.1581 -0.0993  0.4077
  185SAPI  H15X21276   4.962   1.243   8.700  0.8285 -0.1472 -1.0135
  185SAPI  H15Y21277   5.056   1.395   8.689 -1.1652  2.5048 -0.7030
  185SAPI  C31621278   4.882   1.397   8.562  0.2880 -0.3870 -0.4683
  185SAPI  H16X21279   4.898   1.507   8.570  3.1820 -0.4732 -3.0809
  185SAPI  H16Y21280   4.775   1.372   8.577  0.1119  0.5234 -0.1483
  185SAPI  C31721281   4.952   1.333   8.443  0.0373  0.4145  0.3492
  185SAPI  H17X21282   4.879   1.349   8.360 -0.1023  1.9656  0.7540
  185SAPI  H17Y21283   4.954   1.223   8.462  0.5214  0.6001  1.4217
  185SAPI  C31821284   5.098   1.382   8.410 -0.5967 -0.8029  0.0344
  185SAPI  H18X21285   5.168   1.310   8.458 -0.2681 -1.0708 -0.8323
  185SAPI  H18Y21286   5.123   1.478   8.460 -1.4960 -0.6646  0.2346
  185SAPI  H18Z21287   5.122   1.386   8.302 -0.7072 -2.3632 -0.0673
  186SAPI   C1221288   5.994   0.440  10.987 -0.2852  0.4891 -0.5906
  186SAPI    H221289   5.947   0.340  10.985 -2.1290  1.1415  2.8369
  186SAPI    O221290   5.903   0.528  11.049 -0.8547  0.2926  0.2288
  186SAPI   HO221291   5.832   0.479  11.090 -0.1242 -0.5869  0.4724
  186SAPI   C1321292   6.124   0.442  11.070  0.1770 -0.3998  0.2204
  186SAPI    H321293   6.191   0.378  11.008  0.5302  1.3957 -1.3330
  186SAPI    O321294   6.103   0.383  11.196 -0.5803  0.3368 -0.7431
  186SAPI   HO321295   6.132   0.292  11.182 -1.3195 -0.0409  0.0912
  186SAPI   C1421296   6.182   0.580  11.073 -0.2037 -0.2760 -0.1711
  186SAPI    H421297   6.117   0.647  11.134  2.4680  2.2400  0.1678
  186SAPI    O421298   6.306   0.578  11.147  0.1421 -0.7695  0.4406
  186SAPI   HO421299   6.283   0.599  11.238 -0.5775  0.8076 -0.0638
  186SAPI   C1521300   6.204   0.635  10.938  0.0351  0.1581  0.7452
  186SAPI    H521301   6.286   0.574  10.895 -0.1913  1.1138 -1.1403
  186SAPI    O521302   6.260   0.771  10.948 -1.1427 -0.5008 -0.1043
  186SAPI   HO521303   6.189   0.835  10.957  1.4267  2.2662  2.4990
  186SAPI   C1621304   6.076   0.625  10.849 -0.6186 -0.3818  0.7218
  186SAPI    H621305   6.002   0.700  10.886 -0.6408  0.3779 -0.7806
  186SAPI    O621306   6.111   0.664  10.713 -0.1268 -0.6557 -0.4832
  186SAPI   HO621307   6.189   0.609  10.698  0.1428 -0.2859 -0.4697
  186SAPI   C1121308   6.022   0.484  10.845  0.4591  0.3336 -0.4682
  186SAPI    H121309   6.104   0.424  10.800  1.3167 -0.9298  2.5523
  186SAPI     P21310   5.811   0.365  10.724 -0.3339 -0.0756  0.1493
  186SAPI   O1321311   5.672   0.394  10.771 -0.7436  0.6630 -0.5043
  186SAPI   O1421312   5.873   0.235  10.762 -0.5284 -0.8623 -0.0532
  186SAPI   O1221313   5.896   0.496  10.773 -0.4955  0.1736 -0.3949
  186SAPI   O1121314   5.820   0.384  10.566  0.1366  0.6995 -0.5365
  186SAPI    C121315   5.732   0.318  10.472  0.2822  0.0394 -0.2373
  186SAPI    HA21316   5.794   0.258  10.402 -2.7172 -1.4934 -1.7343
  186SAPI    HB21317   5.664   0.244  10.520 -3.4668  1.8951 -2.2827
  186SAPI    C221318   5.631   0.401  10.389 -0.2825 -0.8105  0.1350
  186SAPI    HS21319   5.568   0.335  10.325 -1.9516 -0.8196  1.7075
  186SAPI   O2121320   5.692   0.509  10.314  0.5050 -0.6013 -0.0168
  186SAPI   C2121321   5.745   0.461  10.205  1.1056 -0.3294  0.2518
  186SAPI   O2221322   5.746   0.348  10.166 -0.0990 -0.0494 -0.3171
  186SAPI   C2221323   5.812   0.574  10.126 -0.5052  0.9998 -0.1482
  186SAPI   H2R21324   5.774   0.669  10.170  0.1114 -0.5643  4.2384
  186SAPI   H2S21325   5.923   0.570  10.135 -0.2753  1.3632 -2.1943
  186SAPI    C321326   5.535   0.463  10.489 -0.0687 -0.3648 -0.6995
  186SAPI    HX21327   5.584   0.544  10.547 -2.9638  2.6600 -2.1139
  186SAPI    HY21328   5.517   0.388  10.569  2.9063 -0.0159  0.4277
  186SAPI   O3121329   5.412   0.516  10.423 -0.2123  0.5969  0.4435
  186SAPI   C3121330   5.419   0.640  10.389  0.0832 -0.2654  0.7461
  186SAPI   O3221331   5.519   0.710  10.406  0.3539 -0.2690 -0.1059
  186SAPI   C3221332   5.284   0.681  10.314 -0.3713 -0.2874 -0.9317
  186SAPI   H2X21333   5.227   0.736  10.392  1.0667 -0.5522  0.3683
  186SAPI   H2Y21334   5.226   0.590  10.288 -0.1255 -0.8993  0.5527
  186SAPI   C2321335   5.764   0.579   9.976 -0.2896  0.2646 -0.2673
  186SAPI   H3R21336   5.654   0.592   9.970 -0.2912  0.8063  0.7492
  186SAPI   H3S21337   5.791   0.480   9.934  2.5393  0.3058  1.2473
  186SAPI   C2421338   5.831   0.697   9.898  0.0141  0.0947  0.2631
  186SAPI   H4R21339   5.814   0.791   9.954 -0.0657  0.1818  0.0929
  186SAPI   H4S21340   5.779   0.709   9.801  1.6670  0.7377 -0.5943
  186SAPI   C2521341   5.982   0.674   9.864  0.4492  0.2691 -0.2154
  186SAPI   H5R21342   6.041   0.625   9.943  0.3863 -1.5782 -1.2664
  186SAPI   C2621343   6.042   0.695   9.745  0.1275 -0.0990  0.2908
  186SAPI   H6R21344   6.144   0.658   9.730 -0.4153 -1.7807  0.5813
  186SAPI   C2721345   5.988   0.744   9.606 -0.3204  0.1036  0.1828
  186SAPI   H7R21346   6.070   0.790   9.546 -0.7658  0.7829  0.0807
  186SAPI   H7S21347   5.914   0.826   9.623 -1.5741 -0.9636  0.0177
  186SAPI   C2821348   5.921   0.640   9.521 -0.1256 -0.0615 -0.6593
  186SAPI   H8R21349   5.852   0.574   9.576 -0.6027 -0.4451 -1.6712
  186SAPI   C2921350   5.933   0.621   9.385 -0.2733  0.0262 -0.5360
  186SAPI   H9R21351   5.896   0.526   9.343 -0.2051 -0.0377 -0.4535
  186SAPI  C21021352   6.012   0.698   9.287  0.0926  0.4925 -0.4761
  186SAPI  H10R21353   6.078   0.777   9.331  1.0226  0.1814 -1.2846
  186SAPI  H10S21354   5.941   0.768   9.239  0.9831  1.9719  0.2622
  186SAPI  C21121355   6.084   0.616   9.188 -0.3346 -0.2132  0.7031
  186SAPI  H11R21356   6.094   0.510   9.217  1.2940  0.3851  2.5862
  186SAPI  C21221357   6.132   0.660   9.068  0.6935  0.5188 -0.4820
  186SAPI  H12R21358   6.168   0.583   8.998 -0.5279 -0.2666 -0.2743
  186SAPI  C21321359   6.137   0.802   9.013  0.0518  0.6862 -0.0210
  186SAPI  H13R21360   6.229   0.808   8.951 -0.2375 -0.4311 -0.5908
  186SAPI  H13S21361   6.144   0.877   9.095  0.3578  1.4762 -0.7491
  186SAPI  C21421362   6.011   0.841   8.939  0.8527  0.1761 -0.6730
  186SAPI  H14R21363   5.919   0.843   8.999  0.4932 -2.3393 -1.0111
  186SAPI  C21521364   5.998   0.864   8.800  0.6548 -0.1837 -0.5535
  186SAPI  H15R21365   5.895   0.887   8.770 -0.3403 -2.8058  0.5827
  186SAPI  C21621366   6.111   0.861   8.694 -0.5007 -0.4107  0.2206
  186SAPI  H16R21367   6.073   0.803   8.607  2.0693  0.5546 -1.6665
  186SAPI  H16S21368   6.202   0.812   8.733  0.1936  1.4899  1.0961
  186SAPI  C21721369   6.159   1.004   8.657  0.3008  0.2614  0.2684
  186SAPI  H17R21370   6.252   0.997   8.596  1.9046 -1.3507  2.7097
  186SAPI  H17S21371   6.185   1.070   8.743 -1.8684  2.2577 -0.5005
  186SAPI  C21821372   6.052   1.076   8.576  0.3419  0.2903 -0.1908
  186SAPI  H18R21373   5.956   1.067   8.632  0.2800  2.9396  0.2130
  186SAPI  H18S21374   6.036   1.020   8.481 -1.3124  0.0750  0.1800
  186SAPI  C21921375   6.099   1.222   8.548  0.5660 -0.4699 -0.3205
  186SAPI  H19R21376   6.127   1.269   8.644 -0.3592 -1.0002  0.2251
  186SAPI  H19S21377   6.017   1.281   8.503  2.3600  2.8283  0.4397
  186SAPI  C22021378   6.208   1.239   8.444  0.1295 -0.0256  0.1779
  186SAPI  H20R21379   6.291   1.169   8.466 -0.4355 -1.0293 -0.7346
  186SAPI  H20S21380   6.229   1.345   8.418  0.5222 -0.4572 -1.3723
  186SAPI  H20T21381   6.161   1.201   8.350 -2.6438 -0.2132  1.5275
  186SAPI   C3321382   5.316   0.765  10.191  0.1330  0.2930 -0.0464
  186SAPI   H3X21383   5.401   0.834  10.210  1.2468 -1.2734  1.0394
  186SAPI   H3Y21384   5.229   0.821  10.151  0.5742  0.7555 -0.3706
  186SAPI   C3421385   5.356   0.674  10.074 -0.4076  0.4887  0.0230
  186SAPI   H4X21386   5.268   0.608  10.060  0.0441 -0.7316  2.4058
  186SAPI   H4Y21387   5.441   0.607  10.097  1.4115  3.0202  1.1394
  186SAPI   C3521388   5.384   0.744   9.945  0.2021  0.1233 -0.4165
  186SAPI   H5X21389   5.481   0.798   9.957  0.9057 -1.1731 -0.0722
  186SAPI   H5Y21390   5.312   0.827   9.928  0.2852  0.1768 -0.5084
  186SAPI   C3621391   5.392   0.638   9.832 -0.0362  0.5237 -0.5034
  186SAPI   H6X21392   5.304   0.570   9.831 -0.8156  1.5116 -0.8904
  186SAPI   H6Y21393   5.476   0.566   9.840  0.3487  0.8436 -1.4670
  186SAPI   C3721394   5.411   0.694   9.699 -0.3641  0.2039 -0.1250
  186SAPI   H7X21395   5.504   0.755   9.699 -0.8574  1.0940  2.6039
  186SAPI   H7Y21396   5.333   0.764   9.661  0.7771  1.0583 -0.9664
  186SAPI   C3821397   5.437   0.591   9.590 -0.2013  0.2300  0.0202
  186SAPI   H8X21398   5.342   0.536   9.575 -1.9756  3.4014 -1.5490
  186SAPI   H8Y21399   5.508   0.513   9.624 -0.8916 -0.5017 -0.2036
  186SAPI   C3921400   5.480   0.656   9.460  0.4682  0.0246 -0.3083
  186SAPI   H9X21401   5.567   0.714   9.499  0.6290 -1.1363  1.1558
  186SAPI   H9Y21402   5.408   0.736   9.433 -0.5746 -0.9917 -0.6037
  186SAPI  C31021403   5.512   0.569   9.344  0.1633 -0.4544  0.6786
  186SAPI  H10X21404   5.425   0.510   9.307 -0.8965  1.8907 -0.7828
  186SAPI  H10Y21405   5.594   0.499   9.373 -0.3206 -0.6148  1.6865
  186SAPI  C31121406   5.569   0.649   9.228 -0.1941 -0.2750 -0.2175
  186SAPI  H11X21407   5.671   0.679   9.259  0.6621 -3.1849  0.0899
  186SAPI  H11Y21408   5.515   0.746   9.220  0.2128  0.1348  1.6627
  186SAPI  C31221409   5.590   0.560   9.103 -0.9150 -0.1722  0.3157
  186SAPI  H12X21410   5.489   0.538   9.062 -0.4626 -0.7613 -0.5204
  186SAPI  H12Y21411   5.634   0.464   9.137 -1.2664 -1.3950 -2.3897
  186SAPI  C31321412   5.688   0.616   8.993  0.3941 -0.0490  0.5630
  186SAPI  H13X21413   5.768   0.662   9.055 -1.1706  1.3073  1.6789
  186SAPI  H13Y21414   5.626   0.696   8.947 -1.0628 -1.9143 -0.8812
  186SAPI  C31421415   5.746   0.517   8.893 -0.4811 -0.2978  0.0120
  186SAPI  H14X21416   5.793   0.437   8.954  1.8172  0.4912 -0.6175
  186SAPI  H14Y21417   5.840   0.559   8.852 -1.3368  0.7478 -0.9503
  186SAPI  C31521418   5.647   0.455   8.799  0.3611 -0.0091 -0.2225
  186SAPI  H15X21419   5.570   0.400   8.857  1.6918 -0.9289  0.7323
  186SAPI  H15Y21420   5.685   0.367   8.742 -2.9814 -0.7949 -1.4742
  186SAPI  C31621421   5.586   0.550   8.693  0.3023  0.0098  0.0210
  186SAPI  H16X21422   5.520   0.622   8.746  0.4073 -0.0919  0.2900
  186SAPI  H16Y21423   5.512   0.488   8.638  0.4575 -0.1524 -0.0068
  186SAPI  C31721424   5.679   0.627   8.607 -0.6581 -0.4497 -0.0878
  186SAPI  H17X21425   5.747   0.694   8.664 -2.4000  2.6541 -1.4176
  186SAPI  H17Y21426   5.618   0.691   8.540 -0.5874  0.7927  0.9900
  186SAPI  C31821427   5.757   0.535   8.519  0.9405  1.2041  0.1621
  186SAPI  H18X21428   5.833   0.472   8.570  1.1017 -1.1704 -2.6955
  186SAPI  H18Y21429   5.825   0.588   8.449  1.6499  0.0505 -0.0635
  186SAPI  H18Z21430   5.688   0.468   8.463  0.9545 -0.7817  2.3434
  187SAPI   C1221431   1.444   1.373   6.318 -0.2685 -0.9201  0.3377
  187SAPI    H221432   1.370   1.448   6.352  1.1362 -0.4089  2.4232
  187SAPI    O221433   1.483   1.308   6.439 -0.1464 -0.1997 -0.2162
  187SAPI   HO221434   1.543   1.359   6.494  0.6732 -0.4431 -0.8585
  187SAPI   C1321435   1.370   1.274   6.232 -0.2680  0.8234  0.1681
  187SAPI    H321436   1.324   1.329   6.147  0.0746  1.7252  0.5540
  187SAPI    O321437   1.253   1.217   6.298  0.4091 -0.2568 -0.5871
  187SAPI   HO321438   1.280   1.175   6.380 -2.7043 -0.3968  0.5142
  187SAPI   C1421439   1.469   1.167   6.178 -0.5114 -0.7048 -0.4929
  187SAPI    H421440   1.509   1.116   6.268 -0.4560 -0.6509 -0.4865
  187SAPI    O421441   1.400   1.077   6.100 -0.4302 -0.1198  0.5556
  187SAPI   HO421442   1.312   1.061   6.134 -2.4074 -0.7058 -4.1110
  187SAPI   C1521443   1.592   1.230   6.112  0.5902 -0.2017  0.0699
  187SAPI    H521444   1.549   1.282   6.024 -1.5103 -0.0995  1.0996
  187SAPI    O521445   1.684   1.139   6.050 -0.5812 -0.1378  0.9685
  187SAPI   HO521446   1.710   1.070   6.112 -0.7711  0.0976  1.3149
  187SAPI   C1621447   1.659   1.332   6.204 -0.3811  0.8073  0.6789
  187SAPI    H621448   1.699   1.271   6.288 -0.4909  0.3899  0.4320
  187SAPI    O621449   1.756   1.400   6.130 -0.1372 -0.5567 -0.1703
  187SAPI   HO621450   1.811   1.460   6.182 -2.3675  2.2477 -0.7730
  187SAPI   C1121451   1.561   1.442   6.252  0.1347 -0.2292  0.0593
  187SAPI    H121452   1.515   1.484   6.160 -1.8578 -0.4687  0.9074
  187SAPI     P21453   1.618   1.704   6.315 -0.1506  0.1263 -0.0710
  187SAPI   O1321454   1.602   1.728   6.171 -0.7058  0.7538  0.3361
  187SAPI   O1421455   1.733   1.765   6.389 -0.3617  0.4748 -0.3219
  187SAPI   O1221456   1.638   1.541   6.329  0.3767  0.4371 -0.1558
  187SAPI   O1121457   1.480   1.742   6.400 -1.0842 -0.2289 -0.2347
  187SAPI    C121458   1.461   1.698   6.537  0.5320  0.3034 -0.5973
  187SAPI    HA21459   1.376   1.629   6.558  2.2157 -1.6375  0.2610
  187SAPI    HB21460   1.548   1.641   6.576 -0.3550 -0.4369  0.3809
  187SAPI    C221461   1.442   1.824   6.613 -0.3251  0.2828  0.3368
  187SAPI    HS21462   1.531   1.889   6.598  0.3878 -0.3571  1.5591
  187SAPI   O2121463   1.432   1.785   6.753 -0.4078 -0.2864  1.0201
  187SAPI   C2121464   1.494   1.861   6.830 -0.4063 -0.1721 -0.3518
  187SAPI   O2221465   1.570   1.954   6.805 -0.2825 -0.0902  0.4367
  187SAPI   C2221466   1.458   1.822   6.974 -0.1734 -0.2105  0.0964
  187SAPI   H2R21467   1.351   1.846   6.992 -1.3165 -3.6946 -1.1754
  187SAPI   H2S21468   1.465   1.712   6.989 -0.2821  0.0566  2.4660
  187SAPI    C321469   1.309   1.900   6.567  0.4779 -0.2976  0.0722
  187SAPI    HX21470   1.232   1.821   6.579 -0.7369  0.5908 -1.4234
  187SAPI    HY21471   1.320   1.918   6.458  0.2606  0.1271  0.1200
  187SAPI   O3121472   1.272   2.013   6.646 -0.4171  0.1881  0.5727
  187SAPI   C3121473   1.320   2.124   6.590 -0.1746  0.6917 -0.4566
  187SAPI   O3221474   1.374   2.135   6.481 -0.1650  0.4804  0.5442
  187SAPI   C3221475   1.267   2.245   6.678  0.6622  0.7257  0.8169
  187SAPI   H2X21476   1.163   2.262   6.644  0.8383  0.0795 -0.1122
  187SAPI   H2Y21477   1.333   2.328   6.647  2.6181 -2.1240 -3.7630
  187SAPI   C2321478   1.552   1.889   7.076 -0.1336  0.2397 -0.2231
  187SAPI   H3R21479   1.541   1.999   7.081 -2.9494 -0.0038  1.2842
  187SAPI   H3S21480   1.655   1.867   7.041 -0.2947 -0.4661 -0.2720
  187SAPI   C2421481   1.534   1.834   7.221  0.0709  0.5965  0.1121
  187SAPI   H4R21482   1.629   1.832   7.278 -0.4045  0.4877  0.9201
  187SAPI   H4S21483   1.518   1.727   7.198 -2.2308  0.6755  1.0875
  187SAPI   C2521484   1.425   1.886   7.310 -0.6211 -0.0159 -0.0856
  187SAPI   H5R21485   1.345   1.940   7.257 -0.3313  2.2434  1.6419
  187SAPI   C2621486   1.418   1.877   7.442  0.1595  0.3775  0.6165
  187SAPI   H6R21487   1.328   1.911   7.495 -0.7759 -0.0083 -0.6879
  187SAPI   C2721488   1.520   1.820   7.533 -0.0296  0.2623 -0.8812
  187SAPI   H7R21489   1.581   1.904   7.574  2.6373 -1.5765 -0.7838
  187SAPI   H7S21490   1.585   1.741   7.489 -1.2277 -0.5762 -1.1666
  187SAPI   C2821491   1.447   1.746   7.644  0.5292 -0.3826  0.5568
  187SAPI   H8R21492   1.444   1.636   7.642 -4.2573 -0.4854  1.6999
  187SAPI   C2921493   1.410   1.802   7.758 -0.8660 -0.0473  0.1391
  187SAPI   H9R21494   1.350   1.751   7.835 -0.7706  0.8794  0.8471
  187SAPI  C21021495   1.432   1.950   7.793  0.2702 -0.1407 -0.3601
  187SAPI  H10R21496   1.340   2.005   7.821 -0.1292 -2.1002  2.7027
  187SAPI  H10S21497   1.479   1.999   7.705  0.8587 -0.6275 -0.3223
  187SAPI  C21121498   1.529   1.974   7.901  1.1835  0.5218  0.3693
  187SAPI  H11R21499   1.628   1.931   7.884 -0.3954 -3.4775  0.1119
  187SAPI  C21221500   1.506   2.013   8.030  0.4424 -0.0794 -0.7279
  187SAPI  H12R21501   1.591   2.026   8.098  1.0021 -2.4362 -0.8784
  187SAPI  C21321502   1.373   2.051   8.099  0.0041 -0.5426  0.2624
  187SAPI  H13R21503   1.325   1.952   8.114  2.2757 -1.7316  0.1755
  187SAPI  H13S21504   1.301   2.095   8.026  1.1019 -0.1108 -0.5839
  187SAPI  C21421505   1.383   2.133   8.224 -0.1497  1.1165 -0.3233
  187SAPI  H14R21506   1.450   2.218   8.207 -1.4870  2.0981 -0.8515
  187SAPI  C21521507   1.318   2.120   8.344 -0.7504  0.3724 -0.1313
  187SAPI  H15R21508   1.342   2.190   8.426 -0.1357  0.4376 -0.3597
  187SAPI  C21621509   1.215   2.018   8.371  0.1496  0.1165 -0.1058
  187SAPI  H16R21510   1.164   1.990   8.277 -1.3218  1.3427  0.2784
  187SAPI  H16S21511   1.143   2.065   8.442  0.4933  1.0388 -0.3520
  187SAPI  C21721512   1.261   1.891   8.438 -0.3801 -0.3148  0.2611
  187SAPI  H17R21513   1.332   1.832   8.376 -0.1434  1.4775 -1.2603
  187SAPI  H17S21514   1.161   1.844   8.454 -1.4701  2.1062  0.9285
  187SAPI  C21821515   1.326   1.924   8.577  0.2007 -0.6912  0.5889
  187SAPI  H18R21516   1.248   1.971   8.640  0.3153 -2.7514  2.3567
  187SAPI  H18S21517   1.410   1.996   8.563 -2.2278  1.8860 -2.2287
  187SAPI  C21921518   1.383   1.803   8.640 -0.4048  0.0329 -0.3390
  187SAPI  H19R21519   1.481   1.777   8.595  0.6312  0.4246  1.5731
  187SAPI  H19S21520   1.316   1.716   8.620  0.0979 -0.9521  1.8986
  187SAPI  C22021521   1.408   1.829   8.791  0.5363  0.1757  0.4930
  187SAPI  H20R21522   1.498   1.895   8.799  1.9371 -1.7597  1.4779
  187SAPI  H20S21523   1.438   1.737   8.844  0.9484  0.1432  0.2117
  187SAPI  H20T21524   1.310   1.868   8.826 -0.3439 -1.4174 -0.1200
  187SAPI   C3321525   1.263   2.232   6.835 -0.0425  0.1584  0.2072
  187SAPI   H3X21526   1.217   2.136   6.867  1.0656 -0.7087 -0.7189
  187SAPI   H3Y21527   1.200   2.314   6.875 -1.7719 -0.5892 -0.8818
  187SAPI   C3421528   1.403   2.236   6.904 -0.5383  0.1805  0.1299
  187SAPI   H4X21529   1.456   2.332   6.885  1.5152 -0.8628  0.3004
  187SAPI   H4Y21530   1.482   2.170   6.861 -0.1074  2.4117 -2.7874
  187SAPI   C3521531   1.393   2.213   7.055  0.1826 -0.0434 -0.4686
  187SAPI   H5X21532   1.494   2.217   7.101  0.5709 -1.0621 -1.2073
  187SAPI   H5Y21533   1.355   2.110   7.068  1.0548 -0.4803 -1.2546
  187SAPI   C3621534   1.311   2.314   7.135 -0.6957  0.6768  0.2342
  187SAPI   H6X21535   1.207   2.290   7.104 -1.4557  0.3388  2.8073
  187SAPI   H6Y21536   1.333   2.415   7.094  0.0103  0.2435 -0.4838
  187SAPI   C3721537   1.336   2.281   7.284  0.0789 -0.5413  0.3263
  187SAPI   H7X21538   1.445   2.282   7.301 -0.1947 -4.2738  3.5917
  187SAPI   H7Y21539   1.294   2.182   7.310 -1.6343  1.1600  5.2073
  187SAPI   C3821540   1.264   2.372   7.381  0.0747 -0.1636  0.0043
  187SAPI   H8X21541   1.157   2.380   7.352  0.4761 -1.6695 -2.1060
  187SAPI   H8Y21542   1.309   2.472   7.367 -0.5324 -0.1293 -1.9306
  187SAPI   C3921543   1.254   2.323   7.530 -0.3220 -0.1243  0.0436
  187SAPI   H9X21544   1.356   2.311   7.572  0.7557  0.0353 -2.3293
  187SAPI   H9Y21545   1.208   2.222   7.535 -0.5616  0.0101  0.6173
  187SAPI  C31021546   1.183   2.428   7.608 -0.4147  0.4725  0.0635
  187SAPI  H10X21547   1.074   2.435   7.585  0.1769 -0.2890 -3.5301
  187SAPI  H10Y21548   1.235   2.525   7.598 -0.5924  0.5783  0.1480
  187SAPI  C31121549   1.192   2.396   7.763 -0.0995 -0.3885  0.4502
  187SAPI  H11X21550   1.220   2.491   7.813  1.5209 -0.1144 -0.8816
  187SAPI  H11Y21551   1.271   2.319   7.780 -0.8215 -1.0900  0.6872
  187SAPI  C31221552   1.063   2.328   7.821 -0.8065  0.0237 -0.4564
  187SAPI  H12X21553   1.059   2.225   7.778  3.0439 -0.1204 -0.8324
  187SAPI  H12Y21554   0.977   2.392   7.793 -0.6540  0.1690 -0.5932
  187SAPI  C31321555   1.070   2.304   7.978  0.1998 -0.2055  0.2671
  187SAPI  H13X21556   1.098   2.396   8.035  1.4689 -0.9495  0.8783
  187SAPI  H13Y21557   1.155   2.236   7.998  0.2300  0.0912  1.1840
  187SAPI  C31421558   0.940   2.265   8.036  0.2052 -0.9458 -0.0590
  187SAPI  H14X21559   0.906   2.168   7.994 -0.0145 -0.4283 -1.1375
  187SAPI  H14Y21560   0.861   2.342   8.015  0.9787 -0.1542 -0.1448
  187SAPI  C31521561   0.931   2.253   8.184  0.0711 -0.1206 -0.3192
  187SAPI  H15X21562   0.950   2.350   8.234  0.4432  0.0301 -0.7423
  187SAPI  H15Y21563   0.997   2.167   8.213 -0.6647 -0.3362  0.7564
  187SAPI  C31621564   0.792   2.221   8.237 -0.1897 -0.4805  0.2649
  187SAPI  H16X21565   0.761   2.126   8.188  0.5938 -1.3769  1.4284
  187SAPI  H16Y21566   0.730   2.309   8.213  0.0214 -0.8194 -1.7293
  187SAPI  C31721567   0.790   2.206   8.387  0.4713 -0.7734  0.2533
  187SAPI  H17X21568   0.857   2.273   8.446  0.3634 -0.9429  0.5764
  187SAPI  H17Y21569   0.820   2.103   8.417  0.4453 -0.0831  2.9808
  187SAPI  C31821570   0.656   2.241   8.448  0.1235  0.4223 -0.0502
  187SAPI  H18X21571   0.657   2.222   8.557 -2.9044 -2.6584 -0.3863
  187SAPI  H18Y21572   0.578   2.170   8.413  1.0406 -0.8393  0.3909
  187SAPI  H18Z21573   0.628   2.348   8.443  0.0757  0.5063  1.5710
  188SAPI   C1221574   1.465   6.239   6.082  0.3365 -0.5249  0.9722
  188SAPI    H221575   1.445   6.347   6.097 -1.0587 -0.4054 -1.2883
  188SAPI    O221576   1.339   6.180   6.054 -0.1280  0.0433 -0.0949
  188SAPI   HO221577   1.307   6.129   6.128  1.8100  0.0152  0.7758
  188SAPI   C1321578   1.573   6.210   5.974 -0.2462  0.1421  0.5935
  188SAPI    H321579   1.662   6.274   5.995 -0.2492  0.6635 -0.8723
  188SAPI    O321580   1.525   6.265   5.850 -0.1397  0.3653  0.1151
  188SAPI   HO321581   1.564   6.352   5.845  2.5369 -0.7436 -0.0147
  188SAPI   C1421582   1.619   6.069   5.960  0.6735 -0.4781 -0.4119
  188SAPI    H421583   1.538   6.002   5.923 -0.1846  0.8329 -0.9658
  188SAPI    O421584   1.735   6.074   5.873  0.3296  0.5263  0.3222
  188SAPI   HO421585   1.701   6.127   5.800  0.0420 -0.1729 -0.0567
  188SAPI   C1521586   1.655   6.013   6.100 -0.5961  0.3835 -0.0880
  188SAPI    H521587   1.743   6.077   6.124  0.5882 -1.9649  2.4674
  188SAPI    O521588   1.711   5.876   6.098 -0.1075 -0.5246  0.3283
  188SAPI   HO521589   1.791   5.875   6.151  0.1440  0.2602 -0.0267
  188SAPI   C1621590   1.540   6.035   6.199 -0.6623  0.1506 -0.3490
  188SAPI    H621591   1.457   5.975   6.155  0.0900  0.0616 -1.7207
  188SAPI    O621592   1.578   5.982   6.331 -0.3090 -0.0393  0.5457
  188SAPI   HO621593   1.497   5.959   6.376 -0.7178 -0.8437 -0.5496
  188SAPI   C1121594   1.503   6.185   6.221  0.2891  0.1445  0.6514
  188SAPI    H121595   1.598   6.236   6.248  0.7197 -0.0922 -0.3748
  188SAPI     P21596   1.402   6.358   6.391  0.1041 -0.2271  0.1301
  188SAPI   O1321597   1.262   6.385   6.417 -0.1899 -0.3285 -0.4623
  188SAPI   O1421598   1.474   6.468   6.310 -0.3640 -0.4043  0.0170
  188SAPI   O1221599   1.399   6.220   6.312 -0.5518  0.2470 -0.6639
  188SAPI   O1121600   1.469   6.321   6.532  0.4057  0.0152  0.0177
  188SAPI    C121601   1.427   6.406   6.644 -0.7762 -0.1890 -0.6052
  188SAPI    HA21602   1.455   6.509   6.615 -0.1749 -0.5399 -1.2991
  188SAPI    HB21603   1.320   6.393   6.672 -0.7230  0.6735  0.0305
  188SAPI    C221604   1.512   6.364   6.765  0.5869  0.6342  1.0542
  188SAPI    HS21605   1.614   6.399   6.736  0.9064 -0.3218  0.9615
  188SAPI   O2121606   1.502   6.218   6.782  0.1298  0.3657 -0.1523
  188SAPI   C2121607   1.615   6.159   6.781 -0.2777 -0.1311 -0.0359
  188SAPI   O2221608   1.728   6.204   6.760 -0.1561 -0.0042  0.1582
  188SAPI   C2221609   1.582   6.010   6.797 -1.2613 -0.1694 -0.2135
  188SAPI   H2R21610   1.473   6.005   6.777 -1.3246  1.2249 -0.3364
  188SAPI   H2S21611   1.623   5.957   6.708 -1.1938  0.2313 -0.4246
  188SAPI    C321612   1.466   6.421   6.896  0.1792 -0.2239  0.0646
  188SAPI    HX21613   1.367   6.373   6.913  0.1522 -0.1499  0.1188
  188SAPI    HY21614   1.451   6.531   6.887 -0.7931 -0.1635  1.8546
  188SAPI   O3121615   1.548   6.394   7.005 -0.5931  0.5932 -0.3220
  188SAPI   C3121616   1.674   6.444   7.008  0.0930  0.1190  0.2415
  188SAPI   O3221617   1.716   6.528   6.930 -0.6726  0.3409 -0.0777
  188SAPI   C3221618   1.752   6.387   7.121  0.3454  0.3644 -0.1085
  188SAPI   H2X21619   1.775   6.287   7.078  0.9077  0.4060  0.0838
  188SAPI   H2Y21620   1.683   6.377   7.207  3.1159  0.3460  2.2699
  188SAPI   C2321621   1.622   5.935   6.932 -0.1531  0.7530 -0.1176
  188SAPI   H3R21622   1.717   5.971   6.978 -0.0233 -0.7096  0.8224
  188SAPI   H3S21623   1.639   5.828   6.908  0.3788  0.7286  0.3539
  188SAPI   C2421624   1.509   5.935   7.042  0.2270 -0.1843 -0.0747
  188SAPI   H4R21625   1.533   5.859   7.119  0.4585  0.1448  0.1839
  188SAPI   H4S21626   1.420   5.895   6.990 -0.0361 -1.2245  1.1165
  188SAPI   C2521627   1.477   6.069   7.099  0.2968  0.3405 -0.5740
  188SAPI   H5R21628   1.414   6.131   7.034  0.6248  2.6335  1.1733
  188SAPI   C2621629   1.531   6.136   7.206  0.6962  0.2622 -0.1097
  188SAPI   H6R21630   1.499   6.239   7.227 -1.6734 -0.5825  0.8145
  188SAPI   C2721631   1.626   6.083   7.307 -0.3372  0.4446 -0.5492
  188SAPI   H7R21632   1.726   6.132   7.297 -0.4406  0.4167 -1.9850
  188SAPI   H7S21633   1.639   5.973   7.299 -0.3047  0.4214 -0.2176
  188SAPI   C2821634   1.579   6.112   7.448  0.2746 -0.0917  0.2055
  188SAPI   H8R21635   1.472   6.130   7.462  0.4662  0.8603  0.5455
  188SAPI   C2921636   1.653   6.097   7.563 -0.3874 -0.2607 -0.0298
  188SAPI   H9R21637   1.597   6.099   7.658 -1.2168 -2.1133 -0.4197
  188SAPI  C21021638   1.802   6.061   7.572  0.2688  0.3198  0.1039
  188SAPI  H10R21639   1.843   6.119   7.657 -0.2442 -0.8413  1.1989
  188SAPI  H10S21640   1.834   6.119   7.484 -1.0806 -0.1418 -0.7163
  188SAPI  C21121641   1.850   5.920   7.561  0.3844 -0.5703 -0.3412
  188SAPI  H11R21642   1.804   5.861   7.480 -2.9232  1.7690 -0.3779
  188SAPI  C21221643   1.927   5.858   7.656  0.2881  0.5850 -0.0926
  188SAPI  H12R21644   1.963   5.755   7.640 -0.8956 -0.1417  1.6186
  188SAPI  C21321645   1.977   5.914   7.785  0.1969 -0.5341  0.2126
  188SAPI  H13R21646   1.949   5.832   7.855 -1.3313  0.2457  0.5842
  188SAPI  H13S21647   1.918   6.004   7.814  1.2108  0.5462 -0.9749
  188SAPI  C21421648   2.126   5.943   7.792 -0.2626 -0.1599 -0.4762
  188SAPI  H14R21649   2.166   5.994   7.703  0.8738  0.6218  0.4367
  188SAPI  C21521650   2.204   5.936   7.901  0.9365 -0.0113  0.5337
  188SAPI  H15R21651   2.313   5.956   7.895  0.7348  1.0866  0.3298
  188SAPI  C21621652   2.172   5.891   8.040 -0.2527 -0.0374 -0.3733
  188SAPI  H16R21653   2.249   5.831   8.092  2.0927  2.1996 -1.0502
  188SAPI  H16S21654   2.082   5.826   8.033 -0.3437  0.1057 -0.5399
  188SAPI  C21721655   2.143   6.010   8.130 -0.4809  0.1963 -0.2856
  188SAPI  H17R21656   2.053   6.069   8.100 -0.1690  1.1313  0.5586
  188SAPI  H17S21657   2.227   6.083   8.128 -1.2434  1.0918 -0.7650
  188SAPI  C21821658   2.120   5.967   8.277  0.0118 -0.1322 -0.2214
  188SAPI  H18R21659   2.043   5.889   8.296 -0.8954  0.5869 -0.8520
  188SAPI  H18S21660   2.098   6.061   8.333  0.6580 -0.4478  0.5726
  188SAPI  C21921661   2.254   5.916   8.343 -0.6282 -0.4429  0.0889
  188SAPI  H19R21662   2.342   5.974   8.308 -0.6365 -0.5963 -0.1829
  188SAPI  H19S21663   2.266   5.810   8.315 -1.0646 -1.1791  2.4381
  188SAPI  C22021664   2.242   5.929   8.497 -0.0818  0.8167 -0.1244
  188SAPI  H20R21665   2.329   5.881   8.548 -0.6278 -1.3942 -1.1235
  188SAPI  H20S21666   2.142   5.889   8.522 -1.2726  1.9328 -2.6960
  188SAPI  H20T21667   2.251   6.037   8.519 -1.1018  0.5651  1.6507
  188SAPI   C3321668   1.886   6.447   7.145  0.3180  0.1857 -0.4008
  188SAPI   H3X21669   1.878   6.557   7.153 -3.7577  0.0399 -0.6365
  188SAPI   H3Y21670   1.952   6.437   7.056  2.6884  5.4884  0.3447
  188SAPI   C3421671   1.945   6.393   7.272  0.0486  0.0075  0.0478
  188SAPI   H4X21672   2.043   6.444   7.286  0.6720 -1.3923  1.0121
  188SAPI   H4Y21673   1.967   6.284   7.270 -2.0215 -0.4904  1.2010
  188SAPI   C3521674   1.867   6.424   7.398 -0.0883  0.1042 -0.9890
  188SAPI   H5X21675   1.769   6.373   7.406  1.7222 -3.3351  2.4350
  188SAPI   H5Y21676   1.851   6.534   7.393 -0.9029  0.2428  2.4169
  188SAPI   C3621677   1.941   6.390   7.527  0.2098  0.2847  0.1437
  188SAPI   H6X21678   2.029   6.457   7.536 -0.6034  1.1394  2.5408
  188SAPI   H6Y21679   1.976   6.285   7.531  0.8744  0.5386  1.8965
  188SAPI   C3721680   1.856   6.415   7.650  0.1869 -0.3921 -0.4723
  188SAPI   H7X21681   1.760   6.359   7.643 -0.0079 -0.2194  0.5943
  188SAPI   H7Y21682   1.853   6.525   7.664  2.8057 -0.4356  1.2340
  188SAPI   C3821683   1.918   6.381   7.789  0.2497  0.6159  0.5786
  188SAPI   H8X21684   2.025   6.410   7.798  0.3993 -0.6700  4.4894
  188SAPI   H8Y21685   1.925   6.272   7.805  1.1212  0.5759 -0.0337
  188SAPI   C3921686   1.844   6.447   7.907  0.1183 -0.1693  0.0325
  188SAPI   H9X21687   1.743   6.400   7.916 -0.5889  0.8555 -1.8467
  188SAPI   H9Y21688   1.821   6.552   7.879 -0.3474 -0.2711  0.0145
  188SAPI  C31021689   1.906   6.419   8.048  0.7165 -0.1541 -0.0476
  188SAPI  H10X21690   1.940   6.314   8.064  0.5137 -0.1926  0.1416
  188SAPI  H10Y21691   1.816   6.424   8.113  1.0142 -0.2991  0.3803
  188SAPI  C31121692   2.020   6.519   8.088  0.2202 -0.7191  0.4569
  188SAPI  H11X21693   1.997   6.627   8.100  4.2522  0.1799  1.5711
  188SAPI  H11Y21694   2.109   6.501   8.025  0.9323  1.4420  0.7984
  188SAPI  C31221695   2.065   6.472   8.223 -0.0608 -0.0674 -0.7782
  188SAPI  H12X21696   2.095   6.365   8.226 -1.4026 -0.4390  2.3711
  188SAPI  H12Y21697   1.974   6.477   8.286 -0.5364 -1.1391 -1.3381
  188SAPI  C31321698   2.183   6.558   8.273 -0.2725 -0.9340 -0.4945
  188SAPI  H13X21699   2.140   6.659   8.286 -1.1675 -1.0889 -2.0951
  188SAPI  H13Y21700   2.261   6.555   8.194  1.0172 -0.3633  0.7049
  188SAPI  C31421701   2.252   6.521   8.405  0.0323 -0.6955 -0.3062
  188SAPI  H14X21702   2.270   6.411   8.411 -0.7863 -0.8046  0.1788
  188SAPI  H14Y21703   2.176   6.546   8.481  0.1791 -1.8289  0.2345
  188SAPI  C31521704   2.374   6.602   8.428 -0.0259 -0.0967  0.1753
  188SAPI  H15X21705   2.362   6.710   8.407  1.1774  0.4017  1.8436
  188SAPI  H15Y21706   2.455   6.561   8.363 -0.9860 -0.0555 -1.0861
  188SAPI  C31621707   2.438   6.590   8.568  0.4677 -0.3014 -0.0792
  188SAPI  H16X21708   2.520   6.665   8.571 -1.6480  2.1859 -0.6578
  188SAPI  H16Y21709   2.470   6.486   8.592  2.8072  0.6751  1.3699
  188SAPI  C31721710   2.353   6.635   8.690  0.2575 -0.1220  0.8878
  188SAPI  H17X21711   2.260   6.575   8.698  1.0561 -1.5009  0.1219
  188SAPI  H17Y21712   2.318   6.737   8.662 -3.0054 -1.7959 -1.9134
  188SAPI  C31821713   2.421   6.629   8.825 -0.6873  0.2634 -0.7920
  188SAPI  H18X21714   2.435   6.522   8.848 -0.9185  0.6840  1.5826
  188SAPI  H18Y21715   2.360   6.673   8.907 -0.6418  0.0632 -0.6509
  188SAPI  H18Z21716   2.525   6.667   8.810  0.3996 -1.7954  1.0439
  189POPC     N21717   4.293   1.141  10.996  0.7022 -0.2524  0.3267
  189POPC   C1221718   4.231   1.101  10.861  0.8476  0.2723 -0.4800
  189POPC  H12A21719   4.283   1.013  10.825 -0.0077  0.1170 -1.3838
  189POPC  H12B21720   4.251   1.183  10.793  0.2156  0.5123 -0.3812
  189POPC   C1321721   4.430   1.193  10.983  0.3799 -0.9904  0.1278
  189POPC  H13A21722   4.489   1.115  10.935  0.7514 -1.4278  1.2631
  189POPC  H13B21723   4.447   1.284  10.927  3.5201 -2.8512 -2.2947
  189POPC  H13C21724   4.475   1.203  11.080  0.2950 -5.1188  0.7708
  189POPC   C1421725   4.192   1.239  11.060  0.4287  0.0141 -0.4583
  189POPC  H14A21726   4.227   1.253  11.161 -0.0173 -0.0793 -0.2868
  189POPC  H14B21727   4.185   1.329  11.002  0.7281 -0.1321 -0.7219
  189POPC  H14C21728   4.095   1.193  11.072  0.1389  0.3345 -1.5264
  189POPC   C1521729   4.295   1.022  11.089  0.2909 -0.7498 -0.2640
  189POPC  H15A21730   4.376   0.963  11.049  0.9214  0.8211 -1.4075
  189POPC  H15B21731   4.199   0.973  11.088  0.3125 -1.0925  2.9741
  189POPC  H15C21732   4.314   1.055  11.190  0.3809  0.0774 -0.5385
  189POPC   C1121733   4.077   1.073  10.853 -0.3772  0.1238 -0.4746
  189POPC  H11A21734   4.069   1.043  10.746  0.6304 -0.5450 -0.3736
  189POPC  H11B21735   4.010   1.161  10.865  0.4535  0.7272 -0.2058
  189POPC     P21736   3.908   0.877  10.937 -0.2318  0.1407  0.3307
  189POPC   O1321737   3.826   0.935  11.044  0.2510  0.1484 -0.0290
  189POPC   O1421738   3.946   0.733  10.945  0.3122  0.0819 -0.3148
  189POPC   O1221739   4.042   0.969  10.941  0.1687  0.2224 -0.4685
  189POPC   O1121740   3.838   0.921  10.802 -0.4016  0.1854  0.4256
  189POPC    C121741   3.762   0.829  10.732  0.1407 -0.4471  0.0193
  189POPC    HA21742   3.663   0.878  10.718  0.2414  0.7935  3.0859
  189POPC    HB21743   3.743   0.732  10.782 -0.2041 -0.8781 -0.9119
  189POPC    C221744   3.839   0.782  10.601 -0.6078  0.4484 -0.7259
  189POPC    HS21745   3.931   0.730  10.634  0.0962  0.8370 -1.9795
  189POPC   O2121746   3.871   0.905  10.527 -0.2592  0.0740 -0.0242
  189POPC   C2121747   3.974   0.902  10.461 -0.2333 -0.2205  0.8937
  189POPC   O2221748   4.066   0.819  10.474 -0.3960  0.0918 -0.3072
  189POPC   C2221749   3.968   1.020  10.369 -0.0456 -0.0978  0.4434
  189POPC   H2R21750   3.941   1.106  10.435 -1.0210  0.5889 -0.8082
  189POPC   H2S21751   3.888   1.008  10.293  0.2869  1.8086 -0.2591
  189POPC    C321752   3.749   0.682  10.528  0.6746  0.2490  0.6135
  189POPC    HX21753   3.646   0.720  10.515  0.2313 -1.4062 -1.1725
  189POPC    HY21754   3.748   0.591  10.592 -1.8450 -0.4113 -0.2475
  189POPC   O3121755   3.810   0.640  10.400  0.1082 -0.3499  0.0686
  189POPC   C3121756   3.729   0.574  10.313  0.6057  0.0686 -1.0188
  189POPC   O3221757   3.607   0.555  10.318 -0.5685  0.6337 -0.1812
  189POPC   C3221758   3.813   0.523  10.195  0.1139  0.6128 -0.3320
  189POPC   H2X21759   3.756   0.431  10.168 -1.6340  1.6983 -0.4665
  189POPC   H2Y21760   3.917   0.498  10.224 -0.2836 -0.3617  0.3258
  189POPC   C2321761   4.098   1.061  10.306  0.5744 -0.5418  0.6831
  189POPC   H3R21762   4.181   1.055  10.379  1.4319  0.9044 -0.1193
  189POPC   H3S21763   4.079   1.164  10.268 -1.8717 -1.5604 -1.0786
  189POPC   C2421764   4.130   0.966  10.190 -0.1869 -0.6736 -0.6090
  189POPC   H4R21765   4.085   0.868  10.216 -0.8879  0.6151  3.8224
  189POPC   H4S21766   4.239   0.955  10.177 -0.0380 -3.0106  1.8289
  189POPC   C2521767   4.062   1.008  10.061 -0.2953  0.3456 -0.3096
  189POPC   H5R21768   4.091   1.113  10.039 -1.7648  0.3317 -2.7023
  189POPC   H5S21769   3.951   1.002  10.069 -0.1668 -1.8172  0.4715
  189POPC   C2621770   4.104   0.907   9.954  0.3632 -0.0755  0.4810
  189POPC   H6R21771   4.046   0.816   9.979 -0.6855  0.9010  1.7758
  189POPC   H6S21772   4.213   0.895   9.935  0.5715  2.3692 -0.1456
  189POPC   C2721773   4.041   0.948   9.818  0.4038 -0.1082 -0.3052
  189POPC   H7R21774   3.943   0.997   9.838  1.2092  1.0752  0.9995
  189POPC   H7S21775   4.027   0.858   9.755 -2.4021 -0.3905  0.5816
  189POPC   C2821776   4.125   1.055   9.744 -0.7363  0.1151  0.3486
  189POPC   H8R21777   4.180   1.109   9.823  1.8845 -1.3154 -0.3628
  189POPC   H8S21778   4.058   1.110   9.674 -1.0170 -0.2070  0.3565
  189POPC   C2921779   4.231   0.976   9.664 -0.0057 -0.3666 -0.5026
  189POPC   H9121780   4.296   0.909   9.723  1.5378  1.7208  0.2693
  189POPC  C21021781   4.252   0.994   9.534  0.1725  0.5737  0.6850
  189POPC  H10121782   4.329   0.931   9.487 -0.2142  0.5292  0.1053
  189POPC  C21121783   4.181   1.079   9.432  0.4636 -0.0112 -0.4747
  189POPC  H11R21784   4.230   1.179   9.429  0.4645  0.0741  1.1305
  189POPC  H11S21785   4.072   1.086   9.456  0.8611 -0.1662  1.6090
  189POPC  C21221786   4.180   1.025   9.288  0.2614 -0.4962  0.1450
  189POPC  H12R21787   4.134   0.924   9.289  0.6597 -0.7548 -2.3062
  189POPC  H12S21788   4.284   1.029   9.249 -0.1209  0.2981 -0.8412
  189POPC  C21321789   4.097   1.102   9.187 -0.5475  0.2595 -0.2783
  189POPC  H13R21790   3.991   1.108   9.220 -0.6976 -0.2532 -0.6451
  189POPC  H13S21791   4.091   1.050   9.089  1.3270  0.6323 -0.6141
  189POPC  C21421792   4.156   1.231   9.139 -0.7698  0.4880  0.0276
  189POPC  H14R21793   4.246   1.204   9.079 -0.2913 -1.3348  1.5020
  189POPC  H14S21794   4.182   1.299   9.223 -0.2700  2.3057 -1.5157
  189POPC  C21521795   4.052   1.304   9.052  0.4872  0.3109 -0.1134
  189POPC  H15R21796   4.073   1.411   9.032 -2.2271  1.1167  0.9539
  189POPC  H15S21797   3.965   1.298   9.121 -0.2278  4.0122 -0.4978
  189POPC  C21621798   4.009   1.229   8.925 -0.1377  0.0818  0.3418
  189POPC  H16R21799   3.962   1.130   8.942  1.4338 -0.7293  0.1563
  189POPC  H16S21800   4.105   1.204   8.876 -1.2109  2.2242 -3.2389
  189POPC  C21721801   3.925   1.321   8.831  0.5044  0.5392 -0.1444
  189POPC  H17R21802   3.999   1.380   8.774  0.4434 -1.7915 -2.8427
  189POPC  H17S21803   3.858   1.386   8.892 -1.1885 -1.1232 -0.1004
  189POPC  C21821804   3.837   1.237   8.740  0.0619 -0.5463 -0.1773
  189POPC  H18R21805   3.895   1.173   8.671  1.0336 -2.2341  2.0505
  189POPC  H18S21806   3.762   1.300   8.687 -2.5239 -0.3786  3.3064
  189POPC  H18T21807   3.774   1.171   8.803  1.2860 -0.3655  1.3090
  189POPC   C3321808   3.822   0.601  10.064 -0.0222  0.0047  0.3849
  189POPC   H3X21809   3.891   0.687  10.071 -0.5312  0.5233 -0.6979
  189POPC   H3Y21810   3.723   0.643  10.037  0.5286  0.9001 -0.3130
  189POPC   C3421811   3.860   0.506   9.947  0.0453 -0.2442  0.8600
  189POPC   H4X21812   3.792   0.420   9.928 -0.2209 -0.4459  2.6077
  189POPC   H4Y21813   3.958   0.468   9.981 -0.2012  1.2135  3.4889
  189POPC   C3521814   3.866   0.590   9.816 -0.3463  0.0970  0.5177
  189POPC   H5X21815   3.923   0.683   9.838  0.4630 -1.0070  3.7659
  189POPC   H5Y21816   3.762   0.615   9.786 -0.5192  0.2751  1.2476
  189POPC   C3621817   3.938   0.503   9.706 -0.1408  0.0996 -1.1039
  189POPC   H6X21818   3.891   0.404   9.690  0.6356 -0.3571 -0.6089
  189POPC   H6Y21819   4.040   0.478   9.741 -1.4774 -4.2977  0.2899
  189POPC   C3721820   3.948   0.580   9.572  0.2211 -0.6967 -0.2984
  189POPC   H7X21821   3.999   0.678   9.585 -1.1357  0.1429 -1.0041
  189POPC   H7Y21822   3.841   0.599   9.547  0.9700  0.9552 -2.6155
  189POPC   C3821823   3.997   0.508   9.450  0.2158  0.5657 -0.6554
  189POPC   H8X21824   3.948   0.409   9.438 -0.7507  0.9463  0.0907
  189POPC   H8Y21825   4.104   0.482   9.466 -0.4552 -2.7529 -0.9057
  189POPC   C3921826   3.998   0.605   9.329 -0.3109 -0.4475  0.1204
  189POPC   H9X21827   4.054   0.700   9.337  0.5991 -1.0661  1.3341
  189POPC   H9Y21828   3.893   0.632   9.305 -0.4736 -2.6205 -2.0754
  189POPC  C31021829   4.053   0.532   9.204  0.4363  0.1686 -0.1259
  189POPC  H10X21830   3.997   0.437   9.212  1.7214 -0.5885  0.1422
  189POPC  H10Y21831   4.159   0.506   9.222 -0.4185 -3.0107  1.0737
  189POPC  C31121832   4.032   0.586   9.063 -0.1674 -0.2564  0.3816
  189POPC  H11X21833   3.923   0.585   9.039 -0.3288 -0.3763  1.0981
  189POPC  H11Y21834   4.080   0.520   8.988 -0.5813  0.7766 -0.8401
  189POPC  C31221835   4.085   0.732   9.037 -0.3587 -0.2463 -0.7463
  189POPC  H12X21836   4.191   0.746   9.068 -0.8722 -0.8930  1.4726
  189POPC  H12Y21837   4.012   0.804   9.079 -0.2710  1.3117 -3.0597
  189POPC  C31321838   4.098   0.775   8.890  0.2794  0.2281 -0.2555
  189POPC  H13X21839   4.180   0.717   8.843 -0.0080 -1.7487  1.5702
  189POPC  H13Y21840   4.126   0.882   8.905 -0.5902  0.3808  0.3741
  189POPC  C31421841   3.966   0.777   8.816  0.4456  0.7395 -0.2988
  189POPC  H14X21842   3.900   0.850   8.867  2.0200  1.4301  0.8170
  189POPC  H14Y21843   3.921   0.676   8.805  0.3806  0.7511 -0.1391
  189POPC  C31521844   3.975   0.841   8.671  0.3587 -0.8389 -1.0648
  189POPC  H15X21845   4.001   0.949   8.675 -1.2775 -0.4437  0.9306
  189POPC  H15Y21846   3.869   0.846   8.639 -0.5450  2.8175  1.8439
  189POPC  C31621847   4.070   0.779   8.581 -0.6985 -0.1634  0.1243
  189POPC  H16X21848   4.007   0.738   8.499 -0.8320  1.5871 -0.6975
  189POPC  H16Y21849   4.131   0.702   8.632  1.7422  1.9346  0.5700
  189POPC  H16Z21850   4.141   0.852   8.538  0.4834 -0.5386  1.3740
  190POPC     N21851   3.229   2.097  10.729  0.4070 -0.2916 -0.2767
  190POPC   C1221852   3.310   1.963  10.735  0.4247 -0.1935 -0.0972
  190POPC  H12A21853   3.323   1.937  10.839  3.3307  0.5155 -0.2133
  190POPC  H12B21854   3.410   1.991  10.705  0.3712 -1.5393 -1.6522
  190POPC   C1321855   3.100   2.094  10.816 -0.1433 -0.8513  1.1616
  190POPC  H13A21856   3.025   2.022  10.789  1.6933 -2.4987  0.1924
  190POPC  H13B21857   3.129   2.083  10.920 -1.7560  0.0291  1.7305
  190POPC  H13C21858   3.047   2.188  10.815 -0.3846 -0.9941 -0.0656
  190POPC   C1421859   3.312   2.206  10.780 -0.0008 -0.7726  0.6728
  190POPC  H14A21860   3.409   2.208  10.733 -0.8081 -2.7616 -1.2092
  190POPC  H14B21861   3.270   2.305  10.770 -2.3174 -1.9323 -2.8959
  190POPC  H14C21862   3.323   2.201  10.888  1.7246  0.0499  0.5687
  190POPC   C1521863   3.188   2.132  10.588  0.1475  0.2077 -0.4797
  190POPC  H15A21864   3.272   2.160  10.525  1.7916 -1.9101  0.6465
  190POPC  H15B21865   3.113   2.209  10.586 -2.6048 -2.3110 -0.9174
  190POPC  H15C21866   3.144   2.045  10.541 -1.7565 -0.5675  2.4740
  190POPC   C1121867   3.257   1.835  10.669  0.2737  0.7102 -0.2968
  190POPC  H11A21868   3.331   1.755  10.689  0.5301  1.0939  0.2951
  190POPC  H11B21869   3.266   1.838  10.558  2.5465 -0.1089 -0.1874
  190POPC     P21870   3.106   1.700  10.848 -0.6743 -0.0609  0.4743
  190POPC   O1321871   2.981   1.745  10.913  0.0726  0.3943  0.6481
  190POPC   O1421872   3.235   1.704  10.923 -0.0143  0.1166  0.3995
  190POPC   O1221873   3.132   1.788  10.716  0.0868 -0.1800 -0.2787
  190POPC   O1121874   3.082   1.556  10.789 -0.0976  0.2689  0.1325
  190POPC    C121875   3.142   1.510  10.670 -0.6424  0.2170  0.3410
  190POPC    HA21876   3.138   1.399  10.677  0.3484  0.1474 -0.0062
  190POPC    HB21877   3.252   1.527  10.660 -0.3946 -0.2197  1.9769
  190POPC    C221878   3.071   1.555  10.538 -0.6032  0.2665 -0.1313
  190POPC    HS21879   3.067   1.666  10.540  2.7877  0.4930  0.8891
  190POPC   O2121880   2.935   1.503  10.531 -0.8845  0.2233  0.0885
  190POPC   C2121881   2.844   1.585  10.468 -0.0817  0.9050 -0.0240
  190POPC   O2221882   2.869   1.704  10.442  0.2683  0.3545 -0.1579
  190POPC   C2221883   2.715   1.509  10.420  0.4123  0.0078 -0.4669
  190POPC   H2R21884   2.638   1.533  10.496 -0.5722  1.1389 -1.7732
  190POPC   H2S21885   2.744   1.402  10.416 -2.3875 -0.8807  0.8508
  190POPC    C321886   3.161   1.515  10.418  0.8758  0.1341 -0.1921
  190POPC    HX21887   3.178   1.407  10.437 -2.6273 -0.1548  2.3558
  190POPC    HY21888   3.259   1.563  10.442  1.7752 -1.6333 -0.1799
  190POPC   O3121889   3.109   1.547  10.287  0.3109 -0.5533  0.3328
  190POPC   C3121890   3.136   1.674  10.244 -0.4580 -0.0391  0.1459
  190POPC   O3221891   3.232   1.741  10.285  0.2256  0.0700 -0.3482
  190POPC   C3221892   3.038   1.720  10.135 -0.3769  0.5635  0.0427
  190POPC   H2X21893   2.988   1.803  10.189  2.3469  2.3428  0.0510
  190POPC   H2Y21894   2.977   1.631  10.107 -0.7871  0.8887 -0.1060
  190POPC   C2321895   2.678   1.561  10.276 -0.1973 -0.1549 -0.0717
  190POPC   H3R21896   2.696   1.670  10.267 -0.4375 -0.0677  0.4123
  190POPC   H3S21897   2.567   1.548  10.276 -0.3372  0.9076  0.4034
  190POPC   C2421898   2.727   1.476  10.155 -0.2279 -0.2288  0.3418
  190POPC   H4R21899   2.676   1.377  10.157  2.7649 -1.9444 -0.2305
  190POPC   H4S21900   2.835   1.447  10.163  0.2407  0.8722 -1.3967
  190POPC   C2521901   2.709   1.555  10.020  0.4849 -0.1263 -0.0563
  190POPC   H5R21902   2.798   1.621  10.024  0.6147 -0.3102  0.1336
  190POPC   H5S21903   2.618   1.618  10.008 -0.5155 -2.0177 -4.3157
  190POPC   C2621904   2.699   1.462   9.896  0.0752 -0.3583  0.6164
  190POPC   H6R21905   2.633   1.375   9.914 -1.1426  1.0875  3.7808
  190POPC   H6S21906   2.801   1.426   9.869 -0.1112  0.1809 -0.9296
  190POPC   C2721907   2.643   1.538   9.771  0.5135 -0.1951 -0.0883
  190POPC   H7R21908   2.713   1.621   9.745  1.3367 -0.3212  1.5673
  190POPC   H7S21909   2.545   1.574   9.809  0.6894 -0.2539  0.4289
  190POPC   C2821910   2.607   1.443   9.654 -0.4935  0.2577 -0.3082
  190POPC   H8R21911   2.518   1.473   9.595  0.2009 -0.8966 -2.0257
  190POPC   H8S21912   2.588   1.338   9.687  1.2907 -0.6397 -1.9135
  190POPC   C2921913   2.734   1.447   9.571 -0.5311 -0.0232 -0.0480
  190POPC   H9121914   2.814   1.373   9.588 -0.4765 -0.0063 -0.2319
  190POPC  C21021915   2.756   1.536   9.476 -0.3193  0.0859  0.6217
  190POPC  H10121916   2.851   1.543   9.421  1.2366 -0.5752  3.1004
  190POPC  C21121917   2.676   1.656   9.424  0.2037 -0.1938  0.1140
  190POPC  H11R21918   2.710   1.740   9.489 -1.4242  0.7480 -0.1706
  190POPC  H11S21919   2.567   1.638   9.438  0.5188 -2.5131 -0.1144
  190POPC  C21221920   2.693   1.694   9.275 -0.0822  1.2112 -0.8566
  190POPC  H12R21921   2.593   1.728   9.237  0.3505  2.6585 -0.7716
  190POPC  H12S21922   2.739   1.611   9.218  3.0753  2.1286  0.1770
  190POPC  C21321923   2.795   1.807   9.258 -0.3139 -0.1709 -0.7429
  190POPC  H13R21924   2.896   1.778   9.293 -1.1320 -0.8341  1.2021
  190POPC  H13S21925   2.751   1.888   9.320 -1.6670 -1.6477  0.3040
  190POPC  C21421926   2.823   1.852   9.107  0.4563 -0.2212  0.1312
  190POPC  H14R21927   2.727   1.886   9.063  1.3342  0.1995 -1.5300
  190POPC  H14S21928   2.858   1.759   9.056 -0.4819 -0.5909  0.1350
  190POPC  C21521929   2.930   1.960   9.098  0.1795  0.7739 -0.1756
  190POPC  H15R21930   3.019   1.923   9.153  0.5803  0.7381 -0.8409
  190POPC  H15S21931   2.882   2.050   9.142 -2.1485 -0.3170 -0.3484
  190POPC  C21621932   2.976   1.986   8.951 -0.3025  0.4229 -0.5506
  190POPC  H16R21933   3.019   1.888   8.921  0.5243  0.5525  0.1909
  190POPC  H16S21934   3.062   2.055   8.953  0.0890 -0.0653  0.3448
  190POPC  C21721935   2.854   2.028   8.864  0.2787  0.1982  0.0260
  190POPC  H17R21936   2.791   2.098   8.921  0.3862  0.8824 -0.6692
  190POPC  H17S21937   2.788   1.942   8.841 -0.3491  0.9529 -1.1196
  190POPC  C21821938   2.888   2.102   8.736  0.0484 -0.7634  0.0709
  190POPC  H18R21939   2.799   2.144   8.684  2.1559  2.0350 -1.5851
  190POPC  H18S21940   2.937   2.040   8.658  1.4697  0.0128  0.2957
  190POPC  H18T21941   2.966   2.177   8.762 -1.0556 -0.2955  2.2190
  190POPC   C3321942   3.102   1.777  10.008 -0.0662 -0.0287 -0.1638
  190POPC   H3X21943   3.161   1.700   9.955 -0.9124 -0.7364 -0.0985
  190POPC   H3Y21944   3.161   1.865  10.042  0.6147 -0.2902 -0.6518
  190POPC   C3421945   3.008   1.820   9.897 -0.0594 -0.6148  0.3047
  190POPC   H4X21946   2.937   1.888   9.948  1.6717  0.5840  1.2115
  190POPC   H4Y21947   2.954   1.734   9.851 -0.4006  0.6244 -1.7045
  190POPC   C3521948   3.066   1.891   9.781 -0.5336  0.1081  0.1657
  190POPC   H5X21949   3.113   1.811   9.720 -0.4217 -1.0531  1.7218
  190POPC   H5Y21950   3.148   1.959   9.813 -1.6137  2.2140 -1.3130
  190POPC   C3621951   2.962   1.963   9.689  0.1505  0.3348  0.4135
  190POPC   H6X21952   2.907   2.044   9.742 -1.4359  1.0077 -2.0878
  190POPC   H6Y21953   2.889   1.887   9.656  0.8189 -0.9251  1.7242
  190POPC   C3721954   3.036   2.035   9.573 -0.0531  0.7832  0.5267
  190POPC   H7X21955   3.126   1.977   9.544 -0.1119  1.3769 -0.8907
  190POPC   H7Y21956   3.082   2.124   9.620  0.2551  1.2076 -0.5543
  190POPC   C3821957   2.958   2.092   9.455 -1.2037  0.7355  0.1053
  190POPC   H8X21958   2.909   2.011   9.396  1.5077  1.7133 -3.7889
  190POPC   H8Y21959   3.038   2.134   9.392  1.1889 -0.9896  1.8247
  190POPC   C3921960   2.855   2.191   9.512 -0.6969 -0.4482  0.5562
  190POPC   H9X21961   2.886   2.248   9.603 -0.3144 -0.9887  0.7688
  190POPC   H9Y21962   2.764   2.133   9.539 -0.9596 -0.9868 -1.3579
  190POPC  C31021963   2.812   2.299   9.407  0.2887  0.7208  0.6707
  190POPC  H10X21964   2.901   2.334   9.350  0.4597  0.1306  0.5627
  190POPC  H10Y21965   2.762   2.383   9.460 -0.2718  0.6953  0.1864
  190POPC  C31121966   2.713   2.247   9.301 -0.2667 -0.5388 -0.1083
  190POPC  H11X21967   2.614   2.222   9.345 -1.5596  1.4311 -1.6483
  190POPC  H11Y21968   2.751   2.150   9.262 -3.1037 -1.0132 -2.0638
  190POPC  C31221969   2.691   2.341   9.187 -0.9790 -0.6296  0.0766
  190POPC  H12X21970   2.783   2.364   9.129  0.1889 -3.5204  0.6056
  190POPC  H12Y21971   2.650   2.436   9.227  0.5625  0.3997 -0.7166
  190POPC  C31321972   2.610   2.287   9.068 -0.0867 -0.3238 -0.5125
  190POPC  H13X21973   2.509   2.260   9.105 -0.7064  1.3102 -0.9071
  190POPC  H13Y21974   2.664   2.194   9.038 -1.4414 -1.0850 -0.6522
  190POPC  C31421975   2.595   2.383   8.949  0.8282 -0.5375 -0.1615
  190POPC  H14X21976   2.535   2.329   8.872 -0.1427  0.9180 -0.4703
  190POPC  H14Y21977   2.695   2.397   8.903  0.7179 -0.5626 -0.4127
  190POPC  C31521978   2.538   2.521   8.974 -0.0735 -0.2342 -0.4085
  190POPC  H15X21979   2.591   2.566   9.061  0.0449 -0.7692 -0.1988
  190POPC  H15Y21980   2.432   2.509   9.004  0.3340 -2.1790  0.4103
  190POPC  C31621981   2.546   2.607   8.851 -0.8886  1.0102  0.0827
  190POPC  H16X21982   2.507   2.574   8.752  0.6249  0.6168 -0.4083
  190POPC  H16Y21983   2.646   2.647   8.828 -0.7280  0.7246  0.2702
  190POPC  H16Z21984   2.479   2.695   8.862 -2.2282 -0.1733  2.1830
  191POPC     N21985   5.964   2.543   6.444  0.1768 -0.2382  0.1735
  191POPC   C1221986   6.070   2.608   6.527  0.3441  0.1337  0.0692
  191POPC  H12A21987   6.098   2.547   6.612  0.7448 -2.4596 -1.7918
  191POPC  H12B21988   6.017   2.693   6.567 -3.2597 -0.9427 -1.9469
  191POPC   C1321989   5.830   2.528   6.509 -0.4032 -0.4096 -0.7315
  191POPC  H13A21990   5.843   2.494   6.611  0.7576 -2.8589 -1.6378
  191POPC  H13B21991   5.773   2.620   6.511 -2.8804 -1.8348  1.6704
  191POPC  H13C21992   5.757   2.457   6.473 -2.2963 -1.7618  4.7204
  191POPC   C1421993   5.928   2.616   6.317 -0.0767  0.5192 -0.3689
  191POPC  H14A21994   5.895   2.718   6.332 -0.7286  0.3137 -0.3965
  191POPC  H14B21995   6.019   2.627   6.260 -0.4822  1.5189 -0.8524
  191POPC  H14C21996   5.859   2.562   6.254  0.2294  1.6829 -1.7644
  191POPC   C1521997   5.999   2.404   6.412 -0.1857  0.3585  0.1393
  191POPC  H15A21998   6.087   2.409   6.350  0.5807  1.8293  1.2800
  191POPC  H15B21999   5.913   2.359   6.364 -1.0368  1.9199  0.1148
  191POPC  H15C22000   6.027   2.349   6.501 -1.2101  0.0501  0.2877
  191POPC   C1122001   6.210   2.643   6.463 -0.6731 -0.3071 -0.2474
  191POPC  H11A22002   6.266   2.699   6.541  1.6838 -1.0032 -1.3696
  191POPC  H11B22003   6.183   2.710   6.378  0.0861  0.3027 -0.0185
  191POPC     P22004   6.379   2.451   6.510  0.2761 -0.4957 -0.1342
  191POPC   O1322005   6.510   2.520   6.530  0.2996 -0.5054 -0.1923
  191POPC   O1422006   6.387   2.312   6.468 -0.0347 -0.3199 -0.3438
  191POPC   O1222007   6.276   2.527   6.418 -0.2868  0.2002 -0.2106
  191POPC   O1122008   6.298   2.459   6.648  0.4787 -0.2146 -0.1130
  191POPC    C122009   6.329   2.363   6.757  0.1201  0.9957  0.0670
  191POPC    HA22010   6.294   2.408   6.852 -1.5138  0.0731 -0.0697
  191POPC    HB22011   6.437   2.338   6.764 -0.5091 -1.8414  1.0447
  191POPC    C222012   6.253   2.228   6.737 -0.5363  1.0811 -0.1684
  191POPC    HS22013   6.282   2.176   6.643 -0.7652  1.0404 -0.2186
  191POPC   O2122014   6.111   2.260   6.739 -0.3342 -0.2792 -0.3072
  191POPC   C2122015   6.035   2.161   6.709  0.3777 -0.2313  0.2737
  191POPC   O2222016   6.068   2.058   6.653 -0.1388 -0.4633  0.1356
  191POPC   C2222017   5.893   2.182   6.758  0.5144 -0.0933  0.0207
  191POPC   H2R22018   5.817   2.141   6.689 -1.1475  1.8666  0.5897
  191POPC   H2S22019   5.865   2.289   6.749  1.0449 -0.0420 -1.1563
  191POPC    C322020   6.290   2.145   6.864 -0.3385  0.3435 -0.2456
  191POPC    HX22021   6.203   2.076   6.877 -0.0311  0.0879  0.5575
  191POPC    HY22022   6.290   2.216   6.949  0.0170 -1.1113  1.0179
  191POPC   O3122023   6.414   2.087   6.847  0.3029 -0.3488  0.1835
  191POPC   C3122024   6.429   1.956   6.887 -0.4374 -0.3633 -0.1035
  191POPC   O3222025   6.341   1.884   6.935 -0.1768 -0.5247  0.3355
  191POPC   C3222026   6.575   1.923   6.879 -0.2130  0.8218  0.0915
  191POPC   H2X22027   6.624   1.975   6.794 -0.1889  0.2538 -0.2445
  191POPC   H2Y22028   6.587   1.813   6.865  1.1191  0.8949  0.4622
  191POPC   C2322029   5.867   2.136   6.903  0.3435  0.0520  1.1150
  191POPC   H3R22030   5.959   2.109   6.958  0.1108  2.2279  2.6879
  191POPC   H3S22031   5.797   2.050   6.906 -0.2607  0.3611 -1.4141
  191POPC   C2422032   5.785   2.236   6.997 -0.5559 -0.5514  1.0234
  191POPC   H4R22033   5.767   2.190   7.096  0.7523  1.1392  2.1091
  191POPC   H4S22034   5.683   2.266   6.964  0.7098  2.2829 -0.7489
  191POPC   C2522035   5.871   2.370   7.023 -0.3836 -0.0368  0.2763
  191POPC   H5R22036   5.814   2.426   7.100  1.6021  1.5553  0.6646
  191POPC   H5S22037   5.890   2.440   6.939 -0.3866  0.5066  0.7298
  191POPC   C2622038   6.002   2.337   7.098  0.2230  0.1944 -0.0641
  191POPC   H6R22039   6.071   2.274   7.038  1.0544  1.6193 -0.6546
  191POPC   H6S22040   5.986   2.277   7.190 -0.6004  1.3323  0.5654
  191POPC   C2722041   6.073   2.461   7.153  0.0289  0.1011  0.2398
  191POPC   H7R22042   6.000   2.539   7.183 -0.1221 -0.2705  0.8427
  191POPC   H7S22043   6.128   2.502   7.065 -2.0277  0.8939 -0.7490
  191POPC   C2822044   6.182   2.435   7.268 -0.7514  0.1357 -0.3646
  191POPC   H8R22045   6.137   2.384   7.356  0.2787 -2.4604 -1.2600
  191POPC   H8S22046   6.196   2.536   7.311 -0.3770  0.4377 -1.1729
  191POPC   C2922047   6.306   2.362   7.211  0.1037 -0.9587  0.8655
  191POPC   H9122048   6.356   2.409   7.125  0.2032  0.5497  1.7119
  191POPC  C21022049   6.369   2.251   7.257  0.6238  0.0882  0.3201
  191POPC  H10122050   6.465   2.227   7.208  1.3586  0.1083  1.6944
  191POPC  C21122051   6.330   2.177   7.373  0.7452 -0.0314  0.3815
  191POPC  H11R22052   6.401   2.091   7.378  0.1131 -0.5325  1.0067
  191POPC  H11S22053   6.227   2.136   7.370  0.6110  0.3603 -0.7142
  191POPC  C21222054   6.349   2.247   7.504  0.9597 -0.2773 -0.1432
  191POPC  H12R22055   6.285   2.338   7.507  0.4894 -0.6272  1.9923
  191POPC  H12S22056   6.452   2.287   7.505  0.9063 -0.1342 -0.2704
  191POPC  C21322057   6.321   2.174   7.637 -0.0432  0.0081  0.9797
  191POPC  H13R22058   6.403   2.101   7.653  0.6366  0.2717 -1.0083
  191POPC  H13S22059   6.225   2.119   7.627  0.8540 -1.6995  1.2441
  191POPC  C21422060   6.310   2.273   7.750 -0.3024 -0.5070  0.2017
  191POPC  H14R22061   6.223   2.341   7.737  0.1858  0.7272  2.6718
  191POPC  H14S22062   6.399   2.339   7.743 -1.9449  1.6699 -2.0736
  191POPC  C21522063   6.304   2.206   7.892  0.1360  0.2395 -0.4663
  191POPC  H15R22064   6.393   2.140   7.900 -1.8786 -2.7070 -1.0760
  191POPC  H15S22065   6.210   2.147   7.892  0.3801 -0.1845 -1.8515
  191POPC  C21622066   6.288   2.313   8.012  0.7007 -0.2120  0.4699
  191POPC  H16R22067   6.189   2.361   7.993  0.0311 -1.0261  1.7433
  191POPC  H16S22068   6.357   2.400   8.005 -0.8921  0.9627 -3.0925
  191POPC  C21722069   6.289   2.244   8.146  0.2504  0.0486 -0.2941
  191POPC  H17R22070   6.303   2.322   8.224 -1.7390  1.4312 -1.2369
  191POPC  H17S22071   6.372   2.172   8.163 -1.0753 -1.5702 -0.3616
  191POPC  C21822072   6.157   2.172   8.171  0.8217  0.1558 -0.2268
  191POPC  H18R22073   6.134   2.092   8.098  0.3059  0.6544 -0.6195
  191POPC  H18S22074   6.075   2.246   8.160  0.4075 -0.3911 -0.7940
  191POPC  H18T22075   6.154   2.113   8.265 -0.5421  0.6729  0.0746
  191POPC   C3322076   6.638   1.949   7.023 -0.6135  0.7518 -0.4170
  191POPC   H3X22077   6.562   1.940   7.103 -0.9055  0.1927 -0.7505
  191POPC   H3Y22078   6.666   2.057   7.027  1.0824  0.4247 -1.7930
  191POPC   C3422079   6.749   1.852   7.057 -0.2324 -0.0760 -0.2442
  191POPC   H4X22080   6.824   1.851   6.974 -0.2978 -1.2854 -0.2991
  191POPC   H4Y22081   6.711   1.749   7.068 -0.9567  0.2927  0.7892
  191POPC   C3522082   6.818   1.890   7.191  0.7467  0.0112  0.8525
  191POPC   H5X22083   6.840   1.999   7.192  2.1699 -0.2285 -0.3769
  191POPC   H5Y22084   6.911   1.828   7.198 -0.3494 -2.0355 -1.2941
  191POPC   C3622085   6.724   1.870   7.309  0.4461  0.3878 -0.3648
  191POPC   H6X22086   6.691   1.765   7.299  0.0820  0.4439  0.1949
  191POPC   H6Y22087   6.636   1.938   7.310  0.3994  0.3500  1.3211
  191POPC   C3722088   6.795   1.905   7.440 -0.0142 -0.0304  0.3154
  191POPC   H7X22089   6.854   1.999   7.433 -2.2640  1.6627  2.5272
  191POPC   H7Y22090   6.867   1.823   7.461 -0.3609 -0.6564 -0.8711
  191POPC   C3822091   6.692   1.937   7.555  0.4624 -0.2137  0.2834
  191POPC   H8X22092   6.626   1.850   7.572  0.0939 -0.0757 -0.3922
  191POPC   H8Y22093   6.618   2.009   7.514  0.0763 -0.5056  0.4677
  191POPC   C3922094   6.760   1.976   7.695  0.5667 -0.4403 -0.5047
  191POPC   H9X22095   6.815   2.072   7.694  0.0865 -0.1593 -1.3445
  191POPC   H9Y22096   6.837   1.901   7.719  1.8040  1.4958  2.0082
  191POPC  C31022097   6.657   1.988   7.805 -0.0877  0.0211 -0.0155
  191POPC  H10X22098   6.573   1.919   7.781 -0.6998  0.2967  1.2745
  191POPC  H10Y22099   6.604   2.085   7.796  1.4218  0.7162 -1.9286
  191POPC  C31122100   6.723   1.970   7.936  0.6395 -0.0019  0.1718
  191POPC  H11X22101   6.783   2.061   7.958  0.4250  0.0468  0.5530
  191POPC  H11Y22102   6.799   1.888   7.936 -0.2577 -0.8503 -0.3436
  191POPC  C31222103   6.629   1.956   8.054  0.6333  0.3273  0.9856
  191POPC  H12X22104   6.581   1.856   8.048  1.0263 -0.0827  3.5867
  191POPC  H12Y22105   6.549   2.032   8.044 -0.9500 -0.7715  3.9872
  191POPC  C31322106   6.690   1.973   8.197 -0.6384  0.6421 -0.1484
  191POPC  H13X22107   6.774   1.901   8.197 -2.0100 -1.0487  0.1723
  191POPC  H13Y22108   6.607   1.932   8.258 -1.6347  1.1986 -1.0879
  191POPC  C31422109   6.736   2.112   8.236  0.4907 -0.6737  0.1079
  191POPC  H14X22110   6.645   2.176   8.239  1.7160  1.1585  0.0357
  191POPC  H14Y22111   6.790   2.152   8.148 -2.5752  0.7826 -1.2737
  191POPC  C31522112   6.824   2.111   8.358  0.2471 -0.1985 -0.3684
  191POPC  H15X22113   6.905   2.037   8.337 -0.7972 -1.8098  0.9777
  191POPC  H15Y22114   6.767   2.075   8.446 -1.2122  1.5222 -0.5655
  191POPC  C31622115   6.898   2.237   8.390 -0.5907  0.3230  0.2089
  191POPC  H16X22116   6.826   2.321   8.376 -0.6449 -0.0005 -1.8681
  191POPC  H16Y22117   6.978   2.258   8.316  0.9369 -1.3057  1.3302
  191POPC  H16Z22118   6.931   2.250   8.495 -0.1312  0.0269  0.1036
  192POPC     N22119   3.133   5.261   5.766  0.0153  0.7542 -0.6603
  192POPC   C1222120   3.056   5.249   5.896 -0.2073  0.3497  0.3045
  192POPC  H12A22121   3.047   5.144   5.922 -0.8765  0.0669 -0.9650
  192POPC  H12B22122   2.951   5.275   5.885 -1.0204 -2.3439  0.9091
  192POPC   C1322123   3.258   5.181   5.778  0.2650 -0.1702  0.3726
  192POPC  H13A22124   3.235   5.075   5.779 -1.9310  0.2589  0.1907
  192POPC  H13B22125   3.337   5.210   5.710 -1.6852 -1.3309 -2.6293
  192POPC  H13C22126   3.303   5.202   5.873  1.5301  0.6011 -0.3718
  192POPC   C1422127   3.055   5.193   5.659  0.2851  0.2010  0.4172
  192POPC  H14A22128   3.113   5.192   5.567 -0.1730  0.5283  0.1195
  192POPC  H14B22129   3.039   5.088   5.678 -0.3512  0.0532 -0.8132
  192POPC  H14C22130   2.963   5.246   5.641  0.1300  0.4419  1.8683
  192POPC   C1522131   3.153   5.407   5.729 -0.2883 -0.0491 -0.1258
  192POPC  H15A22132   3.211   5.460   5.803  0.6421 -2.8354  1.3110
  192POPC  H15B22133   3.056   5.454   5.722 -0.4117  0.0044  1.5760
  192POPC  H15C22134   3.211   5.413   5.638 -0.2230 -0.0063 -0.0816
  192POPC   C1122135   3.101   5.328   6.023 -0.1465 -0.3867 -0.1570
  192POPC  H11A22136   3.203   5.286   6.037 -0.1417 -0.6992 -1.0427
  192POPC  H11B22137   3.040   5.300   6.112  1.6447  3.2346  2.4506
  192POPC     P22138   3.017   5.573   6.056  0.1286  0.2464  0.2131
  192POPC   O1322139   2.879   5.549   6.017 -0.7923  0.1295 -0.0459
  192POPC   O1422140   3.071   5.706   6.019  0.3350  0.3357  0.1796
  192POPC   O1222141   3.111   5.465   5.995  0.6932  0.1107  0.4632
  192POPC   O1122142   3.027   5.546   6.215 -0.1410 -0.6076 -0.1186
  192POPC    C122143   3.144   5.611   6.263 -0.4637 -0.0036  0.0896
  192POPC    HA22144   3.148   5.721   6.248  0.7927 -0.1683 -0.9738
  192POPC    HB22145   3.233   5.571   6.210  1.7777  2.4134  1.7554
  192POPC    C222146   3.163   5.591   6.419  0.1618  0.1823  0.3641
  192POPC    HS22147   3.146   5.482   6.434  1.6505 -0.0755  0.3835
  192POPC   O2122148   3.070   5.682   6.487  0.1969 -0.4412  0.1171
  192POPC   C2122149   3.033   5.647   6.606  0.6536 -0.0210 -0.6390
  192POPC   O2222150   3.075   5.550   6.668 -0.0999 -0.3463 -0.1188
  192POPC   C2222151   2.938   5.746   6.669  0.0499  0.3378 -0.1758
  192POPC   H2R22152   2.845   5.741   6.608  0.6101 -1.8983 -0.9326
  192POPC   H2S22153   2.980   5.848   6.653 -1.2293  0.6954 -1.4858
  192POPC    C322154   3.312   5.625   6.446 -0.6060  0.2367  0.3610
  192POPC    HX22155   3.351   5.721   6.408  0.3637  0.3199  1.4990
  192POPC    HY22156   3.380   5.553   6.395  0.1322  1.1374  0.0437
  192POPC   O3122157   3.355   5.618   6.584 -0.5013 -0.4512  0.3055
  192POPC   C3122158   3.366   5.492   6.642 -0.3779 -0.0456  0.3665
  192POPC   O3222159   3.344   5.386   6.586  0.4929  0.2822  0.0793
  192POPC   C3222160   3.394   5.508   6.794  0.1548 -0.2296  0.0329
  192POPC   H2X22161   3.358   5.605   6.834  2.6781 -0.1048  2.3362
  192POPC   H2Y22162   3.503   5.500   6.817 -0.2726 -0.1887  2.3658
  192POPC   C2322163   2.907   5.735   6.820 -0.2744 -0.6484  0.0119
  192POPC   H3R22164   2.904   5.628   6.850  1.9220 -0.6342  0.4754
  192POPC   H3S22165   2.804   5.771   6.837 -0.1940 -0.0784 -0.6535
  192POPC   C2422166   3.000   5.823   6.911 -0.4310  0.2251 -0.3138
  192POPC   H4R22167   2.991   5.927   6.873  0.1241  0.8904  1.2973
  192POPC   H4S22168   3.101   5.777   6.900  0.5063  1.4503  2.3081
  192POPC   C2522169   2.940   5.834   7.053 -0.1406 -0.1842  1.1264
  192POPC   H5R22170   2.936   5.732   7.097 -1.1835  0.2071  1.9676
  192POPC   H5S22171   2.834   5.866   7.050 -0.8940 -2.4966  0.2905
  192POPC   C2622172   3.026   5.932   7.135  0.2457 -0.1873 -0.3915
  192POPC   H6R22173   3.037   6.022   7.071 -0.3163 -0.1433 -0.4288
  192POPC   H6S22174   3.130   5.894   7.141  1.1332  1.3511 -3.8394
  192POPC   C2722175   2.975   5.980   7.269 -0.0073  0.2588  0.3115
  192POPC   H7R22176   2.885   6.041   7.246  0.8058  1.6206  0.6686
  192POPC   H7S22177   3.045   6.054   7.313 -1.8469  2.6693 -0.5503
  192POPC   C2822178   2.927   5.871   7.363 -0.0326  0.0849 -0.1508
  192POPC   H8R22179   2.837   5.819   7.323  0.9779 -1.3241 -0.6628
  192POPC   H8S22180   2.904   5.912   7.464 -0.3555 -1.2693  0.3441
  192POPC   C2922181   3.035   5.763   7.380 -0.0190 -0.1140  0.5358
  192POPC   H9122182   3.058   5.711   7.285  0.0756  1.3612 -0.2736
  192POPC  C21022183   3.091   5.716   7.495 -0.2878  0.1858  0.3969
  192POPC  H10122184   3.158   5.630   7.477 -0.9978 -0.2464 -0.2553
  192POPC  C21122185   3.076   5.750   7.643  0.4021 -0.4242  0.2293
  192POPC  H11R22186   2.999   5.828   7.660  1.0642  0.8295 -2.1256
  192POPC  H11S22187   3.171   5.795   7.681 -0.2674 -0.1700  1.6733
  192POPC  C21222188   3.054   5.624   7.722  0.5612  0.2825  0.0710
  192POPC  H12R22189   3.134   5.550   7.703  0.4692 -0.2428  1.6182
  192POPC  H12S22190   2.954   5.580   7.703  0.3219  0.7341  0.2710
  192POPC  C21322191   3.069   5.638   7.873  0.4441 -0.6531 -0.0776
  192POPC  H13R22192   3.178   5.644   7.895  0.4132 -0.4879  0.0311
  192POPC  H13S22193   3.024   5.548   7.922 -0.7502  0.3124  0.6443
  192POPC  C21422194   3.011   5.768   7.935 -0.2544  0.1060  0.3737
  192POPC  H14R22195   2.900   5.769   7.933 -0.2654  1.9571 -1.0730
  192POPC  H14S22196   3.038   5.860   7.879  0.4425 -1.6511 -2.3912
  192POPC  C21522197   3.048   5.776   8.092  0.5308  0.8602  0.4968
  192POPC  H15R22198   2.994   5.864   8.133 -1.0464  0.4743 -0.6484
  192POPC  H15S22199   3.157   5.797   8.095  0.4128  1.8079 -0.9605
  192POPC  C21622200   3.013   5.646   8.167 -0.1001  0.4408  0.0167
  192POPC  H16R22201   3.086   5.564   8.154  0.5916  0.9332  0.7336
  192POPC  H16S22202   2.918   5.605   8.125 -1.2168  1.7333  1.1630
  192POPC  C21722203   2.985   5.667   8.323  0.5280 -0.1447  0.8107
  192POPC  H17R22204   2.904   5.740   8.344  0.6686 -0.2594  1.7994
  192POPC  H17S22205   3.073   5.716   8.370  1.2021  1.0286 -1.5095
  192POPC  C21822206   2.959   5.531   8.398  0.0033 -0.0784 -0.0877
  192POPC  H18R22207   3.038   5.460   8.369  1.1619  1.3887 -0.6472
  192POPC  H18S22208   2.861   5.487   8.372 -1.0820  1.0326  1.8181
  192POPC  H18T22209   2.962   5.552   8.508  1.3380  0.0820 -0.1418
  192POPC   C3322210   3.323   5.392   6.869 -0.0949  0.3353  0.2875
  192POPC   H3X22211   3.350   5.288   6.838 -1.4195  0.5689 -1.8547
  192POPC   H3Y22212   3.215   5.390   6.845  0.1334  0.5413 -0.8137
  192POPC   C3422213   3.351   5.408   7.025 -0.8754 -0.0473 -0.9212
  192POPC   H4X22214   3.459   5.410   7.049 -0.6586 -2.3749 -1.4420
  192POPC   H4Y22215   3.316   5.312   7.069  1.2860 -0.1269  0.8057
  192POPC   C3522216   3.293   5.533   7.090 -1.0229  0.8752  0.1593
  192POPC   H5X22217   3.185   5.542   7.065 -0.6994  1.8522 -0.9618
  192POPC   H5Y22218   3.338   5.628   7.054 -0.8065  0.6835 -0.0854
  192POPC   C3622219   3.309   5.531   7.247  0.8954  0.1303  0.3096
  192POPC   H6X22220   3.258   5.441   7.288  2.9027 -1.8390 -1.2800
  192POPC   H6Y22221   3.249   5.617   7.283  0.4565 -0.7034  1.6747
  192POPC   C3722222   3.449   5.531   7.310  0.2660  0.0326  0.5874
  192POPC   H7X22223   3.495   5.628   7.285 -3.3754  1.3709 -1.7861
  192POPC   H7Y22224   3.516   5.458   7.259  0.5105  0.1397  0.7538
  192POPC   C3822225   3.441   5.519   7.466 -0.3300  0.2588 -0.6073
  192POPC   H8X22226   3.401   5.616   7.504  1.7178  0.2754  1.7501
  192POPC   H8Y22227   3.546   5.508   7.501  0.2218 -1.4932 -2.6207
  192POPC   C3922228   3.356   5.405   7.530 -0.2235 -0.3754  0.2668
  192POPC   H9X22229   3.370   5.311   7.472  1.6251  0.0382 -0.0175
  192POPC   H9Y22230   3.248   5.425   7.518 -0.2130 -0.5613 -0.1571
  192POPC  C31022231   3.388   5.393   7.676  0.1797  0.1259 -0.2846
  192POPC  H10X22232   3.374   5.482   7.740 -2.2016 -2.9976  4.0980
  192POPC  H10Y22233   3.497   5.374   7.688  0.7640  2.8231 -0.7810
  192POPC  C31122234   3.309   5.283   7.742 -0.0936 -0.3201  0.0540
  192POPC  H11X22235   3.331   5.185   7.694 -1.7705 -0.8546  0.2989
  192POPC  H11Y22236   3.199   5.295   7.736 -0.6341 -4.4613 -1.7189
  192POPC  C31222237   3.349   5.283   7.884 -0.4160 -1.0614 -0.8532
  192POPC  H12X22238   3.324   5.383   7.925 -0.5345 -1.0028 -1.0628
  192POPC  H12Y22239   3.458   5.266   7.890 -0.5113 -1.6098 -0.5786
  192POPC  C31322240   3.287   5.177   7.975 -0.1361  1.3080  0.2470
  192POPC  H13X22241   3.358   5.092   7.986 -0.5610  1.0402  1.0256
  192POPC  H13Y22242   3.192   5.133   7.939  0.6495 -0.7885  0.5427
  192POPC  C31422243   3.261   5.220   8.115 -0.4484 -0.5469 -0.6743
  192POPC  H14X22244   3.185   5.156   8.166 -0.0865  0.1335  0.7884
  192POPC  H14Y22245   3.215   5.322   8.112 -1.4787 -0.9154  1.0567
  192POPC  C31522246   3.381   5.212   8.218  0.1687 -0.1112  0.5757
  192POPC  H15X22247   3.462   5.279   8.181  2.2895 -2.2081  1.1245
  192POPC  H15Y22248   3.419   5.108   8.218  3.7449  0.9815 -2.1932
  192POPC  C31622249   3.350   5.268   8.358  0.3349 -0.3264 -0.5792
  192POPC  H16X22250   3.263   5.221   8.409  1.4853 -0.3970  1.4488
  192POPC  H16Y22251   3.323   5.374   8.340  1.9122 -0.1783 -2.3165
  192POPC  H16Z22252   3.441   5.259   8.420 -1.1466 -1.8089  1.5144
  193SOD    SOD22253   6.148   2.830  15.569  0.0739 -0.2135  0.1705
  194SOD    SOD22254   4.866   1.915   2.785  0.3999  0.0687  0.4824
  195SOD    SOD22255   1.725   5.833   5.863  0.5038  0.1504 -0.2197
  196SOD    SOD22256   5.877   5.718   0.468 -0.5054 -0.3608 -0.1353
  197SOD    SOD22257   6.666   2.251   2.827  0.3962 -0.2333  0.4332
  198SOD    SOD22258   2.561   5.910  16.409  0.1293  0.0106  0.1178
  199SOD    SOD22259   2.141   4.584  11.332 -0.0744  0.2814 -0.3333
  200SOD    SOD22260   1.205   4.528   2.576 -0.2907 -0.1261 -0.1020
  201SOD    SOD22261   3.755   1.253   2.991  0.0889 -0.0244 -0.3628
  202SOD    SOD22262   5.369   0.486  11.516  0.2937  0.3070  0.4547
  203SOD    SOD22263   3.824   1.413  13.388 -0.3091  0.1092  0.3847
  204SOD    SOD22264   4.685   1.894  14.561 -0.2518 -0.1081  0.2928
  205SOD    SOD22265   4.464   4.756   5.575 -0.1564  0.0649 -0.2277
  206SOD    SOD22266   0.520   0.400   6.381 -0.1829 -0.3840 -0.0459
  207SOD    SOD22267   3.519   2.913  15.926  0.0162 -0.1936  0.3586
  208SOD    SOD22268   0.955   3.989  10.796 -0.3992 -0.0173 -0.4105
  209SOD    SOD22269   6.119   6.254   6.388  0.0712 -0.0137  0.3741
  210SOD    SOD22270   4.840   2.333   3.578  0.2154  0.4697 -0.2460
  211SOD    SOD22271   1.150   5.246   2.978  0.0373 -0.0306  0.3355
  212SOD    SOD22272   0.757   1.748  11.159 -0.8253  0.0839  0.4688
  213SOD    SOD22273   4.039   5.132  15.268  0.2879  0.3994 -0.5662
  214SOD    SOD22274   5.780   4.720   5.793 -0.5281  0.5037 -0.0684
  215SOD    SOD22275   3.726   2.128   5.718  0.2946 -0.2545 -0.1088
  216SOD    SOD22276   6.354   3.172   4.593 -0.3502 -0.2277 -0.1549
  217SOD    SOD22277   3.692   5.407  10.471  0.1973  0.0994 -0.4989
  218SOD    SOD22278   0.335   1.922   2.518 -0.5678 -0.2400  0.5810
  219SOD    SOD22279   6.537   0.663   2.150 -0.4323 -0.2971 -0.4245
  220SOD    SOD22280   4.426   0.570   3.037 -0.2019 -0.2105 -0.3503
  221SOD    SOD22281   2.021   4.884   6.248  0.0388 -0.1844  0.4254
  222SOD    SOD22282   5.809   2.040  14.381  0.0390 -0.0295  0.2446
  223SOD    SOD22283   1.545   0.946  12.574 -0.6155  0.1405  0.4255
  224SOD    SOD22284   0.721   2.160   6.189  0.1323 -0.0706  0.4054
  225SOD    SOD22285   2.290   5.585  11.533  0.4936 -0.4648 -0.4707
  226SOD    SOD22286   2.406   2.238  11.503 -0.2998  0.5467  0.2970
  227SOD    SOD22287   4.463   6.053  10.750  0.4452  0.3887 -0.2806
  228SOD    SOD22288   1.245   6.213  11.726 -0.0441  0.2671  0.2693
  229SOD    SOD22289   3.601   0.336  13.179  0.5400  0.0162  0.8435
  230SOD    SOD22290   5.503   5.310   2.523 -0.5597  0.6554  0.0073
  231SOD    SOD22291   1.994   2.027  13.668 -0.0226 -0.1945 -0.7693
  232SOD    SOD22292   0.423   0.122   2.977  0.0492  0.1654 -0.2889
  233SOD    SOD22293   1.480   2.093   4.009 -0.1805 -0.1303 -0.1139
  234SOD    SOD22294   3.071   0.024  14.784  0.1730 -0.1516 -0.3593
  235SOD    SOD22295   3.295   3.185  10.640  0.5080  0.2392 -0.1322
  236SOD    SOD22296   6.295   2.194  11.404 -0.4434 -0.1902 -0.2042
  237SOD    SOD22297   6.774   6.167   3.797 -0.3335  0.2664  0.3119
  238SOD    SOD22298   0.161   0.968   3.393  0.0876  0.1122  0.4837
  239SOD    SOD22299   5.284   3.481   4.193  0.3015 -0.2964 -0.4818
  240SOD    SOD22300   5.261   1.935   1.310 -0.3809  0.1538 -0.1385
  241SOD    SOD22301   3.956   4.995  16.230  0.4687 -0.0859 -0.1592
  242SOD    SOD22302   5.947   5.771  14.708  0.1170 -0.4041 -0.4349
  243SOD    SOD22303   3.029   1.904  11.249 -0.1451 -0.2528 -0.3890
  244SOD    SOD22304   0.761   5.210   3.736  0.3037 -0.3554  0.0378
  245SOD    SOD22305   3.221   5.727  14.115 -0.4944  0.4236  0.1793
  246SOD    SOD22306   4.446   6.200   3.808 -0.4359 -0.7331 -0.5390
  247SOD    SOD22307   2.615   5.108   5.886  0.5093 -0.0195 -0.1356
  248SOD    SOD22308   4.103   5.236  12.345  0.2418  0.0236  0.1085
  249SOD    SOD22309   2.251   4.842   1.309 -0.5908 -0.3059 -0.5523
  250SOD    SOD22310   2.660   3.878  12.496 -0.1585 -0.3477 -0.6592
  251SOD    SOD22311   5.634   4.673   1.398  0.2921  0.0459 -0.0188
  252SOD    SOD22312   6.460   6.344  14.144  0.0321 -0.2780  0.4266
  253SOD    SOD22313   2.205   2.279   3.097 -0.4475  0.0983  0.2499
  254SOD    SOD22314   2.945   5.983   1.926  0.1237  0.1033 -0.1249
  255SOD    SOD22315   5.173   3.823   2.415 -0.2442 -0.1455  0.6251
  256SOD    SOD22316   1.092   4.636   1.072  0.0409  0.2660  0.4526
  257SOD    SOD22317   5.152   6.652   4.999  0.3206  0.0501  0.4089
  258SOD    SOD22318   4.820   3.622  15.492  0.0555 -0.5524 -0.2853
  259SOD    SOD22319   0.407   4.541  12.757  0.1971  0.1295 -0.0166
  260SOD    SOD22320   2.374   2.339   2.227 -0.1160  0.6595  0.1721
  261SOD    SOD22321   0.093   4.399   2.650  0.3238 -0.3744  0.1984
  262SOD    SOD22322   4.891   6.445   3.304  0.5848 -0.2133 -0.0274
  263SOD    SOD22323   3.287   5.899   3.989  0.7862  0.4612 -0.0514
  264SOD    SOD22324   3.001   0.746   5.292  0.5334 -0.1283  0.1020
  265SOD    SOD22325   2.740   5.808   0.873 -0.4634 -0.0124 -0.0929
  266SOD    SOD22326   3.966   4.200  13.747  0.4965 -0.1972 -0.3020
  267SOD    SOD22327   1.005   3.109  15.432 -0.4368  0.1532  0.0624
  268SOD    SOD22328   3.275   0.361  11.479 -0.7135 -0.4735  0.1810
  269SOD    SOD22329   5.385   3.719  10.856 -0.3890  0.0368 -0.3096
  270CLA    CLA22330   0.574   2.488   2.911 -0.0166 -0.1291  0.0497
  271CLA    CLA22331   4.651   6.447  12.472  0.0293 -0.0434 -0.3329
  272CLA    CLA22332   1.709   6.544   5.885 -0.1897 -0.0462 -0.6249
  273CLA    CLA22333   6.698   5.703   1.647 -0.0751  0.0215  0.2692
  274CLA    CLA22334   2.609   3.809  11.274  0.1469  0.1456  0.4891
  275CLA    CLA22335   6.755   3.720  16.973  0.2885  0.5664  0.0875
  276CLA    CLA22336   3.948   0.895  14.850 -0.0729  0.0077  0.0126
  277CLA    CLA22337   5.617   4.016  13.988 -0.0154  0.3390  0.2998
  278CLA    CLA22338   6.343   1.776   3.318 -0.3680 -0.1727 -0.2203
  279CLA    CLA22339   5.012   4.323  13.232 -0.3455 -0.3091  0.6092
  280CLA    CLA22340   4.957   3.908  15.219  0.0257  0.7096 -0.1540
  281CLA    CLA22341   4.299   2.888   3.012  0.1833  0.2414 -0.1491
  282CLA    CLA22342   4.256   5.339  16.030 -0.1947 -0.3187 -0.2810
  283CLA    CLA22343   5.841   3.491   4.228  0.0331 -0.3063  0.0586
  284CLA    CLA22344   0.958   4.690  12.813  0.4433  0.0588 -0.2259
  285CLA    CLA22345   0.914   6.161   2.027  0.3011  0.3923  0.2350
  286CLA    CLA22346   6.668   6.255  16.912  0.0660 -0.0425 -0.1525
  287CLA    CLA22347   3.567   6.363   4.268 -0.5381  0.1788 -0.7689
  288CLA    CLA22348   3.521   1.187   2.071  0.2271  0.1104  0.1277
  289CLA    CLA22349   2.372   0.572   3.367 -0.4659 -0.0180 -0.2011
  290CLA    CLA22350   4.879   2.082   1.669 -0.0517  0.0060  0.1252
  291CLA    CLA22351   2.181   0.305  11.944  0.3842  0.0849  0.0549
  292CLA    CLA22352   6.567   5.047   0.377  0.0495  0.3305 -0.2102
  293CLA    CLA22353   0.875   5.754  13.730  0.1830 -0.2552 -0.2342
  294CLA    CLA22354   3.655   4.098   2.819  0.3484  0.0415 -0.2593
  295CLA    CLA22355   0.137   1.208  16.238  0.0048 -0.1520 -0.2226
  296CLA    CLA22356   0.976   2.365  13.435 -0.2070 -0.0014  0.5680
  297CLA    CLA22357   0.507   6.059   1.824 -0.1724  0.1231 -0.2545
  298CLA    CLA22358   5.140   2.566   3.262  0.1581 -0.0655  0.3690
  299CLA    CLA22359   3.807   2.635  16.329 -0.1421  0.0872  0.1381
  300CLA    CLA22360   5.038   6.231   4.922  0.0113 -0.1645  0.0018
  301CLA    CLA22361   6.190   6.334  14.117 -0.3534  0.0581  0.0305
  302CLA    CLA22362   4.713   5.611   2.007 -0.1249  0.1209 -0.3384
  303CLA    CLA22363   1.096   6.243   1.256 -0.3215 -0.3534  0.3266
  304CLA    CLA22364   0.683   4.044   3.191 -0.0136  0.0538 -0.2138
  305CLA    CLA22365   5.857   6.799   3.053  0.0053 -0.2680 -0.2697
  306CLA    CLA22366   3.238   3.670   2.389  0.5104  0.0287  0.3575
  307CLA    CLA22367   1.491   5.338  16.492 -0.1783  0.1280 -0.3321
  308CLA    CLA22368   3.268   3.579  13.402 -0.2364  0.0472  0.0115
  309CLA    CLA22369   4.098   2.855  14.076  0.4979 -0.2705 -0.3834
  310CLA    CLA22370   5.833   2.338   0.184 -0.2270 -0.1373  0.3436
  311CLA    CLA22371   3.441   0.774   3.088 -0.3814  0.2657  0.0185
  312CLA    CLA22372   5.586   5.178   2.018 -0.0023 -0.0235  0.0150
  313CLA    CLA22373   6.042   1.075   2.241  0.1188  0.0661  0.3754
  314CLA    CLA22374   2.527   5.959   1.312  0.2819 -0.1874 -0.1353
  315CLA    CLA22375   5.161   5.253  13.282 -0.1487  0.2631  0.0658
  316CLA    CLA22376   1.772   6.171  14.108 -0.1177 -0.0548  0.1573
  317CLA    CLA22377   3.854   5.833  11.386 -0.0223  0.0851  0.0138
  318CLA    CLA22378   2.664   5.314  13.350 -0.0494 -0.0524  0.0271
  319CLA    CLA22379   1.729   3.698   3.727  0.2024 -0.0152 -0.2605
  320CLA    CLA22380   4.829   6.228   4.181 -0.1199 -0.1180  0.3968
  321CLA    CLA22381   5.668   3.103  14.994 -0.0114  0.0802 -0.1489
  322CLA    CLA22382   6.808   4.804  13.310  0.2097  0.1322  0.4473
  323TIP3   OH222383   1.435   0.286   0.082 -0.3561 -0.7953  0.3335
  323TIP3    H122384   1.347   0.323   0.083  0.2686  0.7773 -0.3135
  323TIP3    H222385   1.481   0.334   0.013  1.0742 -1.4352  0.7985
  324TIP3   OH222386   0.382   5.336  16.420  0.3444 -0.4056 -0.0053
  324TIP3    H122387   0.366   5.320  16.513  1.5490 -0.1020  0.2762
  324TIP3    H222388   0.355   5.255  16.377 -0.7562 -0.3447  0.5379
  325TIP3   OH222389   2.579   2.745   4.208 -0.2332 -0.1581 -0.4019
  325TIP3    H122390   2.554   2.796   4.285 -2.0533 -0.4370 -0.7735
  325TIP3    H222391   2.502   2.746   4.152  0.6863 -0.8836 -1.7454
  326TIP3   OH222392   4.033   0.755  15.257  0.6714 -0.3900  0.6370
  326TIP3    H122393   4.125   0.773  15.276  1.2165 -1.8682 -0.4082
  326TIP3    H222394   4.029   0.660  15.244 -0.7434 -0.1901 -0.6973
  327TIP3   OH222395   3.309   5.642  13.691 -0.2638  0.0470  0.2016
  327TIP3    H122396   3.247   5.622  13.620 -0.6380  0.9000  0.2771
  327TIP3    H222397   3.254   5.677  13.761  0.1755 -0.2528  0.7045
  328TIP3   OH222398   6.718   1.167   0.687 -0.8643  0.1299  0.3061
  328TIP3    H122399   6.666   1.127   0.756 -1.0808 -1.5153 -0.7694
  328TIP3    H222400   6.656   1.188   0.617 -0.9448  3.3613  1.1627
  329TIP3   OH222401   3.284   1.107   4.368  0.5019 -0.8731 -0.2904
  329TIP3    H122402   3.357   1.146   4.319  0.2620  0.6624  0.5400
  329TIP3    H222403   3.281   1.156   4.450 -1.7364 -0.6288 -0.4727
  330TIP3   OH222404   4.943   2.625  17.000 -0.4641  0.3633 -0.1838
  330TIP3    H122405   4.915   2.574  17.075 -1.3849 -0.8951 -1.3282
  330TIP3    H222406   5.034   2.600  16.985 -0.4461  0.2187  0.1754
  331TIP3   OH222407   0.161   0.982   4.915 -0.4990  0.0007 -0.3703
  331TIP3    H122408   0.190   0.984   4.823 -0.2167  1.7828 -0.2856
  331TIP3    H222409   0.090   0.918   4.916  0.5277 -1.2366 -1.4907
  332TIP3   OH222410   1.647   3.353   0.930  0.4938  0.3313  0.3998
  332TIP3    H122411   1.644   3.299   0.851  0.4316 -2.5031  2.1892
  332TIP3    H222412   1.591   3.428   0.910  1.1488  0.1945 -2.4790
  333TIP3   OH222413   3.900   6.004  15.967 -0.0224  0.2945 -0.1019
  333TIP3    H122414   3.978   5.952  15.950  0.4705  0.8750  0.3410
  333TIP3    H222415   3.879   6.044  15.882  0.1023  0.0756 -0.2387
  334TIP3   OH222416   4.938   6.112   4.439 -0.7786  0.9251  0.3836
  334TIP3    H122417   4.983   6.031   4.416 -0.2401  0.5217  2.6035
  334TIP3    H222418   4.899   6.142   4.357  0.4574 -0.6518 -0.8508
  335TIP3   OH222419   3.958   4.676   3.469  0.5768  0.1693  0.1469
  335TIP3    H122420   3.971   4.717   3.384 -1.6585 -1.0536 -0.8914
  335TIP3    H222421   3.964   4.582   3.451 -1.3096 -0.1746  0.9850
  336TIP3   OH222422   0.213   3.564   3.748  0.3991 -0.3324  0.0931
  336TIP3    H122423   0.297   3.575   3.705 -0.9989  0.2411 -2.6884
  336TIP3    H222424   0.148   3.591   3.683 -1.9869 -1.3015  1.8989
  337TIP3   OH222425   4.958   2.687   0.662 -0.1633 -0.0856 -0.3345
  337TIP3    H122426   4.930   2.767   0.706 -1.4044  0.1987 -1.5938
  337TIP3    H222427   4.881   2.657   0.614  1.2816  0.0091 -2.8869
  338TIP3   OH222428   3.663   4.085   0.712 -0.1259 -0.5862 -0.3468
  338TIP3    H122429   3.646   4.165   0.763  0.9077 -1.4332  1.4428
  338TIP3    H222430   3.583   4.070   0.663 -0.5719  1.1968 -0.2393
  339TIP3   OH222431   3.489   0.058  14.042  0.0555 -0.0222  0.0587
  339TIP3    H122432   3.469   0.029  14.131 -0.8146 -0.0707 -0.1449
  339TIP3    H222433   3.584   0.069  14.041  0.1277 -0.5285  0.8387
  340TIP3   OH222434   5.665   6.519  14.211  0.0557  0.1414 -0.5521
  340TIP3    H122435   5.716   6.574  14.151 -0.0497 -0.2721 -1.0242
  340TIP3    H222436   5.658   6.435  14.167  1.2095 -0.6406  0.6734
  341TIP3   OH222437   0.702   5.080   5.084  0.0677  0.0719  0.4037
  341TIP3    H122438   0.755   5.007   5.118  0.0786 -0.5427 -0.8571
  341TIP3    H222439   0.613   5.045   5.082 -0.1019  0.4771  0.8072
  342TIP3   OH222440   2.090   4.369  16.929  0.4616  0.4633 -0.0653
  342TIP3    H122441   2.020   4.434  16.928 -0.4970 -0.4603  2.0898
  342TIP3    H222442   2.045   4.285  16.929  1.4024 -0.1565  3.3059
  343TIP3   OH222443   6.104   3.473  14.559  0.0439 -0.1568 -0.4836
  343TIP3    H122444   6.011   3.485  14.538  0.5129  2.6199 -1.2678
  343TIP3    H222445   6.103   3.411  14.632 -2.5120  0.5513  0.2017
  344TIP3   OH222446   1.046   1.183   0.459  0.6966  0.0538 -0.0379
  344TIP3    H122447   1.090   1.267   0.451  0.2692  0.1813 -1.2625
  344TIP3    H222448   1.114   1.118   0.446  0.9472  0.2089  0.4749
  345TIP3   OH222449   1.478   6.417  12.242  1.1985 -0.9426  0.3949
  345TIP3    H122450   1.533   6.481  12.288  1.2747 -1.0418  0.4440
  345TIP3    H222451   1.410   6.395  12.305  1.3717 -1.1674  0.5029
  346TIP3   OH222452   4.627   6.574  14.631  0.0951  0.0879  0.1833
  346TIP3    H122453   4.609   6.590  14.539 -0.2238  0.3655  0.2906
  346TIP3    H222454   4.595   6.653  14.676  0.9601  0.2920  0.4521
  347TIP3   OH222455   6.188   4.091  11.596 -0.2104  0.0961 -0.3733
  347TIP3    H122456   6.247   4.148  11.546  0.3036  1.4692  1.6639
  347TIP3    H222457   6.247   4.037  11.650 -0.7405  0.9022  1.0715
  348TIP3   OH222458   2.806   4.729   3.359 -0.0772  0.6417  0.3640
  348TIP3    H122459   2.849   4.683   3.431 -0.5486 -3.2913 -1.6027
  348TIP3    H222460   2.712   4.722   3.378 -0.2272 -0.8202 -0.7349
  349TIP3   OH222461   5.192   3.922  16.770  0.1079  0.6732 -0.5689
  349TIP3    H122462   5.157   4.003  16.808 -1.3189 -0.0721 -0.2217
  349TIP3    H222463   5.130   3.901  16.700  0.1280 -0.4321 -0.2611
  350TIP3   OH222464   3.323   3.828   0.822  0.1122 -0.5121 -0.2340
  350TIP3    H122465   3.245   3.779   0.845 -1.7636  2.7443  0.9596
  350TIP3    H222466   3.375   3.831   0.903 -0.7921  1.0784  0.3336
  351TIP3   OH222467   6.016   2.789   1.448  0.2945 -0.1278  0.6147
  351TIP3    H122468   6.037   2.708   1.402  1.6834  0.5556 -0.0173
  351TIP3    H222469   5.976   2.845   1.382 -0.1951 -0.1098  0.9224
  352TIP3   OH222470   0.393   1.898   0.256 -0.1342  0.4855  0.4058
  352TIP3    H122471   0.356   1.947   0.182  0.5534 -0.7894 -0.8323
  352TIP3    H222472   0.476   1.942   0.274 -0.9015  1.6212  1.3457
  353TIP3   OH222473   0.794   3.611   1.416 -0.2768  0.4769  0.0794
  353TIP3    H122474   0.779   3.611   1.321 -0.9886  1.8512  0.1632
  353TIP3    H222475   0.767   3.698   1.444  1.3186  0.6121  1.3404
  354TIP3   OH222476   6.109   2.915   5.691  0.0621 -0.6002  0.3619
  354TIP3    H122477   6.019   2.914   5.657  0.4182 -1.1764 -0.5907
  354TIP3    H222478   6.101   2.882   5.780 -0.7494 -0.0721  0.5017
  355TIP3   OH222479   3.179   6.247  11.637  0.3404  0.4940  0.0298
  355TIP3    H122480   3.109   6.251  11.572  0.5851 -1.4965 -0.4248
  355TIP3    H222481   3.234   6.322  11.619 -0.5052  0.8812 -0.9983
  356TIP3   OH222482   6.036   1.485   2.435 -0.0661  0.4530 -0.3994
  356TIP3    H122483   6.045   1.553   2.502  1.5204  0.8140 -0.9357
  356TIP3    H222484   6.126   1.464   2.410 -0.4384 -2.3776  0.2415
  357TIP3   OH222485   1.216   0.739   0.234  0.2700  0.1906  0.3662
  357TIP3    H122486   1.218   0.653   0.277  0.3431 -0.4469 -0.8575
  357TIP3    H222487   1.156   0.728   0.161  1.4686  0.6994 -0.7447
  358TIP3   OH222488   4.335   1.355   3.695 -0.5036  0.3909  0.5247
  358TIP3    H122489   4.257   1.309   3.725  0.0170 -0.2110  0.9627
  358TIP3    H222490   4.402   1.287   3.688  0.3506  1.1101  1.4275
  359TIP3   OH222491   5.358   6.372   1.891 -0.4703 -0.0704 -0.6405
  359TIP3    H122492   5.329   6.293   1.937 -0.1680  0.7822  1.0724
  359TIP3    H222493   5.371   6.343   1.800  0.6892 -2.2442  0.1602
  360TIP3   OH222494   3.778   6.552  11.643  0.4524  0.1473  0.1985
  360TIP3    H122495   3.693   6.541  11.600 -0.1057 -0.4695  1.4191
  360TIP3    H222496   3.788   6.475  11.698  2.6227 -0.6682 -1.2068
  361TIP3   OH222497   6.123   1.123  16.884  0.1747 -0.2378  0.8840
  361TIP3    H122498   6.122   1.153  16.975  1.2854  0.3117  0.7335
  361TIP3    H222499   6.194   1.058  16.881  0.5610  0.1994  0.2876
  362TIP3   OH222500   1.887   0.491  11.638  0.3184 -0.3219  0.0083
  362TIP3    H122501   1.847   0.526  11.718 -0.1989 -0.0200 -0.3795
  362TIP3    H222502   1.980   0.486  11.659  0.2285  0.0284  0.5337
  363TIP3   OH222503   5.435   4.748   5.175  0.4375  0.2710  0.9197
  363TIP3    H122504   5.493   4.687   5.219 -0.4399 -0.4231  1.1576
  363TIP3    H222505   5.375   4.779   5.243  0.6598  1.1566  0.7323
  364TIP3   OH222506   1.485   6.352   5.563  0.4151  0.0762  0.0036
  364TIP3    H122507   1.464   6.385   5.651 -0.2755  0.3027 -0.2395
  364TIP3    H222508   1.504   6.431   5.512  1.2615 -0.0847  0.0564
  365TIP3   OH222509   6.163   4.129  16.100 -0.3805  0.1951  0.0742
  365TIP3    H122510   6.117   4.204  16.138 -0.0914 -0.3028  1.4668
  365TIP3    H222511   6.233   4.110  16.162  0.8678  0.0681 -1.3086
  366TIP3   OH222512   5.275   4.869  15.104 -0.1785  0.5698  0.7170
  366TIP3    H122513   5.351   4.836  15.057  0.1660  1.4586  0.6189
  366TIP3    H222514   5.305   4.953  15.141 -1.4729  1.5659 -0.3822
  367TIP3   OH222515   1.207   2.859  12.826  0.1636 -0.1785 -0.1584
  367TIP3    H122516   1.190   2.953  12.833  1.8856  0.1156  0.4157
  367TIP3    H222517   1.258   2.849  12.745  0.1043 -0.6188 -0.1494
  368TIP3   OH222518   6.534   3.348   3.056  0.7959 -0.0873 -0.4205
  368TIP3    H122519   6.610   3.311   3.012  0.5338  0.3637 -1.2905
  368TIP3    H222520   6.510   3.283   3.122  0.7646 -1.1624 -1.4435
  369TIP3   OH222521   4.090   0.061  12.409 -0.5307 -0.0238 -0.2752
  369TIP3    H122522   4.057   0.065  12.499  1.6740 -2.4207  0.7625
  369TIP3    H222523   4.041   0.129  12.362 -2.4328  0.6584  2.4856
  370TIP3   OH222524   0.732   6.011   4.547  0.0101 -0.0861 -0.4836
  370TIP3    H122525   0.826   6.007   4.564  0.0759  0.2408 -0.7513
  370TIP3    H222526   0.693   6.026   4.633 -0.0801 -3.5845  0.2223
  371TIP3   OH222527   5.169   4.481   3.610  0.3087  0.4237 -0.0915
  371TIP3    H122528   5.230   4.484   3.537  1.1520  3.5215  0.6133
  371TIP3    H222529   5.084   4.502   3.571 -0.1078 -2.0952 -0.7608
  372TIP3   OH222530   2.959   4.349  12.168  0.0364  0.5154  0.0639
  372TIP3    H122531   2.881   4.310  12.207  0.5887  0.0350  0.6971
  372TIP3    H222532   3.032   4.315  12.219  0.5686  2.1311  0.4383
  373TIP3   OH222533   2.869   0.467  16.278 -0.4560 -0.3804  0.5406
  373TIP3    H122534   2.903   0.466  16.189 -2.2435  1.4344 -0.2440
  373TIP3    H222535   2.946   0.456  16.334  0.6722 -1.7570 -1.2032
  374TIP3   OH222536   2.742   1.748   7.022  0.1444  0.1745 -0.9799
  374TIP3    H122537   2.728   1.839   7.046  0.7417 -0.2342  1.0896
  374TIP3    H222538   2.746   1.749   6.926 -2.4291  1.9259 -1.1797
  375TIP3   OH222539   0.378   4.036   2.370  0.2982  0.7798  0.0138
  375TIP3    H122540   0.437   4.108   2.395 -0.0166  0.8251  0.6368
  375TIP3    H222541   0.294   4.060   2.408  0.2575 -0.0667  0.4682
  376TIP3   OH222542   4.272   0.031   1.228  1.0655 -0.3254 -0.2699
  376TIP3    H122543   4.317  -0.022   1.293  0.1496  1.1366  1.6992
  376TIP3    H222544   4.303   0.120   1.244  0.5862  0.1272 -1.6706
  377TIP3   OH222545   3.886   6.280   1.118 -0.0669 -0.0393  0.0363
  377TIP3    H122546   3.953   6.349   1.123  1.9406 -1.5953 -2.5984
  377TIP3    H222547   3.803   6.327   1.116  1.1453  2.2325 -0.3876
  378TIP3   OH222548   6.651   1.355  12.704  0.0142 -0.3714  0.0240
  378TIP3    H122549   6.735   1.334  12.663  0.1790 -1.2982  0.8095
  378TIP3    H222550   6.673   1.380  12.794 -0.3940  1.1777 -0.2640
  379TIP3   OH222551   0.771   6.011   3.300 -0.1230  0.5797  0.0882
  379TIP3    H122552   0.804   6.020   3.389  0.3908 -0.9734  0.0645
  379TIP3    H222553   0.677   6.032   3.308 -0.2153 -0.1318  1.1127
  380TIP3   OH222554   3.681   0.688  15.263 -0.5437 -0.1971 -0.3969
  380TIP3    H122555   3.652   0.775  15.289 -0.4962  0.4284 -2.2650
  380TIP3    H222556   3.713   0.700  15.173  0.6747 -1.8834 -0.2250
  381TIP3   OH222557   1.722   0.951  11.692 -0.0030 -0.3709  0.3988
  381TIP3    H122558   1.789   0.889  11.664  0.3970 -0.1946  0.9475
  381TIP3    H222559   1.641   0.900  11.691  0.2259 -0.7365  0.2636
  382TIP3   OH222560   1.241   2.372   0.973 -0.1241 -0.4194 -0.5517
  382TIP3    H122561   1.263   2.464   0.989  0.2886 -0.3148 -1.6323
  382TIP3    H222562   1.222   2.336   1.060 -0.3483  0.6972 -0.1204
  383TIP3   OH222563   2.016   4.199  15.282  0.7465  0.4039  0.1508
  383TIP3    H122564   2.013   4.291  15.307  0.8229  0.4133  0.1241
  383TIP3    H222565   2.060   4.156  15.356  1.2137  0.4704 -0.0904
  384TIP3   OH222566   2.756   4.086  12.444  0.0267  0.1595 -0.4892
  384TIP3    H122567   2.709   4.164  12.413 -1.8865 -0.6568  0.2167
  384TIP3    H222568   2.835   4.083  12.389 -0.9529  1.3327 -2.0691
  385TIP3   OH222569   4.425   2.942   0.973 -0.2135 -0.4181  0.1354
  385TIP3    H122570   4.467   2.999   0.909 -1.8412 -1.3900 -1.9394
  385TIP3    H222571   4.337   2.927   0.937  0.0160 -3.9099  0.6902
  386TIP3   OH222572   6.587   4.184  16.919  0.0058 -0.1396 -0.0031
  386TIP3    H122573   6.582   4.250  16.849 -0.4054  1.4697  1.4912
  386TIP3    H222574   6.678   4.153  16.916  0.6839  1.7185  0.3273
  387TIP3   OH222575   0.749   6.660  12.541  0.1807 -0.1514 -0.5055
  387TIP3    H122576   0.678   6.686  12.600  1.8459  0.1217  1.4756
  387TIP3    H222577   0.781   6.743  12.505 -0.1746 -0.2302 -1.0058
  388TIP3   OH222578   4.661   4.701   4.228 -0.3065  0.1055 -0.8103
  388TIP3    H122579   4.740   4.682   4.177  1.1023 -1.3943  1.7333
  388TIP3    H222580   4.627   4.615   4.253 -1.4470  0.7713  0.0194
  389TIP3   OH222581   2.165   2.165  12.993  0.0148  0.1349 -0.3794
  389TIP3    H122582   2.199   2.076  12.986  2.0157  0.9852 -3.8998
  389TIP3    H222583   2.208   2.213  12.922 -2.9121  3.3054 -0.2749
  390TIP3   OH222584   0.870   3.565  11.817  0.0345  0.1842  0.0831
  390TIP3    H122585   0.900   3.474  11.824 -0.7417  0.0651  3.1273
  390TIP3    H222586   0.950   3.617  11.826  0.2554 -0.1962  0.3728
  391TIP3   OH222587   3.855   3.913   3.234  0.5713  0.1928  0.1200
  391TIP3    H122588   3.844   3.824   3.201 -1.6833  1.2010 -2.2738
  391TIP3    H222589   3.935   3.945   3.192  0.2329 -0.0538 -0.7343
  392TIP3   OH222590   4.326   5.101   4.445 -0.0788  0.2778 -0.1853
  392TIP3    H122591   4.412   5.096   4.485 -0.3566  0.6844  0.4749
  392TIP3    H222592   4.300   5.010   4.432 -0.1773  0.1224  0.9980
  393TIP3   OH222593   0.242   4.556  10.777  0.1602  0.1824 -0.1420
  393TIP3    H122594   0.238   4.607  10.696 -0.9076 -1.3487 -1.1185
  393TIP3    H222595   0.206   4.471  10.753  1.2296 -0.8193  1.5908
  394TIP3   OH222596   5.621   6.303  10.986 -0.5615  0.1064  0.2403
  394TIP3    H122597   5.692   6.263  11.037  0.4849  1.3679 -0.1547
  394TIP3    H222598   5.576   6.360  11.047  0.9842  1.9820 -0.2457
  395TIP3   OH222599   3.167   3.577  13.704  0.0845  0.5306  0.4180
  395TIP3    H122600   3.227   3.570  13.630  1.2563 -1.9159  1.4892
  395TIP3    H222601   3.080   3.570  13.665  0.6862 -0.9665 -0.7402
  396TIP3   OH222602   1.763   3.563  14.049  0.0139  0.5559  0.3183
  396TIP3    H122603   1.676   3.560  14.088  0.8005 -0.3358  2.1139
  396TIP3    H222604   1.821   3.526  14.116  1.8612  1.6246 -0.6047
  397TIP3   OH222605   2.450   6.223   2.430 -0.4846 -0.1137  0.2187
  397TIP3    H122606   2.464   6.130   2.448 -1.5435 -0.0048  1.7992
  397TIP3    H222607   2.538   6.260   2.426 -0.0633 -1.0858  0.0622
  398TIP3   OH222608   3.888   3.719   0.194  0.1478 -0.2758  0.1306
  398TIP3    H122609   3.954   3.750   0.132 -0.7511 -0.7959 -1.1357
  398TIP3    H222610   3.862   3.797   0.243  1.3883  0.0091  0.3547
  399TIP3   OH222611   6.379   1.139  13.872  0.2848 -0.0982 -0.0694
  399TIP3    H122612   6.335   1.073  13.925  1.3667 -0.7066  0.0963
  399TIP3    H222613   6.315   1.162  13.805 -0.9478  0.3603  1.2042
  400TIP3   OH222614   2.231   5.540  13.167 -0.2311 -0.2233  0.2432
  400TIP3    H122615   2.216   5.447  13.150 -2.2473  0.2023 -0.6065
  400TIP3    H222616   2.296   5.567  13.102 -0.2823 -0.8554 -0.0746
  401TIP3   OH222617   6.151   2.514  16.936  0.2824  0.0330 -0.3917
  401TIP3    H122618   6.146   2.435  16.990 -0.9173 -0.1715 -0.7691
  401TIP3    H222619   6.182   2.582  16.995  0.0556 -0.4314  0.2785
  402TIP3   OH222620   3.636   5.760   4.652 -0.5729  0.2227 -0.5375
  402TIP3    H122621   3.667   5.847   4.678 -0.6678 -0.1472  0.9349
  402TIP3    H222622   3.715   5.712   4.629 -0.0955 -0.2892  1.8721
  403TIP3   OH222623   0.967   2.872   3.769  0.5929  0.2255  0.2287
  403TIP3    H122624   0.951   2.956   3.726  0.7412  2.2709  3.7158
  403TIP3    H222625   0.880   2.833   3.778  0.2205  1.0736  0.4538
  404TIP3   OH222626   1.900   2.381   0.976 -0.0066  0.1747 -0.2460
  404TIP3    H122627   1.817   2.413   0.938 -0.4380  1.8251  1.8733
  404TIP3    H222628   1.874   2.340   1.059  1.0281 -2.2146 -1.0096
  405TIP3   OH222629   3.526   2.234  15.734 -0.4383 -0.0434  0.0794
  405TIP3    H122630   3.483   2.192  15.660  1.4985  1.4662 -2.0304
  405TIP3    H222631   3.549   2.321  15.703  2.8920 -0.2704  1.4386
  406TIP3   OH222632   6.423   4.144  14.156 -0.0666  0.2967 -0.5436
  406TIP3    H122633   6.474   4.062  14.149  0.4111  0.4923  0.4234
  406TIP3    H222634   6.342   4.125  14.110 -0.1647 -0.9030  0.0578
  407TIP3   OH222635   5.997   5.849  11.388  0.4044 -0.7356 -0.1883
  407TIP3    H122636   6.045   5.779  11.433  0.9423 -0.6318 -0.5927
  407TIP3    H222637   6.019   5.928  11.438 -3.0514 -1.2687  2.5591
  408TIP3   OH222638   6.079   3.924  13.124  0.7487  0.5808  0.1338
  408TIP3    H122639   6.153   3.951  13.177  0.4394  0.9903  0.3642
  408TIP3    H222640   6.070   3.830  13.141  1.8308  0.3116 -0.6694
  409TIP3   OH222641   0.623   2.901  16.967 -0.3525  0.0120 -0.3505
  409TIP3    H122642   0.583   2.985  16.945  1.7477  1.5077  1.0843
  409TIP3    H222643   0.629   2.902  17.063  0.0051 -1.6381 -0.3312
  410TIP3   OH222644   0.026   0.646   4.184 -0.6026 -0.8045  0.0160
  410TIP3    H122645  -0.016   0.565   4.215 -0.9824 -0.4891  0.3323
  410TIP3    H222646   0.044   0.696   4.264 -0.0454 -0.7282 -0.1522
  411TIP3   OH222647   5.184   4.234  14.575 -0.1155 -0.1504  0.1304
  411TIP3    H122648   5.245   4.298  14.611  1.0203 -0.3913 -1.2468
  411TIP3    H222649   5.237   4.155  14.564  0.2873  0.4806 -3.9394
  412TIP3   OH222650   2.111   0.286  15.562  0.4004 -0.4928 -0.0670
  412TIP3    H122651   2.102   0.290  15.658 -0.2211 -1.3127 -0.0840
  412TIP3    H222652   2.204   0.267  15.548  0.3721 -1.0143  0.3975
  413TIP3   OH222653   6.337   2.431  15.452  0.0596 -0.2118  0.0285
  413TIP3    H122654   6.328   2.523  15.479 -1.1929 -0.3884  0.2737
  413TIP3    H222655   6.282   2.425  15.373 -1.2038 -1.1138  0.9359
  414TIP3   OH222656   1.761   3.984   3.860  0.2276 -0.8026 -0.8116
  414TIP3    H122657   1.697   4.044   3.823  0.2211 -1.5279 -2.0230
  414TIP3    H222658   1.736   3.898   3.827  1.4914 -1.1761 -0.8593
  415TIP3   OH222659   0.797   4.419  11.964  0.2900 -0.1614  0.0592
  415TIP3    H122660   0.788   4.328  11.991 -1.7383 -0.4547 -1.4157
  415TIP3    H222661   0.716   4.461  11.993  0.2927  0.6741 -1.0975
  416TIP3   OH222662   4.167   4.625  11.422  0.2359  0.1860 -0.5259
  416TIP3    H122663   4.094   4.581  11.466  1.3693 -0.1994  1.0402
  416TIP3    H222664   4.198   4.562  11.358  0.3070 -0.3544  0.0299
  417TIP3   OH222665   5.315   2.747   0.595 -0.4418  0.5005 -0.4984
  417TIP3    H122666   5.272   2.771   0.514 -0.7143  0.8989 -0.2429
  417TIP3    H222667   5.409   2.757   0.577 -0.5105  0.7683 -0.7103
  418TIP3   OH222668   0.695   3.918   6.323 -0.5289 -0.6638  0.2751
  418TIP3    H122669   0.721   3.828   6.304 -1.1682 -0.8535  0.2634
  418TIP3    H222670   0.764   3.972   6.284 -0.5734 -1.1217 -0.4565
  419TIP3   OH222671   3.471   4.464  12.742  0.3835  0.8387 -0.1094
  419TIP3    H122672   3.550   4.446  12.692 -0.2206 -1.7041 -0.2763
  419TIP3    H222673   3.487   4.424  12.827  0.5438  3.2605  1.1030
  420TIP3   OH222674   2.810   4.912   2.371 -0.3324 -0.1428  0.0650
  420TIP3    H122675   2.894   4.889   2.332 -0.9692 -0.0159 -1.4585
  420TIP3    H222676   2.782   4.834   2.418  0.3505 -0.3848  0.0699
  421TIP3   OH222677   1.399   6.319  16.776 -0.7450  0.1473 -1.2100
  421TIP3    H122678   1.391   6.372  16.856  0.2711  1.9162 -2.2254
  421TIP3    H222679   1.311   6.323  16.737 -1.1886 -0.5442 -0.3337
  422TIP3   OH222680   6.798   3.650  11.301 -0.1643  0.4153  0.1544
  422TIP3    H122681   6.835   3.726  11.257 -0.0676  0.4233  0.2495
  422TIP3    H222682   6.720   3.628  11.249 -0.8269  1.2499  0.7575
  423TIP3   OH222683   2.662   0.299   0.830 -0.0202 -0.0472 -0.6395
  423TIP3    H122684   2.676   0.208   0.854 -0.2233 -0.3119 -1.4806
  423TIP3    H222685   2.598   0.296   0.758  0.0463  0.7443 -0.7500
  424TIP3   OH222686   4.993   1.492  12.589  0.6443 -0.0179  0.2949
  424TIP3    H122687   4.974   1.577  12.548 -0.2411  0.0224  0.7874
  424TIP3    H222688   5.025   1.438  12.516  1.6773  0.8577  0.0537
  425TIP3   OH222689   4.116   4.503   4.601  0.7024  0.3707  0.2915
  425TIP3    H122690   4.062   4.431   4.568 -1.1921  2.1785 -0.7826
  425TIP3    H222691   4.074   4.528   4.684  1.5758  0.0468  0.8503
  426TIP3   OH222692   4.204   6.683   5.153  0.1400 -0.0920  0.0297
  426TIP3    H122693   4.199   6.618   5.083 -2.2700 -1.4534  1.3211
  426TIP3    H222694   4.181   6.766   5.111  0.8948 -0.4618 -1.1679
  427TIP3   OH222695   2.239   3.398   6.360 -0.4048  0.0317  0.1145
  427TIP3    H122696   2.168   3.355   6.408 -0.9089  1.3361  0.5723
  427TIP3    H222697   2.273   3.329   6.302  0.2249 -1.6275  2.2889
  428TIP3   OH222698   3.315   4.125  12.970 -0.0254 -0.3195  0.3344
  428TIP3    H122699   3.290   4.170  12.889 -0.1552  0.7290  0.9258
  428TIP3    H222700   3.239   4.071  12.991  0.6044 -1.7920 -1.0260
  429TIP3   OH222701   3.607   6.677   1.956  0.0497 -0.5328  0.2439
  429TIP3    H122702   3.652   6.646   1.878  0.2093 -0.8484  0.4610
  429TIP3    H222703   3.585   6.769   1.937  0.0402 -0.6274 -0.1885
  430TIP3   OH222704   3.272   5.647   3.538 -0.4257  0.0313 -0.1006
  430TIP3    H122705   3.259   5.607   3.452 -2.4284  1.9813 -0.7849
  430TIP3    H222706   3.190   5.634   3.584  1.4775 -3.5548  2.8307
  431TIP3   OH222707   2.030   4.868   1.372 -0.4033  1.1454 -0.0752
  431TIP3    H122708   1.966   4.883   1.303  0.7550 -1.5067 -1.9056
  431TIP3    H222709   1.979   4.836   1.446 -1.3953  1.3020 -0.6791
  432TIP3   OH222710   5.074   5.827   0.956 -0.2193 -0.7163  0.2294
  432TIP3    H122711   5.047   5.879   1.032  1.3367  0.9929 -0.3249
  432TIP3    H222712   5.030   5.743   0.969 -0.2638 -0.3921  2.8636
  433TIP3   OH222713   2.911   4.270  14.775  0.0254 -0.3111  0.0363
  433TIP3    H122714   2.858   4.210  14.827 -2.1091 -0.0651 -1.7243
  433TIP3    H222715   2.956   4.325  14.839 -1.5191 -0.8152  1.6157
  434TIP3   OH222716   5.517   4.090  11.451 -0.6433  0.6932 -0.0511
  434TIP3    H122717   5.440   4.120  11.403  0.0168  0.5018 -1.2731
  434TIP3    H222718   5.482   4.041  11.525 -1.7324 -1.1236 -1.6780
  435TIP3   OH222719   0.645   1.507  14.738 -0.0427 -0.2161 -0.2571
  435TIP3    H122720   0.619   1.424  14.697 -1.9579 -0.4243  1.2484
  435TIP3    H222721   0.578   1.569  14.710 -0.2666  0.1043  0.9729
  436TIP3   OH222722   6.674   4.796  14.733 -0.4954 -0.0201  0.2338
  436TIP3    H122723   6.631   4.789  14.648 -1.0118  0.0879  0.4797
  436TIP3    H222724   6.748   4.736  14.729 -0.5355 -0.0317 -0.2813
  437TIP3   OH222725   5.366   4.950  14.519 -0.0838  0.2742  0.2481
  437TIP3    H122726   5.453   4.983  14.497  0.0822 -0.9017 -0.9933
  437TIP3    H222727   5.310   5.028  14.519  0.3890  0.6948 -2.0487
  438TIP3   OH222728   0.001   1.624  15.039  0.1082 -0.1442  0.1992
  438TIP3    H122729  -0.018   1.714  15.063  1.4218  0.0376  0.6162
  438TIP3    H222730  -0.071   1.574  15.076 -0.3860  0.6811  0.3756
  439TIP3   OH222731   6.664   5.128   0.071  0.1500  0.4284  0.0091
  439TIP3    H122732   6.606   5.106   0.143  0.2626  1.9629  0.6184
  439TIP3    H222733   6.749   5.090   0.095  0.4324  1.7191  1.1911
  440TIP3   OH222734   0.032   4.683  11.287  0.2703  0.0492  0.4870
  440TIP3    H122735   0.122   4.712  11.270 -0.4859  2.1645 -0.2579
  440TIP3    H222736   0.009   4.723  11.370 -0.0739 -0.2603  0.5449
  441TIP3   OH222737   5.457   3.972   4.832  0.0990 -0.2866  0.3535
  441TIP3    H122738   5.394   3.912   4.872 -1.5212 -0.3628 -2.1525
  441TIP3    H222739   5.409   4.054   4.820  0.5540 -0.2380 -1.3160
  442TIP3   OH222740   2.753   1.957   4.600  0.3308 -0.0390 -0.2516
  442TIP3    H122741   2.799   1.881   4.562  1.3490  0.3123  0.2309
  442TIP3    H222742   2.663   1.928   4.609  0.5941 -1.0114 -0.5799
  443TIP3   OH222743   4.779   6.172  11.457 -0.2933 -0.4373 -0.7498
  443TIP3    H122744   4.750   6.219  11.378  1.6497  2.1643 -0.0769
  443TIP3    H222745   4.724   6.208  11.527 -2.0060 -2.7360 -0.8100
  444TIP3   OH222746   1.591   1.030   4.429 -0.3796 -0.3134 -0.3283
  444TIP3    H122747   1.624   0.974   4.359 -0.8501 -0.6328 -0.2923
  444TIP3    H222748   1.526   0.977   4.475  0.0252 -0.1628  0.4482
  445TIP3   OH222749   2.528   0.206  12.278 -0.0741 -0.9784  0.2657
  445TIP3    H122750   2.562   0.271  12.217 -1.5021 -1.9550 -1.6872
  445TIP3    H222751   2.495   0.136  12.222  0.0110 -2.6863  2.2439
  446TIP3   OH222752   0.175   5.548  11.644  0.2826  0.5107  0.0086
  446TIP3    H122753   0.111   5.511  11.583  0.8376 -0.5225  0.0384
  446TIP3    H222754   0.254   5.560  11.591  0.0375  1.9902 -0.0857
  447TIP3   OH222755   3.590   6.451  14.000  0.0874 -0.1698 -0.1370
  447TIP3    H122756   3.501   6.475  13.973  0.2013  0.6345  0.1682
  447TIP3    H222757   3.615   6.520  14.063  1.6209  0.6615 -1.5830
  448TIP3   OH222758   0.148   6.517  11.928  0.3005 -0.1306  0.2814
  448TIP3    H122759   0.158   6.600  11.882 -1.4172 -0.1574 -0.1815
  448TIP3    H222760   0.159   6.450  11.861 -0.5202 -0.2093  0.2158
  449TIP3   OH222761   4.466   0.679   3.258  0.6594  0.0479 -0.3006
  449TIP3    H122762   4.506   0.764   3.237  1.5984 -0.1946  0.4716
  449TIP3    H222763   4.462   0.677   3.353 -1.2102  0.0529 -0.3540
  450TIP3   OH222764   5.470   3.278   2.061  0.7147  0.5005 -0.3464
  450TIP3    H122765   5.483   3.229   2.142  2.2347  2.0622  0.4279
  450TIP3    H222766   5.483   3.214   1.991 -0.8603 -0.9246  0.5985
  451TIP3   OH222767   4.755   1.127  11.624  0.2787  0.6496  0.3766
  451TIP3    H122768   4.793   1.212  11.643  0.1285  0.4691  1.5662
  451TIP3    H222769   4.676   1.123  11.677 -0.4098  0.2658 -0.6321
  452TIP3   OH222770   0.504   2.949   0.418  0.4111 -0.0232  0.4132
  452TIP3    H122771   0.574   2.943   0.484  2.3597 -1.0288 -1.6214
  452TIP3    H222772   0.431   2.900   0.455  2.4253 -3.0136  0.7308
  453TIP3   OH222773   6.093   4.296  13.031  0.0151  0.5598  0.6906
  453TIP3    H122774   6.061   4.222  13.083  0.9718 -0.5678 -0.2739
  453TIP3    H222775   6.094   4.369  13.093 -0.2059 -0.4030  1.8866
  454TIP3   OH222776   2.379   4.892  16.481  0.2174 -0.1538  0.1665
  454TIP3    H122777   2.317   4.850  16.541 -0.0338 -1.0392 -0.6971
  454TIP3    H222778   2.368   4.986  16.497 -1.4210 -0.2835 -0.0368
  455TIP3   OH222779   1.987   1.442   2.246  0.7001 -0.1974  0.0544
  455TIP3    H122780   2.069   1.469   2.289  0.9572 -0.9294  0.0290
  455TIP3    H222781   1.928   1.516   2.259  0.7621 -0.4031  1.6963
  456TIP3   OH222782   5.804   3.048   0.217 -0.0365  0.0463  0.3870
  456TIP3    H122783   5.880   3.104   0.233 -0.5279  0.7245  0.4016
  456TIP3    H222784   5.827   2.964   0.257  0.5789  0.3331  0.6541
  457TIP3   OH222785   3.363   6.074   0.036 -0.1763 -0.0112 -0.0298
  457TIP3    H122786   3.281   6.059  -0.011 -0.8231  0.0092  1.0406
  457TIP3    H222787   3.410   6.138  -0.017 -1.3389  0.7942 -0.1228
  458TIP3   OH222788   4.889   3.624   2.619  0.5879 -0.4382 -0.0108
  458TIP3    H122789   4.863   3.603   2.708 -0.2496  0.4716 -0.0308
  458TIP3    H222790   4.878   3.542   2.571  0.4222 -0.7662  0.5795
  459TIP3   OH222791   5.841   3.738   0.704 -0.5452  0.2623  0.1380
  459TIP3    H122792   5.905   3.794   0.660 -0.6324 -0.7752 -1.4154
  459TIP3    H222793   5.829   3.664   0.644 -1.7849 -0.5115  1.2727
  460TIP3   OH222794   4.083   1.015   5.348 -1.1749 -0.0360 -0.7136
  460TIP3    H122795   4.122   0.946   5.295 -0.2338  0.7384 -1.0457
  460TIP3    H222796   4.104   1.096   5.301 -1.5153  0.5454  0.1232
  461TIP3   OH222797   0.068   1.166   2.375  0.8486  0.2264 -0.6101
  461TIP3    H122798   0.100   1.180   2.464 -0.1481  3.0135 -0.5758
  461TIP3    H222799   0.113   1.233   2.322 -2.2432  2.1242 -1.1318
  462TIP3   OH222800   5.847   6.757  16.592  0.2968  0.4655  0.0514
  462TIP3    H122801   5.941   6.738  16.592  0.2162  0.0038 -0.8145
  462TIP3    H222802   5.832   6.806  16.673  0.8729 -1.4641  1.3817
  463TIP3   OH222803   4.645   6.128  10.877 -0.1916 -0.0278 -0.0978
  463TIP3    H122804   4.739   6.113  10.865 -0.1842  0.9293 -1.4056
  463TIP3    H222805   4.639   6.176  10.960  0.2528 -1.9621  1.1151
  464TIP3   OH222806   4.600   2.602   4.701  0.2202 -0.1515 -0.9515
  464TIP3    H122807   4.608   2.560   4.615  0.8281  0.3255 -1.1328
  464TIP3    H222808   4.578   2.530   4.761  1.0888 -0.7095 -1.2869
  465TIP3   OH222809   1.092   1.481  11.874  0.4643  0.5747 -0.2879
  465TIP3    H122810   1.084   1.392  11.839  2.0046  0.4447 -0.3841
  465TIP3    H222811   1.117   1.534  11.799 -2.0406  1.4542 -0.5947
  466TIP3   OH222812   2.499   3.524   4.090  0.0051 -0.3321 -0.3516
  466TIP3    H122813   2.594   3.520   4.075 -0.0789  0.0691 -1.0104
  466TIP3    H222814   2.485   3.471   4.168  0.8222 -0.0926 -0.0365
  467TIP3   OH222815   3.979   6.661   0.216  0.5297 -0.4604  0.7833
  467TIP3    H122816   4.023   6.733   0.172 -0.9028  0.6204  1.0495
  467TIP3    H222817   3.985   6.683   0.309 -0.7418 -0.1602  0.8138
  468TIP3   OH222818   6.031   2.608  11.564  0.0950 -0.0101 -0.1554
  468TIP3    H122819   6.093   2.561  11.621  0.6769  0.4872 -0.3660
  468TIP3    H222820   6.057   2.700  11.571 -3.0067  0.8210  2.7629
  469TIP3   OH222821   4.682   0.471  11.710  0.1156 -0.1940 -0.2016
  469TIP3    H122822   4.592   0.458  11.741 -0.9509  1.2098 -2.4958
  469TIP3    H222823   4.690   0.413  11.634  0.5630  0.9308 -1.0334
  470TIP3   OH222824   4.567   2.308   0.826 -0.0672 -0.8754 -0.0100
  470TIP3    H122825   4.518   2.227   0.808  0.0334 -1.0582  0.5194
  470TIP3    H222826   4.527   2.373   0.768 -0.6431 -1.1301  0.0880
  471TIP3   OH222827   2.374   6.331   3.932  0.2433 -0.2542 -0.0872
  471TIP3    H122828   2.463   6.324   3.897  1.6811 -0.0386  3.2274
  471TIP3    H222829   2.367   6.422   3.962 -1.0176 -0.3587 -0.0038
  472TIP3   OH222830   3.759   6.043   0.150  0.3907  0.2249  0.1667
  472TIP3    H122831   3.681   6.050   0.205 -0.3139 -0.9507 -0.6444
  472TIP3    H222832   3.728   6.007   0.067  1.6697  0.5097 -0.4759
  473TIP3   OH222833   5.989   2.204   1.313  0.1512  0.4657  0.8935
  473TIP3    H122834   5.936   2.165   1.383 -1.0740 -0.6888 -0.6098
  473TIP3    H222835   5.925   2.242   1.253  0.9257 -1.4518 -1.2737
  474TIP3   OH222836   1.280   1.636  12.844 -0.6979 -0.4068 -0.1930
  474TIP3    H122837   1.282   1.540  12.848  1.9641 -0.4506 -0.7409
  474TIP3    H222838   1.248   1.655  12.756 -1.0848 -0.7945 -0.1401
  475TIP3   OH222839   2.469   6.413  13.678  0.1144 -0.1506 -0.0919
  475TIP3    H122840   2.474   6.317  13.681  1.6855 -0.2177 -2.3945
  475TIP3    H222841   2.385   6.430  13.635 -0.5457 -0.4055  1.0218
  476TIP3   OH222842   4.901   1.408  12.859  0.1618 -0.4751 -0.3136
  476TIP3    H122843   4.944   1.425  12.775 -0.2159 -1.0437 -0.6272
  476TIP3    H222844   4.808   1.408  12.839 -0.0562  1.6593  0.5350
  477TIP3   OH222845   6.743   6.272  10.479  0.0920  0.3493 -0.2501
  477TIP3    H122846   6.667   6.290  10.422  1.5393  1.3390 -1.9709
  477TIP3    H222847   6.729   6.182  10.508 -3.4468  1.4990  2.3334
  478TIP3   OH222848   2.922   2.106   1.230  0.3112 -0.7261 -0.3992
  478TIP3    H122849   2.981   2.112   1.305  1.4175 -0.3805 -1.2548
  478TIP3    H222850   2.930   2.191   1.186 -0.2523 -0.9461 -0.9398
  479TIP3   OH222851   3.894   4.330  15.873  0.3074  0.3927 -0.1059
  479TIP3    H122852   3.961   4.396  15.853 -0.3864  0.8432 -1.0276
  479TIP3    H222853   3.814   4.381  15.889 -0.3908 -0.2388 -1.4399
  480TIP3   OH222854   2.523   0.162   5.430 -0.1614  0.0745  0.2918
  480TIP3    H122855   2.596   0.123   5.383  1.5983  1.0344  2.0893
  480TIP3    H222856   2.483   0.089   5.477  0.8590 -0.1815  0.7940
  481TIP3   OH222857   2.580   4.388   0.593  0.3181 -0.8096  0.3435
  481TIP3    H122858   2.504   4.444   0.578  0.2514 -0.4920  1.7522
  481TIP3    H222859   2.579   4.327   0.519 -0.2261  0.3449 -0.6502
  482TIP3   OH222860   5.212   3.851  14.993 -0.6009  0.2589 -0.9739
  482TIP3    H122861   5.262   3.771  15.011  1.3088  1.2601 -1.5945
  482TIP3    H222862   5.181   3.879  15.080 -1.5959 -1.2851 -0.7812
  483TIP3   OH222863   4.476   6.690   1.384  0.6968 -0.1212 -0.0322
  483TIP3    H122864   4.469   6.764   1.444  0.6451 -0.8311  0.8560
  483TIP3    H222865   4.462   6.613   1.439 -1.2414 -0.7307 -1.2877
  484TIP3   OH222866   6.460   1.604  13.036  0.0746 -0.3140  0.0310
  484TIP3    H122867   6.447   1.664  12.963 -1.8719  2.1452  2.1835
  484TIP3    H222868   6.372   1.573  13.059  0.7142 -1.6497  0.8635
  485TIP3   OH222869   6.194   1.895  15.474  0.0980 -0.1684 -0.0326
  485TIP3    H122870   6.143   1.944  15.410  1.6867 -0.1187 -1.3269
  485TIP3    H222871   6.214   1.959  15.543  0.4521  0.4660 -0.7154
  486TIP3   OH222872   5.885   2.778   0.393 -0.4350 -0.5139  0.2411
  486TIP3    H122873   5.896   2.740   0.480  2.4232  1.0999  0.7064
  486TIP3    H222874   5.935   2.721   0.335 -2.2392 -1.5206 -0.4043
  487TIP3   OH222875   0.433   6.010  13.775 -0.2406  0.1577  0.0861
  487TIP3    H122876   0.509   5.993  13.719 -0.3640 -0.0507 -0.0173
  487TIP3    H222877   0.458   5.974  13.861 -0.5893 -0.7705 -0.1866
  488TIP3   OH222878   0.867   2.146   0.393  0.1100 -0.7198  0.5088
  488TIP3    H122879   0.858   2.133   0.299 -0.8611 -0.8452  0.6094
  488TIP3    H222880   0.894   2.238   0.402  3.6981 -1.5756 -0.0337
  489TIP3   OH222881   5.120   6.478   1.747 -0.4010 -0.2349  0.0232
  489TIP3    H122882   5.121   6.571   1.724 -2.5390 -0.5453 -1.6775
  489TIP3    H222883   5.212   6.451   1.742  0.1333  1.5480 -0.5125
  490TIP3   OH222884   6.082   4.015   0.065  0.2442  0.0205  0.3715
  490TIP3    H122885   6.037   4.030   0.148  0.9119 -3.6104  1.5658
  490TIP3    H222886   6.027   4.058  -0.001 -1.5091  1.0805  2.4098
  491TIP3   OH222887   5.694   5.138  16.900  0.3920  0.7307  0.5586
  491TIP3    H122888   5.678   5.202  16.831  1.3029  1.6316  1.1617
  491TIP3    H222889   5.607   5.106  16.924  0.0730  0.2150 -1.1614
  492TIP3   OH222890   5.831   0.047  13.270 -0.4085  0.5205 -0.2895
  492TIP3    H122891   5.816   0.005  13.185  0.4551 -0.0434 -0.1810
  492TIP3    H222892   5.855  -0.025  13.329 -2.4056  0.6959  0.8271
  493TIP3   OH222893   4.548   1.182  12.401  0.3537  0.4399 -0.1752
  493TIP3    H122894   4.594   1.247  12.455  0.8141  0.4042 -0.5204
  493TIP3    H222895   4.601   1.103  12.408  1.6427  1.0184 -2.3962
  494TIP3   OH222896   6.501   4.483   5.520  0.0758 -0.2804 -0.0973
  494TIP3    H122897   6.593   4.457   5.524  0.2020 -0.3854 -2.1494
  494TIP3    H222898   6.502   4.578   5.532  0.4731 -0.2728 -0.1851
  495TIP3   OH222899   5.079   0.370  12.849 -0.0353  0.5590 -0.2603
  495TIP3    H122900   5.102   0.311  12.921 -1.1435 -1.0747 -1.1580
  495TIP3    H222901   5.087   0.316  12.770 -2.2269  1.2108 -1.0302
  496TIP3   OH222902   2.332   6.789   3.762  0.3328 -0.0369 -0.1442
  496TIP3    H122903   2.379   6.768   3.681 -0.4818  0.7044 -0.8205
  496TIP3    H222904   2.400   6.818   3.822  0.8549  0.1756 -0.8261
  497TIP3   OH222905   3.430   6.667   5.409 -0.2675 -0.3952  0.2285
  497TIP3    H122906   3.343   6.692   5.442 -0.1534 -1.5385  1.4712
  497TIP3    H222907   3.412   6.615   5.331 -0.5701  1.6049 -1.1317
  498TIP3   OH222908   0.254   3.500  11.350 -0.3952  0.1759 -0.0091
  498TIP3    H122909   0.170   3.539  11.325 -1.0304 -0.7913  0.5608
  498TIP3    H222910   0.286   3.459  11.270 -1.9804 -2.1087  0.4292
  499TIP3   OH222911   6.490   6.751  10.100  0.0566 -0.4072 -0.1901
  499TIP3    H122912   6.398   6.725  10.106 -0.0853 -0.0920 -0.9182
  499TIP3    H222913   6.489   6.827  10.042  0.5194  0.9436  1.4887
  500TIP3   OH222914   5.907   4.927  13.613 -0.7392 -0.1569 -0.3748
  500TIP3    H122915   5.852   4.917  13.691  1.2166 -0.8550  0.9941
  500TIP3    H222916   5.908   5.021  13.596 -1.0779  0.0239  0.5373
  501TIP3   OH222917   5.240   3.116  16.583  0.1981 -0.2033 -0.4611
  501TIP3    H122918   5.334   3.100  16.584  0.2052 -0.4959  2.5554
  501TIP3    H222919   5.220   3.148  16.671 -2.1308  2.6189 -1.8549
  502TIP3   OH222920   6.396   2.429   0.037  0.4457 -0.4059 -0.2205
  502TIP3    H122921   6.343   2.502   0.067 -0.2338 -0.9964  0.0524
  502TIP3    H222922   6.412   2.447  -0.056  0.9521  0.4772  0.0308
  503TIP3   OH222923   6.660   5.914   2.070  0.3801 -0.3239 -0.0629
  503TIP3    H122924   6.713   5.906   1.990  1.1993  1.6104  0.2452
  503TIP3    H222925   6.663   5.826   2.108  1.3409 -0.8766 -1.3100
  504TIP3   OH222926   4.357   1.685   1.024  0.1622 -0.9219  0.1205
  504TIP3    H122927   4.281   1.657   0.972  0.8322 -0.0115 -1.4310
  504TIP3    H222928   4.433   1.661   0.970  0.8929 -0.0226  0.7077
  505TIP3   OH222929   0.287   0.110   3.392 -0.4102 -0.3309  0.3923
  505TIP3    H122930   0.204   0.157   3.382  0.0992  0.9353  1.6676
  505TIP3    H222931   0.336   0.130   3.312 -0.5043  0.7370  0.5815
  506TIP3   OH222932   3.730   3.801   2.121 -0.7377 -0.0251  0.0018
  506TIP3    H122933   3.728   3.748   2.042 -1.4259  1.8080 -1.2757
  506TIP3    H222934   3.683   3.748   2.186  0.2167 -1.7553 -0.6400
  507TIP3   OH222935   6.389   6.600  11.427 -0.1951  0.2734 -0.1291
  507TIP3    H122936   6.402   6.693  11.443  0.1100  0.2438 -0.2099
  507TIP3    H222937   6.469   6.558  11.458  0.9418  0.3132 -2.7539
  508TIP3   OH222938   4.190   4.034  16.435  0.0990  0.3537  0.3833
  508TIP3    H122939   4.233   4.021  16.520  0.7032 -1.1231 -0.1088
  508TIP3    H222940   4.159   3.947  16.410  0.5304  0.6179 -1.2052
  509TIP3   OH222941   2.364   1.041   1.475  0.0780  0.4010 -0.9545
  509TIP3    H122942   2.386   1.089   1.395  0.9695 -0.2458 -1.1210
  509TIP3    H222943   2.269   1.046   1.481  0.1058  1.6199 -1.3114
  510TIP3   OH222944   1.810   1.125   3.940 -0.1726  0.5247  0.1073
  510TIP3    H122945   1.827   1.041   3.898 -1.7473  0.5344 -0.6125
  510TIP3    H222946   1.807   1.105   4.034  1.3266  0.1464  0.1112
  511TIP3   OH222947   3.119   6.466   3.344 -0.5099  0.0403 -0.3151
  511TIP3    H122948   3.186   6.422   3.398 -1.4851  0.0319  0.9140
  511TIP3    H222949   3.165   6.540   3.306  0.0280  0.4885  1.1314
  512TIP3   OH222950   3.952   1.400   5.377 -0.2432  0.0757  0.1077
  512TIP3    H122951   3.870   1.414   5.423  0.1909 -0.5661  1.1216
  512TIP3    H222952   4.019   1.407   5.445  0.5344  0.4304 -0.6726
  513TIP3   OH222953   0.710   6.805   2.673  0.9176  0.3378  0.0378
  513TIP3    H122954   0.650   6.863   2.626  0.1421 -0.8537 -0.5024
  513TIP3    H222955   0.679   6.717   2.652  2.4462 -0.2980  0.3144
  514TIP3   OH222956   2.659   4.838  14.001  0.8117 -0.0411  0.5943
  514TIP3    H122957   2.617   4.754  13.978  0.2734  0.2248  0.5819
  514TIP3    H222958   2.688   4.826  14.091  0.9655 -0.3315  0.5087
  515TIP3   OH222959   1.760   6.291   5.379  0.2556 -0.0974 -0.4818
  515TIP3    H122960   1.729   6.305   5.469  1.0686 -0.9303 -0.0517
  515TIP3    H222961   1.848   6.327   5.378  0.2284 -0.0474 -0.9598
  516TIP3   OH222962   3.891   4.053  14.663  0.0123  0.0182  0.3288
  516TIP3    H122963   3.920   3.989  14.728 -0.2609  1.5923  2.0909
  516TIP3    H222964   3.916   4.015  14.579  0.0185 -2.2973  1.2988
  517TIP3   OH222965   5.365   6.789  13.863  0.1017 -0.5041  0.1643
  517TIP3    H122966   5.381   6.881  13.844 -0.2261 -0.4925 -0.0529
  517TIP3    H222967   5.311   6.758  13.790  2.9569 -1.7211 -1.6310
  518TIP3   OH222968   5.826   0.439   2.924 -0.3648  0.2002  0.0898
  518TIP3    H122969   5.877   0.504   2.876 -1.7181  1.3524  0.1646
  518TIP3    H222970   5.827   0.362   2.866  1.1386  0.2952 -0.0566
  519TIP3   OH222971   4.304   2.488  15.763 -0.4157  0.5420 -0.2478
  519TIP3    H122972   4.216   2.483  15.726 -0.6962 -0.7067  0.5333
  519TIP3    H222973   4.291   2.526  15.850 -0.9232 -3.6989  1.8104
  520TIP3   OH222974   3.290   2.394  17.095  0.2064  0.6547 -0.1492
  520TIP3    H122975   3.214   2.341  17.071 -0.1014 -0.3452  2.7103
  520TIP3    H222976   3.355   2.374  17.027 -1.0756 -0.7439 -1.0212
  521TIP3   OH222977   5.863   0.740  13.268  0.7568  0.7089 -0.3693
  521TIP3    H122978   5.954   0.731  13.294  1.5037 -0.2929 -3.0115
  521TIP3    H222979   5.853   0.679  13.194 -1.7165  1.6605 -0.9086
  522TIP3   OH222980   3.878   4.931  11.457  0.2709 -0.3538  0.2924
  522TIP3    H122981   3.860   4.867  11.389 -0.0818  0.1907 -0.1378
  522TIP3    H222982   3.972   4.950  11.449  0.7993 -2.1605  1.6252
  523TIP3   OH222983   3.192   6.621  16.760  0.0859  0.4579 -0.0367
  523TIP3    H122984   3.201   6.534  16.798 -2.8699  0.7751  1.6591
  523TIP3    H222985   3.225   6.681  16.827  0.7333  0.7414 -0.5964
  524TIP3   OH222986   2.096   4.966   1.745 -0.3819 -0.1521 -0.3749
  524TIP3    H122987   2.119   4.874   1.754 -2.5076 -0.8034 -1.0264
  524TIP3    H222988   2.175   5.007   1.709  0.7459 -1.6065  0.3334
  525TIP3   OH222989   2.365   3.248   4.738  0.7631  0.4146 -0.1920
  525TIP3    H122990   2.367   3.157   4.767 -0.3964  0.2871 -0.4803
  525TIP3    H222991   2.305   3.248   4.663  0.6827  1.4310 -0.1376
  526TIP3   OH222992   6.015   5.488  13.007  0.1292 -0.7811 -0.7958
  526TIP3    H122993   6.108   5.507  12.992 -0.0532  1.6201  0.4810
  526TIP3    H222994   5.969   5.558  12.961 -0.8813 -0.4238  0.6661
  527TIP3   OH222995   3.358   6.715  15.902  0.2994  0.4142 -0.0421
  527TIP3    H122996   3.405   6.731  15.984 -1.1483  0.7893  0.7524
  527TIP3    H222997   3.347   6.620  15.898  1.1190  0.3176 -0.2578
  528TIP3   OH222998   6.196   3.673  16.873 -0.2050 -0.5006  0.3673
  528TIP3    H122999   6.211   3.652  16.781 -1.6037 -0.3350  0.0839
  528TIP3    H223000   6.251   3.611  16.921 -0.2574 -1.2821 -0.5545
  529TIP3   OH223001   1.304   3.220   4.058 -0.1205  0.3227 -0.0651
  529TIP3    H123002   1.286   3.254   4.146 -0.3738 -3.9199  1.8049
  529TIP3    H223003   1.397   3.236   4.044 -0.1864  1.5134  0.7350
  530TIP3   OH223004   2.417   3.903   4.132 -0.4841  0.0948  0.0900
  530TIP3    H123005   2.331   3.940   4.115 -0.6838  0.2578  1.3485
  530TIP3    H223006   2.477   3.977   4.130 -0.1612 -0.1569 -1.8905
  531TIP3   OH223007   3.251   4.371   0.520  0.1173  0.1939 -0.3022
  531TIP3    H123008   3.292   4.380   0.606 -2.2364 -1.6928  1.1708
  531TIP3    H223009   3.273   4.282   0.492 -0.3264  0.2785 -0.9412
  532TIP3   OH223010   6.042   0.525  11.946 -0.2075 -0.1387 -0.3195
  532TIP3    H123011   6.026   0.595  11.882 -0.8654  0.0549  0.0471
  532TIP3    H223012   5.962   0.472  11.944 -0.3330  0.0005  0.5007
  533TIP3   OH223013   4.246   5.884   1.373 -0.0399  0.0482 -0.3589
  533TIP3    H123014   4.212   5.969   1.401  1.1101  0.4816 -0.1816
  533TIP3    H223015   4.302   5.856   1.446 -0.6249 -1.0053 -0.2954
  534TIP3   OH223016   1.841   4.931   6.384 -0.1217 -1.1036 -0.6087
  534TIP3    H123017   1.858   5.019   6.418 -0.5987 -0.6307 -1.5554
  534TIP3    H223018   1.747   4.919   6.394  0.1554 -2.2138  1.1097
  535TIP3   OH223019   5.098   3.055  13.565  0.9340  0.5336  0.1625
  535TIP3    H123020   5.094   3.148  13.543 -1.9735  0.7927  1.3133
  535TIP3    H223021   5.024   3.041  13.623  0.8309 -2.6801 -0.5579
  536TIP3   OH223022   5.367   4.995  13.864  0.0663 -0.4731 -0.2691
  536TIP3    H123023   5.280   5.023  13.835  0.2319 -0.2118 -0.5165
  536TIP3    H223024   5.422   5.071  13.851  0.7004 -1.1355 -1.7423
  537TIP3   OH223025   5.220   3.880  10.906  0.1183  0.5113 -0.0714
  537TIP3    H123026   5.147   3.853  10.962 -0.7744 -1.9927 -2.2229
  537TIP3    H223027   5.200   3.971  10.884 -0.8407  0.7402  1.5810
  538TIP3   OH223028   0.430   3.009  12.091  0.3424 -0.2754 -0.1267
  538TIP3    H123029   0.482   2.929  12.080  0.2380 -0.2589 -0.7895
  538TIP3    H223030   0.470   3.072  12.031 -0.2217 -0.1577 -0.3871
  539TIP3   OH223031   4.486   1.295  15.126  0.4863 -0.1266 -0.2312
  539TIP3    H123032   4.407   1.335  15.089 -0.4066 -1.7040 -0.1043
  539TIP3    H223033   4.542   1.277  15.050 -1.1178 -2.8668 -0.8833
  540TIP3   OH223034   4.393   2.105  11.704  0.2249  0.2749 -0.3682
  540TIP3    H123035   4.371   2.066  11.619 -1.6079 -2.1414  1.0757
  540TIP3    H223036   4.487   2.090  11.713 -0.2302 -3.5034 -0.2311
  541TIP3   OH223037   1.973   3.078  13.433 -0.3798 -0.8048 -0.2580
  541TIP3    H123038   1.994   3.162  13.391 -1.4478  0.1061  0.9245
  541TIP3    H223039   1.953   3.019  13.361  0.1421  0.0297 -1.1146
  542TIP3   OH223040   6.490   4.419   2.430 -0.7876 -0.1776 -0.6855
  542TIP3    H123041   6.493   4.374   2.514 -1.3726  0.2299 -0.4455
  542TIP3    H223042   6.545   4.496   2.442  0.9485 -1.2437 -1.3670
  543TIP3   OH223043   6.001   0.185   1.088 -0.2052  0.5107  0.1278
  543TIP3    H123044   6.084   0.180   1.135 -0.3934 -1.8344  0.3334
  543TIP3    H223045   5.982   0.094   1.064 -1.9941  1.1794 -1.1860
  544TIP3   OH223046   3.534   0.423  11.073  0.1373 -0.4612  0.6272
  544TIP3    H123047   3.536   0.388  11.163  0.1539 -0.4618  0.6266
  544TIP3    H223048   3.565   0.351  11.019  0.3105 -0.3994  0.6411
  545TIP3   OH223049   2.145   3.506  13.955 -0.1948 -0.2364  0.0929
  545TIP3    H123050   2.152   3.497  13.860 -0.9429 -0.9737  0.0869
  545TIP3    H223051   2.085   3.435  13.981 -0.7458  0.5322  0.9933
  546TIP3   OH223052   5.181   5.777  11.731  0.1168 -0.1683  0.4507
  546TIP3    H123053   5.123   5.703  11.709 -1.3240  0.9025  0.5373
  546TIP3    H223054   5.145   5.812  11.812  0.9399  0.4876  0.5431
  547TIP3   OH223055   4.393   6.023  15.034  0.4267  0.9263 -0.4015
  547TIP3    H123056   4.418   6.016  14.942 -1.7053  0.3878 -0.9832
  547TIP3    H223057   4.308   5.980  15.040 -0.3455  2.5284  1.4560
  548TIP3   OH223058   0.074   6.463   1.060 -0.4114  0.0234  0.1771
  548TIP3    H123059   0.025   6.470   1.143 -1.6514  0.5204 -0.5642
  548TIP3    H223060   0.165   6.473   1.085 -0.8360  1.1497  1.3884
  549TIP3   OH223061   4.573   3.031  14.403 -0.2360 -0.4328  0.0136
  549TIP3    H123062   4.600   2.957  14.458  1.8829  0.7919  0.7344
  549TIP3    H223063   4.586   3.107  14.459 -1.2096  0.6017 -1.1276
  550TIP3   OH223064   0.343   1.573   0.757 -0.1028 -0.2579 -0.1108
  550TIP3    H123065   0.325   1.518   0.834  1.7850 -1.1884 -0.2708
  550TIP3    H223066   0.284   1.540   0.689 -1.0742 -0.0939  0.6294
  551TIP3   OH223067   4.679   0.122   1.880  0.5134  0.0688  0.2887
  551TIP3    H123068   4.715   0.163   1.801 -1.9104 -2.6338 -2.4687
  551TIP3    H223069   4.642   0.195   1.930  3.0111  1.9956 -0.4278
  552TIP3   OH223070   2.060   1.357   6.307 -0.3758 -0.6356  0.4191
  552TIP3    H123071   2.039   1.325   6.395  1.6611 -0.6900  0.9405
  552TIP3    H223072   2.147   1.321   6.289 -0.6531 -0.4139 -1.5223
  553TIP3   OH223073   4.622   5.905  14.287 -0.5518  0.0496 -0.1445
  553TIP3    H123074   4.701   5.944  14.250  0.4759  0.5233  2.2998
  553TIP3    H223075   4.584   5.854  14.216  0.4219  2.0150 -2.2211
  554TIP3   OH223076   6.297   5.720   4.709 -0.0788  0.4687 -0.6820
  554TIP3    H123077   6.390   5.739   4.697 -0.0188  0.3487 -0.4046
  554TIP3    H223078   6.268   5.686   4.624  0.2084  0.1850 -0.6679
  555TIP3   OH223079   6.775   1.162  14.819  0.6895  0.8925  0.0990
  555TIP3    H123080   6.786   1.126  14.907  0.2949 -0.2009 -0.2871
  555TIP3    H223081   6.681   1.159  14.803  0.7879  0.7973 -0.4832
  556TIP3   OH223082   1.346   5.202  14.573 -0.0428  0.5927 -0.0023
  556TIP3    H123083   1.371   5.240  14.657  0.9460  0.7875 -0.3629
  556TIP3    H223084   1.430   5.177  14.533 -0.6239 -1.9777  0.2180
  557TIP3   OH223085   1.605   5.545  15.919  0.5241 -0.2729 -0.5799
  557TIP3    H123086   1.624   5.453  15.938 -1.1127 -0.7149 -0.9829
  557TIP3    H223087   1.510   5.552  15.926  0.6572  1.5221 -0.0233
  558TIP3   OH223088   0.434   3.002   1.661  0.2269 -0.5954  0.0269
  558TIP3    H123089   0.467   3.088   1.634  1.9435 -1.5714 -1.1951
  558TIP3    H223090   0.376   2.975   1.589 -1.1181 -0.0719  0.8785
  559TIP3   OH223091   0.078   4.374  11.093 -0.2136  0.0796  0.0338
  559TIP3    H123092   0.001   4.421  11.060 -0.1300  0.2850  0.1314
  559TIP3    H223093   0.119   4.336  11.015  0.7187  1.6382 -0.2671
  560TIP3   OH223094   2.458   0.784  11.995 -0.3175  0.9836  1.0650
  560TIP3    H123095   2.367   0.759  12.011 -0.6982  1.3542 -0.3423
  560TIP3    H223096   2.491   0.716  11.936  0.2065  1.0374  1.2976
  561TIP3   OH223097   2.015   0.100  14.109 -0.3599  0.0532  0.2848
  561TIP3    H123098   2.001   0.152  14.030  0.4372 -0.1313  0.0065
  561TIP3    H223099   1.995   0.160  14.181 -1.2520  0.1713 -0.0552
  562TIP3   OH223100   2.558   1.050   3.891 -0.7839 -0.3862 -0.1544
  562TIP3    H123101   2.573   0.993   3.815  1.0294  0.9031 -0.8185
  562TIP3    H223102   2.502   1.120   3.857 -1.2180 -0.6083  0.0980
  563TIP3   OH223103   3.978   3.475  15.391 -0.4965 -0.4892  0.6107
  563TIP3    H123104   3.952   3.412  15.458 -0.1187 -2.7969 -1.2888
  563TIP3    H223105   3.900   3.488  15.338 -0.2012 -0.4046  0.1920
  564TIP3   OH223106   1.759   4.412   4.745 -0.1143 -0.7949 -0.2839
  564TIP3    H123107   1.821   4.395   4.674  3.8905 -2.1126  3.1467
  564TIP3    H223108   1.724   4.326   4.768  0.2253 -0.6902  0.6483
  565TIP3   OH223109   5.854   5.514  13.770 -0.2353  0.0650  0.1752
  565TIP3    H123110   5.947   5.533  13.782 -0.4939  0.5779  1.5530
  565TIP3    H223111   5.829   5.466  13.848 -1.1513 -0.0022 -0.1530
  566TIP3   OH223112   0.440   5.068   6.290 -0.0048 -0.0933  0.1333
  566TIP3    H123113   0.532   5.097   6.290  0.7802 -2.3202  0.5177
  566TIP3    H223114   0.399   5.121   6.359  1.9592 -1.5039  2.6071
  567TIP3   OH223115   5.663   1.495   2.628 -0.0996  0.5772  0.0047
  567TIP3    H123116   5.649   1.477   2.535 -1.6452  1.9541 -0.0729
  567TIP3    H223117   5.688   1.588   2.631  4.1641 -0.3457  0.6678
  568TIP3   OH223118   0.299   5.212   4.297  0.3499  0.5078 -0.3849
  568TIP3    H123119   0.372   5.155   4.273  0.0787  0.4347 -1.0508
  568TIP3    H223120   0.221   5.169   4.262 -0.0384  0.5147  0.4343
  569TIP3   OH223121   5.947   4.476   5.393  0.0948 -0.1057  0.1251
  569TIP3    H123122   5.934   4.440   5.305  0.0850 -1.1533  0.5374
  569TIP3    H223123   6.034   4.445   5.418  0.2591  0.5171  0.3384
  570TIP3   OH223124   2.835   4.583   1.202  0.1475 -0.1524  0.8202
  570TIP3    H123125   2.825   4.654   1.139 -1.0855  0.2521  1.4445
  570TIP3    H223126   2.903   4.527   1.165  0.1647  0.6230 -0.3515
  571TIP3   OH223127   4.167   1.427   1.698  0.5114 -0.6091 -0.2731
  571TIP3    H123128   4.175   1.513   1.658  2.4133 -0.4543  0.3318
  571TIP3    H223129   4.102   1.439   1.767  0.6889  0.3316 -0.2539
  572TIP3   OH223130   4.411   2.099  13.467 -0.6299  0.1580 -0.4408
  572TIP3    H123131   4.475   2.032  13.491 -1.2450 -0.5734 -0.8024
  572TIP3    H223132   4.326   2.055  13.473 -0.9844  0.6649 -1.4570
  573TIP3   OH223133   1.020   1.638  12.467  0.1723 -0.4230  0.2793
  573TIP3    H123134   1.104   1.666  12.503 -0.0625  1.0060 -0.2041
  573TIP3    H223135   1.023   1.542  12.470  1.1395 -0.3799  1.7806
  574TIP3   OH223136   0.015   2.446  15.632  0.7948 -0.1730  0.4096
  574TIP3    H123137  -0.012   2.505  15.702  1.1551 -0.2705  0.6339
  574TIP3    H223138  -0.066   2.400  15.607  0.9241 -1.2551  1.8249
  575TIP3   OH223139   5.612   6.597  15.749 -0.7237  0.3513  0.1912
  575TIP3    H123140   5.519   6.585  15.768 -0.5119 -1.3118  0.3626
  575TIP3    H223141   5.627   6.545  15.670  0.0439  0.6461  0.1375
  576TIP3   OH223142   3.432   1.904   0.436 -0.8083 -0.0898  0.2593
  576TIP3    H123143   3.458   1.965   0.366  0.5124  1.8666  2.3193
  576TIP3    H223144   3.440   1.817   0.396  2.4067  0.7795 -1.3211
  577TIP3   OH223145   0.134   0.160  16.300  0.0319 -0.1458  0.1000
  577TIP3    H123146   0.212   0.125  16.256 -0.7003 -2.2623  0.3859
  577TIP3    H223147   0.163   0.245  16.335  3.2059 -2.0632  2.7998
  578TIP3   OH223148   2.445   1.359   1.429  0.8610  0.7005  0.4423
  578TIP3    H123149   2.362   1.334   1.389  1.5569  0.3779 -0.8227
  578TIP3    H223150   2.430   1.346   1.523 -1.5372  3.5290  0.6239
  579TIP3   OH223151   3.667   2.695  12.496 -0.2035 -0.6972 -0.2243
  579TIP3    H123152   3.682   2.763  12.562  1.1926  0.5319 -1.7148
  579TIP3    H223153   3.634   2.620  12.545 -1.0962  0.8088  1.5858
  580TIP3   OH223154   3.316   0.816  13.772 -0.3369  0.1058  0.3472
  580TIP3    H123155   3.362   0.757  13.712  0.3802  1.1048 -0.1190
  580TIP3    H223156   3.297   0.762  13.849 -2.4901 -1.6086 -1.2544
  581TIP3   OH223157   3.303   6.233   4.912  0.5791  0.2395 -0.9313
  581TIP3    H123158   3.334   6.290   4.842 -0.1684  1.3349 -0.4102
  581TIP3    H223159   3.226   6.190   4.875  1.1967 -0.5302 -1.3568
  582TIP3   OH223160   2.788   6.782   2.046  0.2495 -0.1939  0.5882
  582TIP3    H123161   2.831   6.859   2.083  1.8886 -1.2387  0.9515
  582TIP3    H223162   2.701   6.782   2.086  0.9324  0.3468  2.1657
  583TIP3   OH223163   0.050   5.838  12.840  0.2536 -0.2942 -0.2550
  583TIP3    H123164   0.026   5.879  12.923  0.5655  1.4903 -0.9955
  583TIP3    H223165   0.146   5.835  12.842  0.3078  0.4925 -0.8395
  584TIP3   OH223166   4.975   6.569  11.349 -0.1198 -0.0901 -0.1362
  584TIP3    H123167   4.941   6.639  11.405 -0.0684 -1.2959  1.4426
  584TIP3    H223168   5.070   6.577  11.355 -0.0972 -0.9797  0.9766
  585TIP3   OH223169   0.324   6.528   5.412 -0.2909 -0.2062  0.0290
  585TIP3    H123170   0.383   6.578   5.469  0.2828 -0.9085  0.0719
  585TIP3    H223171   0.271   6.477   5.473  0.7108 -1.3959 -0.0320
  586TIP3   OH223172   6.747   5.112   5.665 -0.6279 -0.2173 -0.4621
  586TIP3    H123173   6.728   5.045   5.730 -0.1837  0.6518  0.5857
  586TIP3    H223174   6.688   5.091   5.592 -2.8634  0.1516  1.1390
  587TIP3   OH223175   1.115   3.243  13.608  0.2143 -0.5746  0.5546
  587TIP3    H123176   1.076   3.326  13.580  0.5600 -0.2821  0.9339
  587TIP3    H223177   1.198   3.267  13.648  0.0288 -1.0439  1.2475
  588TIP3   OH223178   6.335   0.399   1.293 -0.1801  0.1752  0.0690
  588TIP3    H123179   6.278   0.453   1.347  0.4994  0.3116  0.6599
  588TIP3    H223180   6.282   0.323   1.271 -1.1204  1.0170 -0.6980
  589TIP3   OH223181   0.591   0.524   5.741  0.2013  0.2286  0.5294
  589TIP3    H123182   0.561   0.614   5.730  1.8524  0.7389 -0.0119
  589TIP3    H223183   0.592   0.510   5.835 -0.5405  0.5973  0.5978
  590TIP3   OH223184   3.065   5.460   3.386  0.5803  0.4477  0.3414
  590TIP3    H123185   3.004   5.478   3.459  0.8128  0.0516  0.6367
  590TIP3    H223186   3.042   5.525   3.320 -0.5152 -0.0278  0.2409
  591TIP3   OH223187   1.444   0.141  15.250  0.0383 -0.6152  0.1290
  591TIP3    H123188   1.538   0.136  15.264  0.2174 -1.2495 -1.1464
  591TIP3    H223189   1.426   0.234  15.239  0.4633 -0.4651  0.6776
  592TIP3   OH223190   6.220   4.525  13.146  0.8444  0.0810  0.0251
  592TIP3    H123191   6.144   4.531  13.204  2.0020 -0.9111  1.7280
  592TIP3    H223192   6.286   4.579  13.188  2.0631 -1.5258  0.2530
  593TIP3   OH223193   2.748   1.455  11.635 -0.1509  0.0801 -0.3258
  593TIP3    H123194   2.689   1.481  11.564 -0.6076 -0.5087 -0.1645
  593TIP3    H223195   2.699   1.390  11.685  1.0569 -1.3307 -0.8849
  594TIP3   OH223196   1.708   3.026   3.978 -0.3560 -0.0900 -0.0577
  594TIP3    H123197   1.659   3.107   3.961 -1.9092 -1.3711 -2.2308
  594TIP3    H223198   1.730   3.031   4.071 -1.9905  1.9946  0.3104
  595TIP3   OH223199   2.267   4.392  10.289  0.1105  0.6290  0.4505
  595TIP3    H123200   2.361   4.402  10.276 -0.0754  0.7142 -0.9559
  595TIP3    H223201   2.228   4.459  10.233 -0.8932 -2.1461 -2.4045
  596TIP3   OH223202   3.083   3.827  11.315 -0.2463 -0.1383  0.2502
  596TIP3    H123203   3.060   3.844  11.406 -1.2107  1.0280 -0.1833
  596TIP3    H223204   3.133   3.903  11.288 -1.0855  0.1521 -0.5520
  597TIP3   OH223205   2.770   4.930   1.709  0.0116  0.0975  0.0288
  597TIP3    H123206   2.797   4.907   1.799  1.2501  1.5343  0.0585
  597TIP3    H223207   2.821   4.870   1.654 -0.5376 -0.5980  0.2608
  598TIP3   OH223208   1.836   5.558  13.844  0.0763  0.1222  0.1831
  598TIP3    H123209   1.893   5.505  13.901  0.9534  1.3823  0.5424
  598TIP3    H223210   1.844   5.518  13.758  0.7365 -0.3223  0.4410
  599TIP3   OH223211   1.694   5.865   5.643 -0.0358  0.2702  0.7198
  599TIP3    H123212   1.663   5.948   5.607  0.5577  0.0311 -0.3877
  599TIP3    H223213   1.635   5.799   5.606 -0.2554  0.1468  1.2736
  600TIP3   OH223214   2.253   1.798  11.779  0.4421  0.2972  0.3635
  600TIP3    H123215   2.254   1.786  11.874 -0.1975  0.5904  0.4113
  600TIP3    H223216   2.165   1.831  11.760 -0.3753 -2.2439 -0.6419
  601TIP3   OH223217   1.605   3.967   2.047  0.2181  0.1866  0.6372
  601TIP3    H123218   1.533   3.909   2.022  0.3382  0.9179 -1.6334
  601TIP3    H223219   1.675   3.946   1.986  1.2411  0.8706  1.5329
  602TIP3   OH223220   5.232   5.396   4.392 -0.0361 -0.0570 -0.8768
  602TIP3    H123221   5.326   5.411   4.393 -0.2042  1.3607  1.8764
  602TIP3    H223222   5.211   5.361   4.478 -2.0460 -0.2077 -1.3625
  603TIP3   OH223223   2.368   4.091   0.464 -0.2169  0.2252 -0.5356
  603TIP3    H123224   2.310   4.043   0.524 -0.3491  0.0784 -0.7822
  603TIP3    H223225   2.329   4.080   0.378  1.3022 -1.7362 -1.0779
  604TIP3   OH223226   6.546   2.606  13.465  0.5072 -0.2558 -0.8166
  604TIP3    H123227   6.594   2.670  13.517 -1.2016 -0.6919  1.4321
  604TIP3    H223228   6.576   2.521  13.496 -0.7580 -0.5220 -0.2302
  605TIP3   OH223229   3.607   0.504   5.536 -0.1159 -0.3934 -0.1452
  605TIP3    H123230   3.559   0.581   5.505  1.7853 -0.1016 -2.6200
  605TIP3    H223231   3.538   0.441   5.559 -1.6987  0.7946 -1.3832
  606TIP3   OH223232   2.843   6.475   6.021 -0.1599 -0.0101 -0.2575
  606TIP3    H123233   2.840   6.488   6.116 -2.1339  1.0390 -0.4004
  606TIP3    H223234   2.902   6.543   5.990 -0.5676  0.5328  0.1278
  607TIP3   OH223235   4.158   2.225  15.453  0.3406  0.1636 -0.5960
  607TIP3    H123236   4.078   2.230  15.506  0.0535 -1.8082 -0.7613
  607TIP3    H223237   4.229   2.226  15.516  0.0450 -0.9039 -0.2196
  608TIP3   OH223238   1.638   6.754  15.997 -0.0151 -0.3205 -0.3920
  608TIP3    H123239   1.612   6.687  16.060 -2.5770  0.1981 -0.8035
  608TIP3    H223240   1.571   6.752  15.929  1.4344  0.6951 -1.9521
  609TIP3   OH223241   4.811   0.955   0.266 -0.1595 -0.0446  0.2331
  609TIP3    H123242   4.759   1.018   0.215 -1.0841 -1.3130 -0.4634
  609TIP3    H223243   4.864   0.909   0.200 -0.7741 -1.1579  0.4935
  610TIP3   OH223244   5.348   1.458  16.425 -0.4128  0.3525  0.3438
  610TIP3    H123245   5.324   1.524  16.360 -2.0655  1.0043  1.5664
  610TIP3    H223246   5.273   1.452  16.484  0.6906 -0.8229  1.7303
  611TIP3   OH223247   1.209   6.481   4.203  0.3050 -0.8480 -0.1277
  611TIP3    H123248   1.157   6.554   4.170 -0.2758 -1.0863  0.2417
  611TIP3    H223249   1.297   6.497   4.170 -0.1371 -0.7773 -1.3097
  612TIP3   OH223250   0.997   4.292  10.121 -0.1524 -0.1547 -0.5829
  612TIP3    H123251   0.940   4.246  10.059  0.8260 -2.6465  0.2832
  612TIP3    H223252   0.967   4.264  10.207  1.4262 -0.3336 -0.0711
  613TIP3   OH223253   0.214   1.140   3.884  0.3545  0.1035  0.3312
  613TIP3    H123254   0.213   1.085   3.962  0.8552  0.8470  0.8753
  613TIP3    H223255   0.134   1.116   3.836  0.4374 -0.8971  0.6814
  614TIP3   OH223256   4.501   4.018   3.231 -0.2480  0.4528  0.0265
  614TIP3    H123257   4.445   4.060   3.297  0.1727  0.2029  0.5546
  614TIP3    H223258   4.586   4.011   3.274 -0.4586 -1.5657  0.2185
  615TIP3   OH223259   2.281   2.862  15.782  0.0848  0.4632  0.0343
  615TIP3    H123260   2.232   2.944  15.775  1.4890  1.5552  1.8667
  615TIP3    H223261   2.371   2.886  15.763  0.5720 -0.5752  0.9025
  616TIP3   OH223262   1.229   4.661   5.454 -0.5351 -0.5561 -0.0894
  616TIP3    H123263   1.256   4.634   5.366 -0.4112  1.0952 -0.6098
  616TIP3    H223264   1.139   4.630   5.462 -0.2140 -1.5954 -0.4013
  617TIP3   OH223265   1.728   2.262   3.550  0.4306  0.3151 -0.0931
  617TIP3    H123266   1.689   2.347   3.570 -0.6976 -0.3420  0.5922
  617TIP3    H223267   1.684   2.233   3.470  0.7020  0.2891 -0.2368
  618TIP3   OH223268   0.521   0.257   6.206  0.1210 -0.2364 -0.0741
  618TIP3    H123269   0.454   0.228   6.145  1.3968 -0.3054 -1.5075
  618TIP3    H223270   0.604   0.239   6.161  1.1482 -0.7303  1.8687
  619TIP3   OH223271   2.426   0.622   1.091 -0.2829  1.0104  0.2350
  619TIP3    H123272   2.496   0.556   1.088 -0.4062  0.8668 -2.2779
  619TIP3    H223273   2.473   0.706   1.088 -0.1078  1.1699  3.8800
  620TIP3   OH223274   4.645   3.718   4.837 -0.0495 -0.5606 -0.0519
  620TIP3    H123275   4.560   3.678   4.854 -0.5559  0.5881  0.2384
  620TIP3    H223276   4.708   3.661   4.881 -0.7772 -0.8680  0.6010
  621TIP3   OH223277   2.890   1.678  14.520 -0.0156 -0.0487 -0.5463
  621TIP3    H123278   2.815   1.623  14.540  0.5947 -1.3007 -1.5239
  621TIP3    H223279   2.966   1.626  14.547  0.5193  1.6574  1.4931
  622TIP3   OH223280   5.850   1.015   4.112 -0.1207  0.9760 -0.6613
  622TIP3    H123281   5.768   1.062   4.096 -1.2407 -0.0847  1.5133
  622TIP3    H223282   5.896   1.067   4.178 -1.0323 -0.4801  1.2172
  623TIP3   OH223283   1.489   3.900  14.169 -0.0944  0.2395 -0.4762
  623TIP3    H123284   1.438   3.954  14.109  2.0834  1.7772 -1.0706
  623TIP3    H223285   1.460   3.927  14.256  0.3051  1.7407 -0.7779
  624TIP3   OH223286   2.546   5.761  16.228 -0.0447 -0.2788 -0.6647
  624TIP3    H123287   2.605   5.761  16.153  1.3848  0.0709  0.4034
  624TIP3    H223288   2.496   5.681  16.219  1.4856 -1.2509 -0.9777
  625TIP3   OH223289   0.100   3.360   3.905 -0.0018  0.6133  0.5517
  625TIP3    H123290   0.142   3.427   3.851  1.4747 -0.9066 -0.2817
  625TIP3    H223291   0.014   3.347   3.864  0.2871  0.9489 -0.1780
  626TIP3   OH223292   2.863   5.633   2.719  0.3368 -0.1097  0.3165
  626TIP3    H123293   2.918   5.687   2.662  1.6475 -0.8912  0.7917
  626TIP3    H223294   2.886   5.543   2.694 -1.8650 -0.5094 -0.5409
  627TIP3   OH223295   2.278   0.884  13.374 -0.4285  0.2195  0.2559
  627TIP3    H123296   2.233   0.831  13.441  0.1163 -0.9726 -0.2934
  627TIP3    H223297   2.271   0.831  13.294  0.8245  0.6122 -0.1255
  628TIP3   OH223298   0.071   1.573   1.543 -0.4377 -0.2299  0.0264
  628TIP3    H123299   0.105   1.516   1.474  0.0980 -0.9368  0.8430
  628TIP3    H223300  -0.020   1.590   1.518 -1.1797 -2.8848  0.5785
  629TIP3   OH223301   1.485   2.839   3.891 -0.2073  0.2692 -0.7358
  629TIP3    H123302   1.462   2.895   3.817  0.7310  0.7141 -0.7084
  629TIP3    H223303   1.498   2.901   3.964  0.7997  0.0127 -0.6930
  630TIP3   OH223304   6.240   6.124  16.655 -0.1099  0.3860 -0.8005
  630TIP3    H123305   6.326   6.108  16.616  0.8535  3.0122  0.0523
  630TIP3    H223306   6.256   6.126  16.749 -1.1016  0.8286 -0.6281
  631TIP3   OH223307   5.280   5.284  13.848  0.2728  0.0588  0.5737
  631TIP3    H123308   5.216   5.214  13.863  0.0703  0.0841 -0.1434
  631TIP3    H223309   5.278   5.299  13.754  0.5458  0.8183  0.6801
  632TIP3   OH223310   4.192   2.733  15.234 -0.1351 -0.0116  0.1460
  632TIP3    H123311   4.280   2.766  15.253 -0.1368 -1.2094  2.5862
  632TIP3    H223312   4.204   2.640  15.214 -0.5072  0.5571 -3.2916
  633TIP3   OH223313   3.358   2.685   3.403  0.5542  1.0104 -0.6650
  633TIP3    H123314   3.390   2.746   3.469  1.1947  0.7311 -0.7130
  633TIP3    H223315   3.265   2.707   3.393  0.5668  1.3662 -0.0206
  634TIP3   OH223316   2.532   2.528   3.041 -0.3162 -0.6534 -0.5024
  634TIP3    H123317   2.548   2.589   3.112  2.3631 -1.2634 -0.4764
  634TIP3    H223318   2.451   2.483   3.065 -0.8114  0.9062  0.8692
  635TIP3   OH223319   5.426   4.655  14.802  0.0523 -0.3976  0.0623
  635TIP3    H123320   5.417   4.638  14.708 -1.7831  0.5015  0.0220
  635TIP3    H223321   5.340   4.631  14.839  1.1786 -2.1007  1.7701
  636TIP3   OH223322   2.267   5.088  12.840 -0.6281 -0.7155  0.6926
  636TIP3    H123323   2.348   5.131  12.815 -1.5669  1.2351  0.8122
  636TIP3    H223324   2.246   5.030  12.767 -0.6455  1.0155 -0.7183
  637TIP3   OH223325   1.133   0.252   1.134  0.6246  0.4362  0.6326
  637TIP3    H123326   1.107   0.272   1.225  0.1106  0.6271  0.4478
  637TIP3    H223327   1.201   0.186   1.143  1.0457  0.9284  1.1874
  638TIP3   OH223328   4.659   4.433   3.122  0.2128  0.0176 -0.0486
  638TIP3    H123329   4.694   4.350   3.090  0.8853 -0.3683  1.5606
  638TIP3    H223330   4.620   4.474   3.045  0.2157 -1.6044 -0.9739
  639TIP3   OH223331   5.634   1.432   2.910 -0.0652 -0.1266 -0.4507
  639TIP3    H123332   5.618   1.395   2.823  1.5990  1.1711 -1.3857
  639TIP3    H223333   5.623   1.526   2.898  1.2087  0.1668  0.4664
  640TIP3   OH223334   5.695   1.152  13.771  0.5513  0.2597 -0.6977
  640TIP3    H123335   5.683   1.172  13.864 -0.3420 -0.2105 -0.7068
  640TIP3    H223336   5.787   1.125  13.764  0.3833 -0.5837  0.2140
  641TIP3   OH223337   0.639   2.976   5.635  0.3760  0.0830  0.3330
  641TIP3    H123338   0.609   3.037   5.703 -0.9516  0.7355 -0.8088
  641TIP3    H223339   0.600   3.009   5.554  0.0696 -1.9808 -0.4076
  642TIP3   OH223340   3.180   2.125   5.931  0.1651  0.5918 -0.5037
  642TIP3    H123341   3.098   2.174   5.931  1.2976  2.6363  0.9148
  642TIP3    H223342   3.200   2.111   6.024  1.9433  1.1582 -0.7530
  643TIP3   OH223343   1.678   4.025   5.881  0.3157 -0.2824  0.7818
  643TIP3    H123344   1.681   3.936   5.917 -0.8428 -0.7202 -0.0939
  643TIP3    H223345   1.685   4.011   5.786 -1.1844  0.4213  0.5328
  644TIP3   OH223346   1.598   5.502  12.123 -0.7016  0.6052  0.4323
  644TIP3    H123347   1.520   5.491  12.176 -0.2753 -1.4100  0.7184
  644TIP3    H223348   1.667   5.523  12.186 -0.3847 -0.8586  0.6022
  645TIP3   OH223349   6.600   2.486   4.004  0.0948 -0.0129  0.0681
  645TIP3    H123350   6.642   2.565   3.971  1.4921  0.1701  2.1160
  645TIP3    H223351   6.654   2.414   3.972 -0.5377 -0.1002 -0.8556
  646TIP3   OH223352   2.744   6.417  12.890 -0.0634 -0.1020 -0.0131
  646TIP3    H123353   2.726   6.510  12.907  2.0406  0.4364 -0.4643
  646TIP3    H223354   2.657   6.377  12.885 -1.0062  1.5649  1.6107
  647TIP3   OH223355   5.874   4.119  13.168  0.9834 -0.3346 -0.2676
  647TIP3    H123356   5.950   4.061  13.168  1.0791 -0.2185  0.7937
  647TIP3    H223357   5.799   4.060  13.154  1.2538 -0.4516 -1.2766
  648TIP3   OH223358   0.663   2.462  16.808  0.0109  0.1370  0.0808
  648TIP3    H123359   0.642   2.421  16.724  2.5408  1.2680 -1.2294
  648TIP3    H223360   0.630   2.552  16.799  1.1208  0.5413 -0.1410
  649TIP3   OH223361   3.085   5.300   5.218  0.1773 -0.1737  0.2358
  649TIP3    H123362   3.136   5.379   5.203 -1.4501  0.6735 -1.0361
  649TIP3    H223363   3.073   5.262   5.131 -1.9051  0.0215  0.3884
  650TIP3   OH223364   2.744   0.784   2.948  0.3204  0.7650  0.4216
  650TIP3    H123365   2.798   0.831   2.884  0.1621  0.6014  0.1608
  650TIP3    H223366   2.806   0.737   3.002  0.4145 -1.2349 -1.2815
  651TIP3   OH223367   0.460   5.444  14.187  0.2008 -0.0244  0.8037
  651TIP3    H123368   0.517   5.423  14.261 -0.5483  0.6849  1.6006
  651TIP3    H223369   0.513   5.425  14.109  1.3362  0.1534  1.5182
  652TIP3   OH223370   6.742   4.085   2.313  0.1488  0.1085 -0.4884
  652TIP3    H123371   6.668   4.064   2.369  1.0850  0.8180  1.0961
  652TIP3    H223372   6.720   4.169   2.273  0.6837  1.1034  1.1864
  653TIP3   OH223373   4.755   4.593   0.213 -0.2881  0.1816  0.4357
  653TIP3    H123374   4.797   4.661   0.161 -0.2973  0.4781  0.8111
  653TIP3    H223375   4.703   4.543   0.150  1.0733 -0.5618 -0.1390
  654TIP3   OH223376   4.929   2.432  11.870  0.2034 -0.5427  0.0226
  654TIP3    H123377   4.989   2.501  11.839 -0.5513  0.0966 -0.0679
  654TIP3    H223378   4.973   2.350  11.849  1.1755 -0.0831  0.2346
  655TIP3   OH223379   2.386   1.033   5.714  0.5674 -0.0840  0.3687
  655TIP3    H123380   2.431   0.986   5.784  1.7001 -1.5488 -1.2726
  655TIP3    H223381   2.455   1.057   5.653 -0.4497  0.7800 -0.4762
  656TIP3   OH223382   6.171   2.781  12.170  0.3488  0.1136  0.1024
  656TIP3    H123383   6.212   2.819  12.247  0.3444 -0.2377  0.2821
  656TIP3    H223384   6.077   2.788  12.186  0.3449 -0.5494  0.4367
  657TIP3   OH223385   6.504   6.802   4.702  0.3757 -0.0504  0.0661
  657TIP3    H123386   6.583   6.845   4.670  0.2361  1.2775  1.3778
  657TIP3    H223387   6.515   6.710   4.678  0.9031  0.5883 -2.4555
  658TIP3   OH223388   4.253   5.450  16.821 -0.0660 -0.2942  0.1872
  658TIP3    H123389   4.265   5.539  16.853  0.8355 -0.5586  0.6261
  658TIP3    H223390   4.203   5.460  16.740 -0.2457  0.5815  0.3976
  659TIP3   OH223391   1.162   6.478   3.811  0.1315 -0.1557 -0.7937
  659TIP3    H123392   1.230   6.414   3.833  0.1767 -0.1087 -0.7981
  659TIP3    H223393   1.086   6.450   3.862  0.3280  0.1285 -0.3384
  660TIP3   OH223394   1.520   5.716  13.376  0.4740  0.7391  0.2010
  660TIP3    H123395   1.544   5.786  13.437 -2.0850 -0.1051  2.3991
  660TIP3    H223396   1.469   5.761  13.309 -1.3957  1.0826  1.7462
  661TIP3   OH223397   0.665   1.690   6.170 -0.0895  0.6734  0.1447
  661TIP3    H123398   0.650   1.596   6.177 -2.2603  0.7613 -1.9273
  661TIP3    H223399   0.582   1.729   6.197  1.2948  2.1426  2.5815
  662TIP3   OH223400   5.175   5.717   6.128  0.1996 -0.1499 -0.6896
  662TIP3    H123401   5.240   5.656   6.162  0.4523  1.8860  2.9439
  662TIP3    H223402   5.092   5.671   6.140  0.3440  0.1418  2.3410
  663TIP3   OH223403   0.088   2.516   2.937  0.3445  0.0036 -0.0293
  663TIP3    H123404   0.102   2.610   2.928  2.2214 -0.1855  0.4954
  663TIP3    H223405   0.159   2.486   2.995  1.0533 -2.0319 -1.7817
  664TIP3   OH223406   0.536   0.604   4.152 -0.0511  0.1453  0.5024
  664TIP3    H123407   0.518   0.617   4.059  0.8890 -0.2267  0.2574
  664TIP3    H223408   0.550   0.692   4.187  1.2705  0.1773 -0.0757
  665TIP3   OH223409   5.886   5.733   2.310 -0.1376  0.5942 -0.3152
  665TIP3    H123410   5.948   5.663   2.332  0.2163  0.4125 -1.7996
  665TIP3    H223411   5.850   5.708   2.225 -3.3872 -0.0505  1.0944
  666TIP3   OH223412   5.378   3.374   4.020  0.5531 -0.2714 -0.5297
  666TIP3    H123413   5.375   3.399   3.927  0.6170 -2.0180 -1.0442
  666TIP3    H223414   5.461   3.328   4.029  0.4909 -0.2136  0.3769
  667TIP3   OH223415   6.512   3.253  11.571 -0.7776  0.6947  0.7061
  667TIP3    H123416   6.418   3.269  11.562 -1.0490 -0.7009  0.9574
  667TIP3    H223417   6.550   3.290  11.492 -1.8462 -1.0762 -0.7120
  668TIP3   OH223418   6.183   4.287  13.442  0.3544  0.2895 -0.2224
  668TIP3    H123419   6.247   4.293  13.371  1.1011  1.2814  0.5079
  668TIP3    H223420   6.102   4.319  13.403  0.9401  1.6003 -0.4400
  669TIP3   OH223421   5.072   5.997  14.674  0.0534  0.2213 -0.2581
  669TIP3    H123422   5.106   5.908  14.676 -0.2014  0.1028 -0.9742
  669TIP3    H223423   5.010   5.998  14.601 -0.3549  0.8397  0.0784
  670TIP3   OH223424   1.858   1.418   3.310  0.9634 -0.4819  0.0024
  670TIP3    H123425   1.772   1.407   3.352  1.2971 -1.7981  0.4166
  670TIP3    H223426   1.858   1.352   3.240  0.9434  0.7700 -1.2120
  671TIP3   OH223427   2.678   1.117   4.532 -0.0214 -0.1585 -0.3032
  671TIP3    H123428   2.774   1.119   4.527  0.0420  0.7298  0.7428
  671TIP3    H223429   2.650   1.083   4.447  1.1918  0.7213 -1.0980
  672TIP3   OH223430   6.694   1.176   4.189 -0.1156  0.6907 -0.2072
  672TIP3    H123431   6.609   1.186   4.232 -0.6794  1.1436 -1.3703
  672TIP3    H223432   6.731   1.096   4.226 -0.3081  1.3529  1.5077
  673TIP3   OH223433   3.013   3.724   3.563 -0.9024 -0.3187 -0.9977
  673TIP3    H123434   3.097   3.714   3.608 -0.7552  3.5432 -0.0952
  673TIP3    H223435   3.030   3.691   3.474  1.3308 -0.3195 -0.6308
  674TIP3   OH223436   1.401   0.752   3.718 -0.4108 -0.2645 -0.5039
  674TIP3    H123437   1.366   0.699   3.647 -0.0499  0.6669 -1.3991
  674TIP3    H223438   1.342   0.826   3.725 -0.5333 -0.4216  0.2900
  675TIP3   OH223439   4.695   4.896  14.370  0.1238 -0.4320 -0.0878
  675TIP3    H123440   4.767   4.881  14.310  0.8811  0.4657  0.5715
  675TIP3    H223441   4.736   4.917  14.454 -0.7697  2.9165 -0.3519
  676TIP3   OH223442   0.791   2.627  17.064  0.1062 -0.2999 -0.0322
  676TIP3    H123443   0.869   2.679  17.044  0.9399 -1.3416  0.3785
  676TIP3    H223444   0.718   2.687  17.053  0.9451  0.6253 -0.7301
  677TIP3   OH223445   1.246   0.409  14.581  0.7294  0.2263 -0.0872
  677TIP3    H123446   1.300   0.476  14.537  0.4842  2.8483  3.1571
  677TIP3    H223447   1.309   0.344  14.612  1.5252  1.0568  0.0774
  678TIP3   OH223448   4.510   4.093  14.094 -0.2180  0.1820 -0.0065
  678TIP3    H123449   4.556   4.015  14.126 -1.2743 -0.2348  0.5443
  678TIP3    H223450   4.580   4.153  14.070  0.6463 -1.3038 -1.4163
  679TIP3   OH223451   6.176   1.299  14.761 -0.0711 -0.8814  0.3231
  679TIP3    H123452   6.153   1.362  14.693 -1.7833  0.2035  1.8113
  679TIP3    H223453   6.258   1.333  14.799  1.0700 -1.6634 -1.3041
  680TIP3   OH223454   1.142   3.871   0.513 -0.2174 -0.0639  0.1066
  680TIP3    H123455   1.223   3.879   0.461 -0.5598  0.3683 -0.3748
  680TIP3    H223456   1.112   3.782   0.498  0.2148 -0.2580  0.3605
  681TIP3   OH223457   1.035   1.836   3.955 -0.3706  0.2038 -0.2168
  681TIP3    H123458   1.066   1.790   4.033 -1.0471 -0.8443 -0.5361
  681TIP3    H223459   1.100   1.816   3.888 -0.5552 -0.1409 -0.2992
  682TIP3   OH223460   5.886   5.988   0.897 -0.3544  0.1841 -0.3356
  682TIP3    H123461   5.857   5.918   0.955 -1.8450 -0.9223 -2.3084
  682TIP3    H223462   5.981   5.975   0.891 -0.7534 -2.8480 -1.9946
  683TIP3   OH223463   0.931   0.018   4.522  0.2508  0.4030  0.2827
  683TIP3    H123464   0.954  -0.024   4.605 -1.2457  0.0295  0.5396
  683TIP3    H223465   0.835   0.023   4.523 -0.2703 -3.1858 -3.0289
  684TIP3   OH223466   3.673   6.739  14.701 -0.5640 -0.8987 -0.1644
  684TIP3    H123467   3.704   6.758  14.612 -0.2479  0.2944  0.1860
  684TIP3    H223468   3.740   6.775  14.758 -1.8094  0.3368  0.5859
  685TIP3   OH223469   2.835   2.271   4.552  0.2816 -0.3883  0.4259
  685TIP3    H123470   2.838   2.190   4.603 -2.1871 -1.5343 -1.0733
  685TIP3    H223471   2.790   2.333   4.608 -0.7889 -1.0891  0.3598
  686TIP3   OH223472   4.831   0.461   1.895 -0.1279 -0.2185 -0.2165
  686TIP3    H123473   4.802   0.460   1.804 -1.0076 -2.1251  0.0075
  686TIP3    H223474   4.926   0.451   1.891 -0.2850 -1.7256 -0.9529
  687TIP3   OH223475   0.835   1.955   3.238 -0.5269  0.4158  0.1471
  687TIP3    H123476   0.756   2.005   3.262 -0.8484 -0.9025  2.1299
  687TIP3    H223477   0.865   1.919   3.321  1.5858  0.0077 -0.7454
  688TIP3   OH223478   4.514   0.324   2.615  0.2537  0.1332 -1.2796
  688TIP3    H123479   4.505   0.230   2.602 -1.7020  0.4494 -2.5409
  688TIP3    H223480   4.598   0.346   2.574  0.6612 -1.0188 -1.0905
  689TIP3   OH223481   1.277   3.912   4.845  0.1588  0.2883  1.0217
  689TIP3    H123482   1.336   3.944   4.776  0.4316 -1.4607  0.3821
  689TIP3    H223483   1.317   3.830   4.874 -1.1692 -0.1520  1.6649
  690TIP3   OH223484   2.516   5.675   3.029 -0.7146  0.0764 -0.4728
  690TIP3    H123485   2.526   5.640   3.118 -0.2373  0.3065 -0.4329
  690TIP3    H223486   2.426   5.653   3.005 -0.7006 -0.4108 -0.1148
  691TIP3   OH223487   6.190   4.868   0.966  0.2988  0.1527  0.0514
  691TIP3    H123488   6.275   4.837   0.935  0.8224  1.3661  0.2281
  691TIP3    H223489   6.127   4.836   0.900  0.9431 -0.3562 -0.3236
  692TIP3   OH223490   3.063   3.890   4.429  0.0931 -0.6622 -0.6176
  692TIP3    H123491   2.968   3.876   4.436  0.2366 -1.3122  0.0233
  692TIP3    H223492   3.081   3.879   4.335 -0.4644 -0.5239 -0.7483
  693TIP3   OH223493   3.080   1.911   2.671 -0.3187 -0.6942 -0.3444
  693TIP3    H123494   3.125   1.881   2.749  0.6323  2.9298  0.6903
  693TIP3    H223495   3.150   1.930   2.608 -0.8459 -0.6631 -0.9385
  694TIP3   OH223496   2.698   0.034   0.916  0.4037 -0.7032 -0.4633
  694TIP3    H123497   2.730   0.001   0.832  1.2218 -1.4805  0.1368
  694TIP3    H223498   2.692  -0.043   0.972 -1.2647 -0.3658 -0.1354
  695TIP3   OH223499   2.411   5.939  16.594  0.1889 -0.5264 -0.4221
  695TIP3    H123500   2.353   5.979  16.658  0.0918  1.8389 -1.8741
  695TIP3    H223501   2.388   5.846  16.595 -0.2663 -0.4716  2.4120
  696TIP3   OH223502   0.041   6.341  13.540  0.2658  0.0335 -0.1434
  696TIP3    H123503  -0.036   6.333  13.483 -0.5188  0.6174  0.7932
  696TIP3    H223504   0.110   6.375  13.483 -0.4941  0.5975 -0.7457
  697TIP3   OH223505   5.398   4.477   5.337  0.4727  0.0877  0.0695
  697TIP3    H123506   5.484   4.488   5.377 -0.0731 -1.1368  1.6931
  697TIP3    H223507   5.385   4.382   5.334  0.4216  0.0736 -3.0279
  698TIP3   OH223508   4.095   5.356  11.253  0.2928 -0.2274 -0.1263
  698TIP3    H123509   4.149   5.352  11.174 -0.5370 -5.1333 -0.8007
  698TIP3    H223510   4.153   5.326  11.323  0.1541  0.9388  0.5044
  699TIP3   OH223511   3.890   3.123   0.388 -0.2986 -0.1928 -0.2595
  699TIP3    H123512   3.811   3.174   0.369  0.2450  1.3897  1.4629
  699TIP3    H223513   3.858   3.035   0.408 -1.5863  0.3180 -0.0005
  700TIP3   OH223514   4.836   2.689  14.621  0.3336  0.2388 -1.3233
  700TIP3    H123515   4.854   2.741  14.542 -0.2100 -0.3484 -1.8459
  700TIP3    H223516   4.779   2.618  14.590  0.9054 -0.5547 -0.5823
  701TIP3   OH223517   5.913   0.420   3.453  0.1515  0.3674  0.1537
  701TIP3    H123518   5.831   0.371   3.451  0.2514  0.1921 -1.3843
  701TIP3    H223519   5.913   0.471   3.372  2.4482 -1.2358 -0.9939
  702TIP3   OH223520   0.833   0.204  15.533 -0.1698  0.1637  0.7055
  702TIP3    H123521   0.791   0.133  15.484  1.3730 -1.1459  1.2268
  702TIP3    H223522   0.925   0.199  15.508  0.0222  1.8232  0.9772
  703TIP3   OH223523   6.275   0.927   4.758 -0.8309  0.0606  0.2480
  703TIP3    H123524   6.366   0.899   4.769 -0.7166  0.5950  0.6926
  703TIP3    H223525   6.247   0.885   4.677  0.0673  0.5346 -0.3230
  704TIP3   OH223526   6.758   5.630   2.141 -0.1146  0.5528 -0.3654
  704TIP3    H123527   6.853   5.628   2.130  0.0587 -0.2698  1.0280
  704TIP3    H223528   6.723   5.584   2.065  0.7696 -1.4754  0.3994
  705TIP3   OH223529   5.657   1.852  14.352  0.4679 -0.0344  0.1613
  705TIP3    H123530   5.660   1.815  14.264 -1.2646  1.1783 -0.4617
  705TIP3    H223531   5.602   1.790  14.402  0.4899 -0.1220  0.0768
  706TIP3   OH223532   1.786   1.907   1.901 -0.9810 -0.5274  0.1207
  706TIP3    H123533   1.714   1.844   1.893 -1.5479  0.2782 -1.8675
  706TIP3    H223534   1.829   1.906   1.815  0.3790  0.1908  0.7589
  707TIP3   OH223535   6.556   4.510   3.867 -0.9577  0.0430  0.2998
  707TIP3    H123536   6.512   4.595   3.857 -0.0651  0.4225 -0.6445
  707TIP3    H223537   6.488   4.446   3.847 -1.0905  0.6226 -1.2544
  708TIP3   OH223538   3.153   0.280  11.310  0.3802 -0.4891  0.0085
  708TIP3    H123539   3.067   0.241  11.331  0.6944 -1.4007 -0.3477
  708TIP3    H223540   3.137   0.331  11.230 -0.0386  0.1380  0.4834
  709TIP3   OH223541   5.691   1.312   3.825 -0.0130  0.3108 -0.4526
  709TIP3    H123542   5.673   1.238   3.768  0.9362 -1.3905  1.3525
  709TIP3    H223543   5.636   1.383   3.790 -1.0338 -1.2376 -2.1674
  710TIP3   OH223544   3.988   3.714   0.537  0.5314 -0.1147 -0.8560
  710TIP3    H123545   3.982   3.777   0.609  1.0093 -0.7867 -0.2150
  710TIP3    H223546   3.937   3.639   0.566 -0.1656  0.0261 -1.6846
  711TIP3   OH223547   3.955   4.174   2.572 -0.6119  0.4953 -0.1317
  711TIP3    H123548   4.015   4.233   2.528 -0.0492 -0.7079 -1.0334
  711TIP3    H223549   4.006   4.136   2.644  0.0459 -1.1741 -1.4133
  712TIP3   OH223550   3.019   3.051  11.504 -0.3165  0.1324  0.0714
  712TIP3    H123551   3.036   3.133  11.458 -3.1360  0.1072 -1.2062
  712TIP3    H223552   3.061   2.984  11.450  0.3019  0.5393  0.0426
  713TIP3   OH223553   2.033   2.900  11.876 -0.1579  0.7054  0.4542
  713TIP3    H123554   1.977   2.960  11.925 -0.2652  0.4514  0.6434
  713TIP3    H223555   2.110   2.952  11.854 -0.5734  1.1416 -0.0323
  714TIP3   OH223556   6.615   5.837   4.926 -0.3928 -0.1802 -0.0393
  714TIP3    H123557   6.528   5.872   4.905 -0.6342 -0.3044  0.7251
  714TIP3    H223558   6.600   5.744   4.940 -0.5728  0.1505  2.3420
  715TIP3   OH223559   4.484   2.218   5.506  0.3888 -0.0864 -0.1530
  715TIP3    H123560   4.511   2.198   5.595  0.4234 -0.0333 -0.1514
  715TIP3    H223561   4.413   2.157   5.488 -1.2384  1.4803  0.7381
  716TIP3   OH223562   0.566   5.983   3.627  0.5958  0.3042  0.3680
  716TIP3    H123563   0.537   6.068   3.593  0.8612  1.0765  1.9626
  716TIP3    H223564   0.550   5.989   3.721  0.5100 -1.4784  0.4856
  717TIP3   OH223565   4.306   4.274  15.323  0.0074  0.3831 -0.5583
  717TIP3    H123566   4.249   4.348  15.342  0.1118 -0.1977  2.4778
  717TIP3    H223567   4.359   4.303  15.248 -0.0078  3.3347  0.4475
  718TIP3   OH223568   6.197   2.322   1.874  0.5374  0.0941 -0.1046
  718TIP3    H123569   6.139   2.321   1.949  0.2794 -2.2718 -0.2572
  718TIP3    H223570   6.161   2.388   1.815 -0.3543  0.6214  1.0213
  719TIP3   OH223571   4.017   3.982   4.804 -0.2073  0.3261  0.4908
  719TIP3    H123572   4.080   3.963   4.734 -1.2501 -1.1965 -0.0782
  719TIP3    H223573   4.045   4.067   4.838  1.0464  0.5540 -0.9739
  720TIP3   OH223574   5.206   3.084  12.964  0.4765  0.6701 -0.9427
  720TIP3    H123575   5.207   3.107  13.057 -1.8624 -1.7939 -0.1602
  720TIP3    H223576   5.131   3.133  12.928  0.7007  0.7730 -1.2730
  721TIP3   OH223577   1.722   2.528  15.761  0.2013  0.4654 -0.5210
  721TIP3    H123578   1.681   2.491  15.839  0.3825 -0.9916 -1.0922
  721TIP3    H223579   1.651   2.572  15.714 -0.1559  0.2788 -0.1560
  722TIP3   OH223580   2.096   1.614   0.956 -0.0996  0.4009 -0.3820
  722TIP3    H123581   2.170   1.646   0.904 -0.0946  1.0820  0.0425
  722TIP3    H223582   2.067   1.690   1.006 -1.3838  0.2630 -0.8823
  723TIP3   OH223583   0.649   0.388  12.886 -0.0010 -0.1067 -0.1656
  723TIP3    H123584   0.616   0.396  12.976 -0.6006  0.7946 -0.4613
  723TIP3    H223585   0.734   0.432  12.887 -0.6328  1.1666 -0.3579
  724TIP3   OH223586   4.306   3.806  15.929  0.0171 -0.5994  0.8964
  724TIP3    H123587   4.325   3.867  15.858 -0.3041 -0.8521  0.5910
  724TIP3    H223588   4.219   3.771  15.909  0.1588 -1.0926  1.1104
  725TIP3   OH223589   1.588   3.153  14.279 -0.4197  0.3848 -0.3174
  725TIP3    H123590   1.628   3.140  14.194 -0.8229  1.9858 -0.7870
  725TIP3    H223591   1.551   3.068  14.302 -1.0000  0.1178 -2.1146
  726TIP3   OH223592   4.012   5.965   0.147 -0.0708  0.1474  0.5158
  726TIP3    H123593   3.920   5.982   0.168 -0.6337  0.3534 -1.8699
  726TIP3    H223594   4.060   6.037   0.190 -0.9808  0.0484  1.7692
  727TIP3   OH223595   4.119   5.368  14.536  0.0508  0.6936 -0.5077
  727TIP3    H123596   4.123   5.278  14.503 -1.1363  0.1989  0.5968
  727TIP3    H223597   4.028   5.379  14.563  0.9270  1.0432  2.6218
  728TIP3   OH223598   0.869   2.475  15.473 -0.3183  0.1657 -0.3675
  728TIP3    H123599   0.876   2.385  15.442 -0.4913  0.0128  0.0284
  728TIP3    H223600   0.819   2.520  15.406 -1.7703 -0.4499  0.2534
  729TIP3   OH223601   6.433   6.542  12.557  0.4846 -0.0894 -0.0579
  729TIP3    H123602   6.427   6.614  12.493  0.1222 -1.6919 -1.9106
  729TIP3    H223603   6.524   6.512  12.550  0.6918  0.2899  0.8696
  730TIP3   OH223604   1.683   3.950  10.729 -0.5687 -0.1811 -0.7669
  730TIP3    H123605   1.633   3.925  10.652 -1.3155 -2.1426  0.2825
  730TIP3    H223606   1.773   3.962  10.697 -1.3026  1.5451 -2.3391
  731TIP3   OH223607   2.988   3.763   5.475  0.3607 -0.2833 -0.0755
  731TIP3    H123608   3.031   3.819   5.540  2.0735 -1.1155 -0.4429
  731TIP3    H223609   2.917   3.817   5.440  0.0900  0.5713  1.6926
  732TIP3   OH223610   4.168   4.713   2.399  0.0871  0.2832  0.4244
  732TIP3    H123611   4.083   4.746   2.371  0.5984  1.0644 -0.2437
  732TIP3    H223612   4.190   4.647   2.334 -0.0344  0.0218  0.6440
  733TIP3   OH223613   0.405   6.607  16.268  0.2622  0.2475 -0.4948
  733TIP3    H123614   0.312   6.595  16.286 -0.2699  1.6011 -2.1147
  733TIP3    H223615   0.414   6.586  16.175  1.2859  1.5390 -0.7080
  734TIP3   OH223616   6.375   6.748   2.777  0.5823  0.3163 -0.4197
  734TIP3    H123617   6.367   6.810   2.704  0.3770 -0.1860 -0.8376
  734TIP3    H223618   6.284   6.722   2.795  0.7891 -1.7666 -1.9480
  735TIP3   OH223619   2.903   0.613  12.222  0.2276  0.3660  0.4889
  735TIP3    H123620   2.906   0.686  12.283  0.7324  0.0954  0.7882
  735TIP3    H223621   2.809   0.603  12.202 -0.1725 -0.7435  2.6838
  736TIP3   OH223622   3.661   3.084   1.108  0.0538  0.0935  0.2440
  736TIP3    H123623   3.713   3.112   1.183  0.2294  1.3886 -0.3229
  736TIP3    H223624   3.725   3.044   1.048  0.4042  1.5101 -0.3681
  737TIP3   OH223625   5.459   5.068  14.137 -0.2073  0.0708  0.0791
  737TIP3    H123626   5.463   4.977  14.165 -1.1412 -0.2634 -0.8127
  737TIP3    H223627   5.458   5.064  14.042  1.4234  1.1078 -0.0359
  738TIP3   OH223628   4.139   5.136   2.806  0.6025 -0.3069  0.0001
  738TIP3    H123629   4.228   5.146   2.842  0.7384 -2.6203  0.4913
  738TIP3    H223630   4.099   5.068   2.861 -1.1297 -0.0026 -0.8335
  739TIP3   OH223631   2.291   2.751  16.050 -0.3730 -0.3118  0.1106
  739TIP3    H123632   2.211   2.707  16.078  0.0486 -2.8189 -2.1863
  739TIP3    H223633   2.273   2.777  15.959  0.5233  1.4935  0.4182
  740TIP3   OH223634   3.850   1.014  14.238  0.5040  0.4927 -0.2812
  740TIP3    H123635   3.851   0.927  14.198 -0.1986 -0.0074  0.7435
  740TIP3    H223636   3.867   0.998  14.330  0.2698  1.4470 -0.0624
  741TIP3   OH223637   5.418   2.430  15.494 -0.4896 -0.3570  0.3897
  741TIP3    H123638   5.432   2.338  15.515 -0.9239 -0.4819  0.1485
  741TIP3    H223639   5.444   2.478  15.573 -1.5386 -0.7710  1.0060
  742TIP3   OH223640   2.188   3.268   0.590 -0.1273 -0.5312 -0.6487
  742TIP3    H123641   2.179   3.268   0.494  0.6459 -0.9583 -0.7285
  742TIP3    H223642   2.251   3.338   0.608  0.6151 -1.2058 -0.5554
  743TIP3   OH223643   5.668   3.512   3.269 -0.2207  0.3683  0.4650
  743TIP3    H123644   5.730   3.445   3.297 -0.2314 -0.5651 -1.5991
  743TIP3    H223645   5.711   3.555   3.195 -1.7641  0.1356 -0.6013
  744TIP3   OH223646   0.518   3.431   6.163 -0.1751 -0.0171 -0.5444
  744TIP3    H123647   0.437   3.454   6.208  0.2900  1.4985 -0.4163
  744TIP3    H223648   0.586   3.443   6.228  0.2111 -0.8843 -0.7720
  745TIP3   OH223649   1.520   4.039  15.168 -0.4040  0.0769 -0.5216
  745TIP3    H123650   1.593   3.983  15.197 -0.9342 -0.3275  0.0771
  745TIP3    H223651   1.559   4.099  15.105  0.5698  0.2431  0.2097
  746TIP3   OH223652   5.420   5.531   2.607  0.1730 -0.0432  0.2819
  746TIP3    H123653   5.459   5.580   2.535 -0.0666 -0.3341 -0.0501
  746TIP3    H223654   5.450   5.576   2.686  1.0332 -0.1550  0.0257
  747TIP3   OH223655   3.810   2.701  13.638  0.2063  0.0299  0.4398
  747TIP3    H123656   3.864   2.622  13.636  0.8081  0.3690 -2.8562
  747TIP3    H223657   3.872   2.772  13.655 -0.0559  0.0090  1.5893
  748TIP3   OH223658   0.839   1.559  13.268 -0.0581 -0.3653 -0.2684
  748TIP3    H123659   0.912   1.560  13.330 -1.2275  0.6109  1.1610
  748TIP3    H223660   0.761   1.563  13.324 -1.1377  2.4198 -1.8189
  749TIP3   OH223661   3.309   5.091  12.018  0.3078 -0.0076 -0.3523
  749TIP3    H123662   3.253   5.023  11.982 -0.1926 -0.0055  0.3945
  749TIP3    H223663   3.333   5.059  12.105  0.7433  0.3925 -0.3199
  750TIP3   OH223664   4.690   6.238   2.211 -0.6052  0.4725  0.1369
  750TIP3    H123665   4.712   6.155   2.170 -0.8429  0.0015  0.9520
  750TIP3    H223666   4.733   6.304   2.155  0.4466 -0.2432  0.0681
  751TIP3   OH223667   4.459   6.069   5.005  0.3635  0.4651 -0.1821
  751TIP3    H123668   4.515   6.010   4.956 -1.4760 -1.5881  0.0319
  751TIP3    H223669   4.459   6.150   4.955  3.2217  0.4515 -0.3229
  752TIP3   OH223670   3.837   4.153  12.825  0.0938  0.1718 -0.5400
  752TIP3    H123671   3.783   4.137  12.903  1.4908  1.4262  0.7654
  752TIP3    H223672   3.926   4.163  12.859  0.9920 -0.7110 -2.4965
  753TIP3   OH223673   3.616   6.343   0.821 -0.1930 -0.0877 -0.5624
  753TIP3    H123674   3.703   6.303   0.823  0.0065  0.3346 -0.6574
  753TIP3    H223675   3.559   6.275   0.786  0.0208 -0.5150 -0.0863
  754TIP3   OH223676   3.543   3.558  16.828 -0.2646  0.1252  0.1001
  754TIP3    H123677   3.609   3.627  16.822 -1.2948  1.0611 -1.3590
  754TIP3    H223678   3.537   3.538  16.922  0.7854  1.3051  0.4405
  755TIP3   OH223679   5.756   4.833  11.926  0.0109  0.0292  0.5315
  755TIP3    H123680   5.717   4.789  12.001 -0.0803  0.7833  0.9342
  755TIP3    H223681   5.709   4.798  11.851 -0.1204 -0.4874  0.8502
  756TIP3   OH223682   5.634   1.369   5.709  0.1196 -0.3655  0.0454
  756TIP3    H123683   5.704   1.434   5.707 -0.8490  0.7125 -1.7621
  756TIP3    H223684   5.625   1.347   5.801  1.3778  1.0745  0.5667
  757TIP3   OH223685   3.432   3.148   0.524 -0.6248  0.5539 -0.3618
  757TIP3    H123686   3.381   3.214   0.572 -1.5603  0.6738 -1.4926
  757TIP3    H223687   3.517   3.189   0.511 -1.2592  1.6462 -1.2212
  758TIP3   OH223688   2.837   6.154  15.856  0.7706 -0.1483  0.0748
  758TIP3    H123689   2.819   6.242  15.823  2.4164  0.2894  0.2292
  758TIP3    H223690   2.774   6.098  15.811 -1.7648  1.3443  1.5653
  759TIP3   OH223691   1.842   2.189  15.067 -0.8359 -0.2331  0.6455
  759TIP3    H123692   1.753   2.158  15.049 -0.5657 -1.1978  0.9183
  759TIP3    H223693   1.898   2.114  15.048  0.0474  0.7056 -0.6601
  760TIP3   OH223694   0.720   0.888   0.519 -0.2057 -0.3422  0.8290
  760TIP3    H123695   0.762   0.866   0.436 -2.2373  0.1361 -0.4024
  760TIP3    H223696   0.774   0.957   0.556  0.8781 -0.7513  0.0362
  761TIP3   OH223697   6.456   1.802   1.051 -0.1902 -0.1469 -0.1432
  761TIP3    H123698   6.502   1.819   0.968  1.2319 -0.1013  0.6158
  761TIP3    H223699   6.367   1.835   1.036  0.1559  0.2495 -1.5101
  762TIP3   OH223700   1.002   6.729  14.236 -0.4710  0.5430 -0.2593
  762TIP3    H123701   1.019   6.762  14.148 -1.7474  0.6478 -0.4788
  762TIP3    H223702   1.038   6.640  14.236 -0.3612  0.5860 -0.8403
  763TIP3   OH223703   5.486   0.340  14.799 -0.3527  0.2272  0.5145
  763TIP3    H123704   5.444   0.264  14.840  1.0656  0.1349  1.9448
  763TIP3    H223705   5.530   0.384  14.872 -0.9238  2.2931 -0.3407
  764TIP3   OH223706   4.497   4.367   3.495  0.0583  0.1100  0.4451
  764TIP3    H123707   4.450   4.423   3.557  1.8291  0.1119  1.8680
  764TIP3    H223708   4.578   4.344   3.540  1.5152  0.2205 -1.9665
  765TIP3   OH223709   4.333   4.017  15.354  0.0846  0.1230  0.2807
  765TIP3    H123710   4.253   3.991  15.401 -0.3884  0.5468 -0.2747
  765TIP3    H223711   4.321   4.110  15.336  0.2170 -0.0500 -0.7602
  766TIP3   OH223712   2.809   6.724   3.237  0.4687 -0.0484  0.6814
  766TIP3    H123713   2.874   6.746   3.170  0.1879  0.9208  0.7204
  766TIP3    H223714   2.752   6.800   3.242 -2.9279 -2.1112 -1.9390
  767TIP3   OH223715   5.819   5.673  16.407 -0.3974 -0.0504 -0.3023
  767TIP3    H123716   5.796   5.665  16.315  0.3265  1.2032 -0.6069
  767TIP3    H223717   5.842   5.765  16.419  0.2491 -0.3487  0.9515
  768TIP3   OH223718   3.162   0.433   5.684 -0.0563  0.1112  0.1305
  768TIP3    H123719   3.158   0.427   5.588  0.4931 -0.0279  0.1127
  768TIP3    H223720   3.147   0.343   5.714  3.5771 -0.6581  0.0239
  769TIP3   OH223721   4.251   6.287  12.779  0.0425  0.2952 -0.0979
  769TIP3    H123722   4.185   6.285  12.710 -1.7536 -0.5137  1.5547
  769TIP3    H223723   4.335   6.290  12.732 -1.1237  1.2367 -2.2653
  770TIP3   OH223724   1.365   2.507   3.505 -0.0092  0.1827 -0.3774
  770TIP3    H123725   1.402   2.580   3.455 -0.9198  1.2631  0.4691
  770TIP3    H223726   1.429   2.490   3.573  0.2166  0.1824 -0.5890
  771TIP3   OH223727   4.832   0.447  10.716  0.3324  0.0764 -0.0412
  771TIP3    H123728   4.818   0.372  10.658  0.7073  0.5243 -0.7176
  771TIP3    H223729   4.749   0.494  10.714 -0.1507 -0.6843  0.9433
  772TIP3   OH223730   5.436   5.900   3.257 -0.2470 -0.1119 -0.7690
  772TIP3    H123731   5.416   5.993   3.244  0.0840  0.5043  2.2416
  772TIP3    H223732   5.475   5.897   3.345 -1.2342 -3.2375 -0.3410
  773TIP3   OH223733   1.081   0.510   1.030  0.1634  0.8199 -0.0552
  773TIP3    H123734   1.161   0.539   0.987 -0.7372 -1.5624 -3.8273
  773TIP3    H223735   1.096   0.418   1.050 -2.2443 -0.3717 -3.0020
  774TIP3   OH223736   3.308   6.459  14.971  0.1596  0.1247 -0.7295
  774TIP3    H123737   3.227   6.451  14.920  0.1153  0.1434 -0.6632
  774TIP3    H223738   3.368   6.506  14.914  0.1493  0.0429 -0.8092
  775TIP3   OH223739   4.474   6.372  15.963  0.2609  0.0485 -0.3952
  775TIP3    H123740   4.449   6.298  16.018 -0.0363  0.8512  0.6061
  775TIP3    H223741   4.398   6.431  15.967  1.2315  1.3088  0.5039
  776TIP3   OH223742   0.487   6.761   4.584  0.0007  0.1664  0.1397
  776TIP3    H123743   0.527   6.675   4.571 -1.4003 -0.2522 -1.9595
  776TIP3    H223744   0.414   6.744   4.644  0.7509  0.2535  1.1025
  777TIP3   OH223745   2.411   3.018  12.366  0.4104 -0.4104  0.1535
  777TIP3    H123746   2.464   3.008  12.287 -1.2540 -1.9790 -0.8627
  777TIP3    H223747   2.422   2.935  12.412 -1.6827 -1.1256 -0.4984
  778TIP3   OH223748   1.206   0.375  16.001  0.2448 -1.0797 -0.2117
  778TIP3    H123749   1.191   0.361  16.095 -2.1273 -2.2669 -0.7030
  778TIP3    H223750   1.301   0.363  15.990  0.9690  1.1662  2.3049
  779TIP3   OH223751   1.404   6.529   4.960  0.0080 -0.4495 -0.2982
  779TIP3    H123752   1.401   6.487   5.045  1.0433 -2.2209 -1.0866
  779TIP3    H223753   1.400   6.623   4.979 -2.8642 -0.8190  1.4971
  780TIP3   OH223754   3.500   3.425  14.242 -0.0999 -0.2533  0.3274
  780TIP3    H123755   3.541   3.483  14.179 -1.1649 -1.2955 -1.3916
  780TIP3    H223756   3.567   3.410  14.308  1.1573  0.6249 -0.7086
  781TIP3   OH223757   2.172   1.910   0.577  0.2737  0.4547  0.3974
  781TIP3    H123758   2.132   1.824   0.569  0.5202  0.4971 -1.6820
  781TIP3    H223759   2.256   1.893   0.619 -0.1860 -0.1298  1.1206
  782TIP3   OH223760   2.539   5.702   5.089 -0.1253  0.1760 -0.3375
  782TIP3    H123761   2.515   5.658   5.008  2.2169  0.4308 -1.2674
  782TIP3    H223762   2.595   5.639   5.135 -0.3697  0.5242  0.4542
  783TIP3   OH223763   3.969   2.723   0.218 -0.2522 -0.0421 -0.1934
  783TIP3    H123764   3.943   2.745   0.129 -1.0290  0.8129  0.2252
  783TIP3    H223765   3.933   2.794   0.272  0.7838 -0.1787  0.7250
  784TIP3   OH223766   1.328   4.312  14.722  0.3353  0.0028  0.3274
  784TIP3    H123767   1.341   4.361  14.641 -1.2098 -0.5429 -0.3006
  784TIP3    H223768   1.381   4.233  14.712 -1.6953 -1.2723 -1.3139
  785TIP3   OH223769   0.852   3.486  12.429 -0.0282  0.2382  0.4645
  785TIP3    H123770   0.896   3.401  12.436 -3.4279 -2.2719 -3.4132
  785TIP3    H223771   0.773   3.476  12.483 -0.1166  1.1672  0.5137
  786TIP3   OH223772   6.355   6.438  15.498 -0.0488  0.0957 -0.6363
  786TIP3    H123773   6.328   6.402  15.583  0.9143 -1.5215 -0.9627
  786TIP3    H223774   6.370   6.531  15.515 -1.3688  0.1289  0.5799
  787TIP3   OH223775   4.879   5.212  11.124 -0.1007 -0.2154  0.0761
  787TIP3    H123776   4.945   5.143  11.124  1.1820  0.9552 -0.2113
  787TIP3    H223777   4.883   5.250  11.036 -0.4687  0.4931  0.3499
  788TIP3   OH223778   5.450   1.827  16.056  0.6194  0.2745  0.3027
  788TIP3    H123779   5.487   1.861  16.137 -1.2952  1.0566  0.9238
  788TIP3    H223780   5.471   1.894  15.990 -0.7321  1.3660  0.9274
  789TIP3   OH223781   4.418   2.040  16.401  0.2772  0.0830  0.4891
  789TIP3    H123782   4.347   2.096  16.371  0.3852  1.6984  2.9760
  789TIP3    H223783   4.492   2.060  16.344 -0.3016  0.8802  0.0107
  790TIP3   OH223784   5.453   0.022   6.040 -0.7178 -0.3875  0.6476
  790TIP3    H123785   5.433   0.115   6.042  0.5754 -0.0856  1.7040
  790TIP3    H223786   5.384  -0.019   6.092 -3.2090 -0.5346 -2.4866
  791TIP3   OH223787   4.358   1.614   2.039  0.5245  0.0018 -0.1994
  791TIP3    H123788   4.414   1.537   2.038  0.8996  0.2730 -0.5956
  791TIP3    H223789   4.385   1.663   2.117 -1.3692 -1.4413  1.4621
  792TIP3   OH223790   0.133   5.355   3.596 -0.2077 -0.7732  0.1779
  792TIP3    H123791   0.165   5.272   3.630  2.9617  0.2670  0.1089
  792TIP3    H223792   0.184   5.369   3.516  0.7699  1.9846  1.1338
  793TIP3   OH223793   4.756   4.088  12.297 -0.7132  0.2522 -0.0869
  793TIP3    H123794   4.715   4.172  12.317  0.3429  1.7602 -3.5150
  793TIP3    H223795   4.683   4.031  12.273 -1.2681  0.9910 -0.1929
  794TIP3   OH223796   5.830   2.279  14.091  0.3938  0.1974 -0.6432
  794TIP3    H123797   5.862   2.360  14.130 -0.0908  0.3238 -0.5116
  794TIP3    H223798   5.814   2.301  13.999  0.3777  0.2167 -0.6358
  795TIP3   OH223799   5.797   5.362  12.072  0.6513 -0.1665 -0.1076
  795TIP3    H123800   5.888   5.333  12.065  0.1275 -1.6990 -1.0126
  795TIP3    H223801   5.745   5.285  12.051 -0.8660  0.8663 -0.3348
  796TIP3   OH223802   0.101   0.881  16.649  0.1037 -0.2867 -0.8434
  796TIP3    H123803   0.044   0.922  16.585 -0.3642  1.7647  0.7840
  796TIP3    H223804   0.049   0.809  16.685  0.1298 -1.0322 -2.2041
  797TIP3   OH223805   6.638   3.041   4.949 -0.0200  0.0002  0.3752
  797TIP3    H123806   6.623   2.966   4.892 -0.4098  0.8435 -0.6725
  797TIP3    H223807   6.648   3.004   5.036  1.6294 -1.4340 -0.3649
  798TIP3   OH223808   1.366   5.603  14.099 -0.4329 -0.4573 -0.4186
  798TIP3    H123809   1.356   5.563  14.185 -0.1389 -0.9134 -0.5965
  798TIP3    H223810   1.461   5.606  14.084 -0.4367  0.4258 -0.3513
  799TIP3   OH223811   2.232   5.450   5.335 -0.0124 -0.1210  0.0521
  799TIP3    H123812   2.232   5.494   5.249  0.2922 -0.2854 -0.0327
  799TIP3    H223813   2.322   5.419   5.346  0.2353  0.8568  0.9276
  800TIP3   OH223814   4.395   0.521  11.116  0.6139 -0.1854  0.0050
  800TIP3    H123815   4.461   0.451  11.107  0.9364  0.3358 -2.3716
  800TIP3    H223816   4.408   0.576  11.039 -1.3770  1.0307  0.4655
  801TIP3   OH223817   4.664   1.877   3.245 -0.0749 -0.2461  0.1105
  801TIP3    H123818   4.601   1.943   3.275 -0.4805 -0.4148 -0.3428
  801TIP3    H223819   4.618   1.794   3.255  0.8516 -0.5891  1.7696
  802TIP3   OH223820   1.493   1.739   3.797 -0.5859 -0.3981  0.0837
  802TIP3    H123821   1.533   1.820   3.767  1.5183 -1.6991 -0.8573
  802TIP3    H223822   1.399   1.757   3.797 -0.2626  1.6077 -1.3869
  803TIP3   OH223823   1.137   2.846   0.819  0.2819  0.1679 -0.1646
  803TIP3    H123824   1.084   2.778   0.859  0.5705 -0.7129 -1.2166
  803TIP3    H223825   1.166   2.808   0.736 -1.0454  2.2176 -1.6691
  804TIP3   OH223826   6.545   3.621   3.415  0.3703  0.1873 -0.4094
  804TIP3    H123827   6.581   3.675   3.485 -1.7264 -0.5457  1.3708
  804TIP3    H223828   6.587   3.536   3.426  0.0913  0.0915 -0.0769
  805TIP3   OH223829   3.541   1.132   0.602 -0.2627  0.3188 -0.2587
  805TIP3    H123830   3.462   1.162   0.647 -0.7689 -0.4086 -0.6331
  805TIP3    H223831   3.609   1.131   0.669 -1.6010 -3.3541  1.3163
  806TIP3   OH223832   3.293   1.538  16.102  0.5095  0.1916  0.2474
  806TIP3    H123833   3.385   1.511  16.095  0.1794 -0.8105 -0.6148
  806TIP3    H223834   3.260   1.534  16.012 -0.0717  1.7309  0.3635
  807TIP3   OH223835   5.526   3.587  10.976  0.2225  0.3937  0.1574
  807TIP3    H123836   5.607   3.580  10.927  0.7263  1.2982  0.8466
  807TIP3    H223837   5.486   3.500  10.968 -1.0951  1.1697 -4.1360
  808TIP3   OH223838   2.584   5.703   2.706 -0.0310  0.7591  0.3888
  808TIP3    H123839   2.671   5.673   2.680 -0.4975  1.2716 -2.0438
  808TIP3    H223840   2.531   5.624   2.707  0.2574  0.5664  1.0234
  809TIP3   OH223841   1.979   5.924  16.588 -0.1126  0.4198  0.6090
  809TIP3    H123842   1.929   5.948  16.666 -1.0116  0.7356 -0.0456
  809TIP3    H223843   1.972   5.999  16.530  0.7523  0.2846  0.3113
  810TIP3   OH223844   2.406   2.276   5.135 -0.0840 -0.4343  0.2403
  810TIP3    H123845   2.494   2.292   5.101  0.0743 -0.0583  0.8017
  810TIP3    H223846   2.409   2.187   5.170  0.6005  0.1667  1.8033
  811TIP3   OH223847   3.533   5.775  15.553 -0.1391  0.4431 -0.6733
  811TIP3    H123848   3.616   5.816  15.528  0.7167 -0.8575 -0.0604
  811TIP3    H223849   3.497   5.834  15.619  1.0739  0.2424  0.2070
  812TIP3   OH223850   6.510   4.988   0.733  0.0423  0.0148  0.0760
  812TIP3    H123851   6.480   4.903   0.767 -0.1005 -0.0178 -0.1284
  812TIP3    H223852   6.449   5.007   0.662  0.3462  0.0788 -0.1644
  813TIP3   OH223853   4.684   4.828   4.729 -0.3432  0.6394 -0.1436
  813TIP3    H123854   4.590   4.840   4.737 -0.2258  1.9503 -0.5200
  813TIP3    H223855   4.696   4.781   4.646 -0.7561 -1.1667  0.7873
  814TIP3   OH223856   1.154   5.773   3.962 -0.5196 -0.5954 -0.0268
  814TIP3    H123857   1.228   5.808   3.912 -0.2698 -0.3382  0.5149
  814TIP3    H223858   1.185   5.771   4.052 -1.2728 -0.2160  0.2511
  815TIP3   OH223859   5.969   0.136  12.043  0.6883  0.3323  0.0329
  815TIP3    H123860   5.969   0.171  12.132  2.5708 -1.1395  0.6813
  815TIP3    H223861   5.986   0.043  12.054 -0.8230 -0.2437 -1.8100
  816TIP3   OH223862   4.842   0.218  15.129 -0.2221 -0.0525  0.2217
  816TIP3    H123863   4.798   0.298  15.158  0.8554  0.6042  0.0909
  816TIP3    H223864   4.934   0.232  15.151  0.3421 -0.3184 -1.8070
  817TIP3   OH223865   4.700   5.045  11.845  0.5451  0.5468  0.1262
  817TIP3    H123866   4.747   4.963  11.828  1.0524  1.2059 -1.9280
  817TIP3    H223867   4.760   5.113  11.814 -0.5743  1.5873  0.2066
  818TIP3   OH223868   3.215   2.491   5.035 -0.3362  0.0020  0.0197
  818TIP3    H123869   3.310   2.483   5.027 -0.3108 -0.2513  0.5353
  818TIP3    H223870   3.203   2.566   5.093 -0.4756  0.6551 -0.8377
  819TIP3   OH223871   4.820   6.182  16.217  0.1605  0.0387  0.0308
  819TIP3    H123872   4.796   6.226  16.135 -0.4101  1.5392  0.9737
  819TIP3    H223873   4.802   6.246  16.285  1.4240 -0.8846  1.2835
  820TIP3   OH223874   6.265   5.584  14.183 -0.4316 -0.1895  0.0651
  820TIP3    H123875   6.355   5.607  14.158  0.0164 -0.8100  1.0316
  820TIP3    H223876   6.220   5.568  14.100 -0.1072  1.6978 -0.5286
  821TIP3   OH223877   3.024   4.740  10.657  0.3571  0.3298 -0.2499
  821TIP3    H123878   3.119   4.753  10.661  0.3099  0.6336 -0.0567
  821TIP3    H223879   3.010   4.689  10.578  0.7435 -0.2833  0.0757
  822TIP3   OH223880   0.880   4.706   0.526 -0.2006  0.4155  0.5640
  822TIP3    H123881   0.827   4.687   0.603 -0.1049  0.0561  0.5409
  822TIP3    H223882   0.939   4.776   0.554  1.8175 -1.6648  1.7048
  823TIP3   OH223883   0.073   4.510  14.398 -0.3944  0.1210 -0.0955
  823TIP3    H123884   0.002   4.468  14.447 -0.7146  1.0507  0.2532
  823TIP3    H223885   0.039   4.596  14.373  0.2677  0.2062 -0.7544
  824TIP3   OH223886   1.329   5.972  15.283 -0.0631 -0.1439  0.2868
  824TIP3    H123887   1.307   6.054  15.237 -0.5140  0.0961  0.9112
  824TIP3    H223888   1.418   5.985  15.315 -0.2027  0.1839  0.5476
  825TIP3   OH223889   0.464   5.497  14.506  0.0497 -0.6976 -0.1436
  825TIP3    H123890   0.383   5.495  14.455 -0.3717  0.1589  0.4589
  825TIP3    H223891   0.530   5.462  14.447 -0.6463 -0.8214 -0.8693
  826TIP3   OH223892   2.740   4.804  11.327  0.1418 -0.0055 -0.6086
  826TIP3    H123893   2.759   4.883  11.377 -1.1534 -0.0638  0.0146
  826TIP3    H223894   2.783   4.818  11.243 -0.0132  1.3336 -0.4862
  827TIP3   OH223895   0.498   6.623   2.633  0.4047  0.2836 -0.0770
  827TIP3    H123896   0.459   6.694   2.582 -2.3239 -1.0227  0.0045
  827TIP3    H223897   0.534   6.563   2.568  1.0334  0.8228 -0.2301
  828TIP3   OH223898   3.268   6.332   1.552  0.5863 -0.6719  0.7634
  828TIP3    H123899   3.191   6.383   1.525  1.4673 -0.8941 -2.5853
  828TIP3    H223900   3.322   6.394   1.600 -0.2239  0.3810  0.3617
  829TIP3   OH223901   5.518   1.052   1.676 -0.0489 -0.4464 -0.0043
  829TIP3    H123902   5.515   1.035   1.582  2.7472  1.0750 -0.4995
  829TIP3    H223903   5.600   1.011   1.705 -0.4969 -0.2682  1.6050
  830TIP3   OH223904   5.887   4.118   0.766  0.6618 -0.0712 -0.1639
  830TIP3    H123905   5.976   4.140   0.740  0.9147 -0.3570  0.4408
  830TIP3    H223906   5.895   4.090   0.857 -0.2101  0.9381  0.2409
  831TIP3   OH223907   3.121   4.480   1.153 -0.8585 -0.0793  0.2738
  831TIP3    H123908   3.068   4.419   1.101 -0.5477  1.0334 -1.4269
  831TIP3    H223909   3.211   4.457   1.130 -0.7275  0.6316  0.0468
  832TIP3   OH223910   6.515   3.521  11.744  0.0306  0.1154  0.0525
  832TIP3    H123911   6.506   3.437  11.699  0.5441  0.1559 -0.1347
  832TIP3    H223912   6.459   3.581  11.695  0.2482  0.0558 -0.2711
  833TIP3   OH223913   3.576   6.179   2.423  0.2452 -0.3116 -0.4400
  833TIP3    H123914   3.596   6.178   2.517  1.3208  1.0911 -0.6356
  833TIP3    H223915   3.484   6.152   2.418  0.8036 -2.7642  0.8119
  834TIP3   OH223916   0.955   1.733  11.042 -0.4247 -0.3183 -0.5165
  834TIP3    H123917   1.044   1.766  11.028  0.3211 -0.0194  3.5628
  834TIP3    H223918   0.963   1.638  11.039  0.3991 -0.3360  1.0808
  835TIP3   OH223919   1.463   2.602  12.147 -0.5079 -0.3365 -0.1381
  835TIP3    H123920   1.402   2.622  12.076 -0.7540 -0.2311  0.1002
  835TIP3    H223921   1.510   2.524  12.118 -0.2625 -0.0068 -0.6340
  836TIP3   OH223922   5.279   3.100   4.391  0.1042 -0.0854 -0.3675
  836TIP3    H123923   5.292   3.169   4.456 -0.2479 -0.3498 -0.0005
  836TIP3    H223924   5.366   3.067   4.372  0.1406 -0.7413  0.8124
  837TIP3   OH223925   5.059   0.782  11.024  0.1784  0.3388  0.4709
  837TIP3    H123926   5.009   0.754  10.947 -1.9270  0.1395  1.8211
  837TIP3    H223927   5.049   0.877  11.026 -0.1953  0.2927  0.7767
  838TIP3   OH223928   0.268   1.033  11.577 -0.2102 -0.0013  0.0390
  838TIP3    H123929   0.226   1.069  11.655 -0.7831 -2.0704  0.7446
  838TIP3    H223930   0.357   1.067  11.580  0.6195 -2.1036  3.1042
  839TIP3   OH223931   4.506   0.606  13.308 -0.1990  0.0278  0.2924
  839TIP3    H123932   4.508   0.513  13.327 -0.4913  0.0113  0.2424
  839TIP3    H223933   4.558   0.616  13.229 -0.0918 -0.0806  0.3491
  840TIP3   OH223934   1.025   0.294  14.807  0.3575  0.0435 -0.3694
  840TIP3    H123935   0.991   0.241  14.735 -0.1535 -1.1925  0.7515
  840TIP3    H223936   0.950   0.311  14.863  0.7906  0.8124  0.0046
  841TIP3   OH223937   3.483   0.452  11.512 -0.2089  0.3735 -0.0722
  841TIP3    H123938   3.541   0.415  11.446  0.5286 -3.2403  2.2805
  841TIP3    H223939   3.535   0.519  11.555  1.8640 -1.7410  0.9776
  842TIP3   OH223940   4.829   5.470   4.889 -0.2445  0.4577  0.0977
  842TIP3    H123941   4.917   5.454   4.925  0.2589  1.8871 -0.4486
  842TIP3    H223942   4.776   5.493   4.965  0.3513  1.5634  0.1937
  843TIP3   OH223943   3.897   0.524   0.814  0.0316 -0.3434 -0.1303
  843TIP3    H123944   3.945   0.604   0.837  0.1958 -0.4358 -0.1452
  843TIP3    H223945   3.908   0.468   0.890  0.8114 -0.7575 -0.5332
  844TIP3   OH223946   4.752   3.269  11.871 -0.3413 -0.3714  0.0982
  844TIP3    H123947   4.790   3.279  11.958 -0.0410  0.3742 -0.1039
  844TIP3    H223948   4.674   3.324  11.872  0.8922  1.5216 -0.7858
  845TIP3   OH223949   1.153   1.864   5.935  0.2394 -0.1625  0.5417
  845TIP3    H123950   1.193   1.942   5.974 -0.4276 -0.4706  1.9282
  845TIP3    H223951   1.129   1.810   6.011 -3.2059  0.2081 -0.0822
  846TIP3   OH223952   4.727   2.505   1.534  0.0577  0.0792  0.2280
  846TIP3    H123953   4.685   2.569   1.477 -0.0519  0.4768  0.7488
  846TIP3    H223954   4.686   2.422   1.510  0.5349  0.1262 -0.7764
  847TIP3   OH223955   5.261   3.581  15.784  0.0614 -0.0251  0.5404
  847TIP3    H123956   5.259   3.618  15.873  0.1741 -0.7214  0.8365
  847TIP3    H223957   5.281   3.656  15.728  0.3904  0.3479  1.1455
  848TIP3   OH223958   3.116   4.540  16.673  0.3971  0.3050 -1.0686
  848TIP3    H123959   3.176   4.561  16.745  1.2741  1.4039 -2.0847
  848TIP3    H223960   3.139   4.602  16.604 -1.8676  0.6907 -1.5311
  849TIP3   OH223961   1.304   1.415   0.193  0.4371 -0.1411  0.1107
  849TIP3    H123962   1.242   1.350   0.160 -0.9206  0.7588  0.7775
  849TIP3    H223963   1.346   1.373   0.268 -1.5087  0.2102  1.4708
  850TIP3   OH223964   1.942   0.794   3.543  0.8052 -0.4398  0.4991
  850TIP3    H123965   2.024   0.745   3.550  1.2865  0.3465  0.4375
  850TIP3    H223966   1.896   0.754   3.469  1.2055 -0.7818  0.4343
  851TIP3   OH223967   3.513   0.745   0.691  0.0592 -0.1083  0.4207
  851TIP3    H123968   3.493   0.827   0.646 -0.1568 -0.3043  0.1545
  851TIP3    H223969   3.586   0.766   0.748 -0.1399  0.3234  0.5156
  852TIP3   OH223970   6.300   5.871   3.702 -0.1851 -0.1873 -0.1002
  852TIP3    H123971   6.309   5.854   3.609 -0.7636  0.8712 -0.3665
  852TIP3    H223972   6.206   5.873   3.718 -0.1369  1.0742  0.1970
  853TIP3   OH223973   3.302   3.028  11.703  0.2038  0.2277  0.0449
  853TIP3    H123974   3.280   2.935  11.713  0.4968  0.0709 -0.6596
  853TIP3    H223975   3.218   3.072  11.694  0.1016 -0.1949 -1.2903
  854TIP3   OH223976   4.839   4.173   4.583  0.0158  0.1862 -0.1616
  854TIP3    H123977   4.804   4.166   4.672  0.0847 -0.6742 -0.1954
  854TIP3    H223978   4.796   4.251   4.547  0.5941  1.0254  0.8887
  855TIP3   OH223979   1.318   3.055   3.272 -0.3665  0.2010  0.0298
  855TIP3    H123980   1.236   3.045   3.321 -1.0576 -0.1717 -1.1560
  855TIP3    H223981   1.370   3.115   3.325 -0.9098 -0.5066  1.4231
  856TIP3   OH223982   0.492   2.621   2.262  0.3301  0.2888 -0.0706
  856TIP3    H123983   0.466   2.590   2.175 -1.3689  1.4105 -0.0273
  856TIP3    H223984   0.528   2.544   2.306 -0.5738 -0.7699 -1.1231
  857TIP3   OH223985   5.271   2.685  13.997 -0.1760  0.2252 -0.5884
  857TIP3    H123986   5.298   2.595  14.017  1.8205  0.8438 -0.3119
  857TIP3    H223987   5.183   2.675  13.959 -0.5353 -1.7191  0.5771
  858TIP3   OH223988   5.020   4.638  11.551  0.1273 -0.0672 -0.3525
  858TIP3    H123989   5.045   4.569  11.490  0.1287  0.2367 -0.7038
  858TIP3    H223990   4.966   4.697  11.499 -2.0932 -1.1508  0.6085
  859TIP3   OH223991   5.525   1.677  14.508 -0.0273  0.1029  0.1564
  859TIP3    H123992   5.468   1.632  14.446  0.3379  0.4722 -0.4567
  859TIP3    H223993   5.517   1.626  14.589  0.0405 -0.8013 -0.3898
  860TIP3   OH223994   4.575   2.413  14.309 -0.6517 -0.4251  0.5386
  860TIP3    H123995   4.593   2.503  14.281  0.9093 -0.5013  1.1778
  860TIP3    H223996   4.480   2.404  14.302 -0.8136  1.1927  0.2303
  861TIP3   OH223997   3.433   6.114  13.794 -0.4533  0.2004  0.5001
  861TIP3    H123998   3.501   6.121  13.861  0.2665  0.3108 -0.2355
  861TIP3    H223999   3.475   6.143  13.713 -0.8188 -1.4614 -0.3279
  862TIP3   OH224000   5.955   3.911  12.037  0.3575 -0.1036 -0.4483
  862TIP3    H124001   5.862   3.932  12.027  1.0048  2.3313 -1.9080
  862TIP3    H224002   5.968   3.834  11.981 -0.7110 -0.3996 -0.3229
  863TIP3   OH224003   3.361   2.226   3.804 -0.2693  0.1747 -0.2670
  863TIP3    H124004   3.430   2.274   3.850  1.1686 -0.4674 -1.6553
  863TIP3    H224005   3.281   2.271   3.827  0.6630  1.2767  0.9905
  864TIP3   OH224006   6.062   2.021  11.746  0.4765 -0.0378  0.1466
  864TIP3    H124007   6.004   2.003  11.820  0.0736  0.6077 -0.0046
  864TIP3    H224008   6.105   1.937  11.728 -0.5577 -0.5736  0.1273
  865TIP3   OH224009   2.826   1.079  14.801 -0.1926  0.7305 -0.1425
  865TIP3    H124010   2.842   0.985  14.785  1.3387  0.9923 -0.3034
  865TIP3    H224011   2.747   1.098  14.750 -0.2716 -0.3714 -0.4740
  866TIP3   OH224012   2.594   6.363   5.116  0.0490 -0.2408 -0.5878
  866TIP3    H124013   2.641   6.304   5.057 -0.0180 -1.1248  0.2230
  866TIP3    H224014   2.576   6.440   5.063 -0.8121 -1.3631 -1.9980
  867TIP3   OH224015   0.645   1.573  11.026  0.7319  1.0101 -0.1683
  867TIP3    H124016   0.557   1.544  11.049  2.1375 -0.7359  3.8336
  867TIP3    H224017   0.681   1.500  10.975  0.3944  1.0104 -0.4120
  868TIP3   OH224018   3.632   5.926  14.807  0.6947 -0.2939  0.3864
  868TIP3    H124019   3.620   5.862  14.737  2.0133  0.1891 -0.3119
  868TIP3    H224020   3.613   5.877  14.887 -3.6049 -0.1729 -0.3385
  869TIP3   OH224021   6.421   1.820   2.073  0.1797  0.2953  0.9479
  869TIP3    H124022   6.391   1.740   2.029  0.8778  0.3735  0.3185
  869TIP3    H224023   6.510   1.800   2.102  0.8840  1.2901 -0.4318
  870TIP3   OH224024   5.472   3.937   3.427 -0.2226  0.3075 -0.2374
  870TIP3    H124025   5.517   4.021   3.432 -1.0667  0.8684 -1.4630
  870TIP3    H224026   5.406   3.941   3.495 -0.6952  0.9303 -0.7189
  871TIP3   OH224027   4.490   0.325  10.465 -0.3560 -0.3153 -0.0476
  871TIP3    H124028   4.439   0.351  10.543  1.8134  0.9837  1.0177
  871TIP3    H224029   4.581   0.324  10.495  0.3928 -1.5241 -2.1624
  872TIP3   OH224030   6.454   5.555   1.550  0.2640 -0.6785 -0.0607
  872TIP3    H124031   6.502   5.472   1.550  0.5615 -0.5288 -1.3279
  872TIP3    H224032   6.523   5.622   1.552  0.1254 -0.4651 -1.4428
  873TIP3   OH224033   5.207   1.813   3.430 -0.0653  0.0634 -0.3469
  873TIP3    H124034   5.148   1.781   3.361 -0.1512  0.3009 -0.3851
  873TIP3    H224035   5.212   1.907   3.415  0.0332  0.0947 -0.1168
  874TIP3   OH224036   4.975   4.721   0.085 -0.1139  0.3225 -0.0187
  874TIP3    H124037   4.971   4.815   0.106 -0.1253 -0.2124  2.7299
  874TIP3    H224038   4.992   4.719  -0.009 -1.3943  3.0559 -0.4185
  875TIP3   OH224039   4.848   2.471  16.719 -0.1762 -0.4670 -0.3773
  875TIP3    H124040   4.841   2.490  16.625  0.9333  1.0298 -0.1951
  875TIP3    H224041   4.758   2.475  16.751 -0.2704  3.7600 -0.5946
  876TIP3   OH224042   6.515   2.737  14.044 -0.4109 -0.1997  0.2373
  876TIP3    H124043   6.507   2.659  14.099  0.4056 -0.0132  0.6372
  876TIP3    H224044   6.489   2.708  13.957  1.2224 -1.3070  0.0692
  877TIP3   OH224045   4.060   5.666  14.671  0.0974  0.0529  0.2636
  877TIP3    H124046   3.993   5.695  14.608  0.6224  1.3375  0.2646
  877TIP3    H224047   4.114   5.605  14.621  0.3894  0.9081 -0.5098
  878TIP3   OH224048   0.905   4.995  16.683 -0.5371 -0.9017 -0.3918
  878TIP3    H124049   0.966   4.987  16.609 -1.9045  0.2507 -1.7185
  878TIP3    H224050   0.834   4.935  16.662 -0.8295 -0.7342  0.1000
  879TIP3   OH224051   4.229   6.620   5.415  0.1826 -0.2684 -0.5102
  879TIP3    H124052   4.160   6.557   5.434 -0.7500  1.0265  0.6425
  879TIP3    H224053   4.235   6.622   5.320 -0.0262 -1.7855 -0.5765
  880TIP3   OH224054   5.247   2.640   3.547  0.3600 -0.4560 -0.0952
  880TIP3    H124055   5.324   2.694   3.530 -0.1332  0.0581 -0.7542
  880TIP3    H224056   5.197   2.643   3.465 -1.1217  0.4618  0.7880
  881TIP3   OH224057   0.279   4.759   3.671 -0.1789 -0.4077 -0.2247
  881TIP3    H124058   0.198   4.746   3.721 -0.5666  0.5422 -0.5734
  881TIP3    H224059   0.317   4.839   3.707 -0.2389  0.0433 -1.1317
  882TIP3   OH224060   1.804   4.864  14.579 -0.9191 -0.2032 -0.0422
  882TIP3    H124061   1.849   4.795  14.628 -1.9502 -0.6781  0.2618
  882TIP3    H224062   1.711   4.846  14.592 -1.2079  1.0478 -0.2478
  883TIP3   OH224063   1.139   6.709  15.223 -0.5153 -0.0705  0.1403
  883TIP3    H124064   1.207   6.644  15.201 -0.1166 -0.0347  1.2287
  883TIP3    H224065   1.097   6.675  15.301 -0.1905  1.0486  0.8274
  884TIP3   OH224066   0.598   5.608  15.912 -0.1764  0.7194 -0.1828
  884TIP3    H124067   0.503   5.608  15.900 -0.3074 -0.8559  0.6180
  884TIP3    H224068   0.623   5.517  15.900  1.3825  1.2468 -1.2887
  885TIP3   OH224069   2.742   4.354   3.929  0.5084  0.6017  0.6377
  885TIP3    H124070   2.770   4.377   3.840  1.1190 -0.0136  0.6679
  885TIP3    H224071   2.647   4.362   3.926  0.3377 -1.2747 -0.6311
  886TIP3   OH224072   2.656   6.523  11.311 -0.6271 -0.0310  0.2226
  886TIP3    H124073   2.688   6.467  11.381  2.1206  0.3085 -0.6390
  886TIP3    H224074   2.718   6.510  11.239 -2.1592  1.1688 -1.4210
  887TIP3   OH224075   4.000   3.524  13.270  0.1475  0.2041 -0.2018
  887TIP3    H124076   4.065   3.517  13.200 -1.3683  0.1269 -1.6788
  887TIP3    H224077   3.920   3.552  13.225 -0.4568  1.8877  1.7791
  888TIP3   OH224078   2.790   4.103   2.796  0.1613 -0.2032  0.1729
  888TIP3    H124079   2.815   4.102   2.704 -0.0222  1.0537  0.0868
  888TIP3    H224080   2.807   4.193   2.824 -0.2224 -0.4490  1.2414
  889TIP3   OH224081   3.009   4.013  16.198  0.4529 -0.2665 -0.0816
  889TIP3    H124082   3.046   3.928  16.225  0.2677 -0.4563 -0.4208
  889TIP3    H224083   2.965   3.995  16.115 -1.3560 -0.3057  0.8325
  890TIP3   OH224084   2.211   0.212   0.666 -0.2021  0.2102 -0.2037
  890TIP3    H124085   2.203   0.177   0.577 -0.6215  0.7123 -0.3630
  890TIP3    H224086   2.303   0.199   0.688  0.0080  0.4921 -0.8843
  891TIP3   OH224087   0.109   3.161   3.221  0.1074  0.3400 -0.3051
  891TIP3    H124088   0.028   3.110   3.229 -0.2761  0.7518 -1.4380
  891TIP3    H224089   0.171   3.102   3.179  0.3507  0.0945  0.3758
  892TIP3   OH224090   3.293   1.747  14.010 -0.3219  0.1553 -0.5090
  892TIP3    H124091   3.272   1.719  14.099 -0.2830  2.5841  0.3387
  892TIP3    H224092   3.262   1.837  14.005  1.0499  0.5903 -2.4534
  893TIP3   OH224093   0.159   1.770   3.168 -0.2061 -0.1846  0.2895
  893TIP3    H124094   0.214   1.697   3.198  0.0450  0.7670  2.3692
  893TIP3    H224095   0.112   1.798   3.247 -2.4569  0.1210 -1.0557
  894TIP3   OH224096   1.022   4.510   1.729 -0.4224  0.5148  0.0968
  894TIP3    H124097   1.082   4.564   1.676 -0.9211 -1.1601 -2.3477
  894TIP3    H224098   1.073   4.432   1.750 -1.5427 -0.7803 -1.7349
  895TIP3   OH224099   4.724   3.934  13.883  0.3272 -0.1320  0.2231
  895TIP3    H124100   4.815   3.939  13.912 -0.3599 -0.0639  2.6308
  895TIP3    H224101   4.700   4.024  13.861  0.4463  0.0933  0.9948
  896TIP3   OH224102   4.757   5.064  13.237  0.0187 -0.5072 -0.2410
  896TIP3    H124103   4.802   5.146  13.255 -0.6610 -0.4986  1.7770
  896TIP3    H224104   4.684   5.064  13.299 -2.6678 -0.6202 -3.1582
  897TIP3   OH224105   6.617   4.542   4.334  0.5553  0.3949 -0.0625
  897TIP3    H124106   6.613   4.507   4.245 -1.1170  0.5995 -0.0865
  897TIP3    H224107   6.683   4.487   4.378  0.5449 -0.4699 -1.0895
  898TIP3   OH224108   2.492   5.073   2.541 -0.2406  0.7570  0.3639
  898TIP3    H124109   2.471   4.996   2.594 -0.3419 -0.2150 -1.0255
  898TIP3    H224110   2.407   5.102   2.508 -0.1603  1.2566  0.5933
  899TIP3   OH224111   5.501   0.441  16.431 -0.4855 -0.1451  0.1300
  899TIP3    H124112   5.550   0.455  16.512 -1.6823  1.8417  0.5801
  899TIP3    H224113   5.483   0.529  16.398  0.2711 -0.9081 -2.5348
  900TIP3   OH224114   0.862   0.966   3.550  0.0344  0.2751  0.4331
  900TIP3    H124115   0.899   0.882   3.523 -2.3301 -1.1818  1.3354
  900TIP3    H224116   0.905   0.985   3.634  1.1494  0.3803 -0.1533
  901TIP3   OH224117   0.840   1.712  11.805  0.0276 -0.3961  0.0744
  901TIP3    H124118   0.913   1.650  11.808 -0.5727 -1.1409 -0.4067
  901TIP3    H224119   0.801   1.707  11.892 -0.2574 -0.9906 -0.0847
  902TIP3   OH224120   4.782   5.795  13.918  0.0576  0.7022 -0.2436
  902TIP3    H124121   4.808   5.703  13.913 -0.7800  0.3356  1.3086
  902TIP3    H224122   4.736   5.811  13.836  0.9907  0.0021 -0.9203
  903TIP3   OH224123   6.552   6.467  17.070 -0.1575  0.3096 -0.0547
  903TIP3    H124124   6.506   6.437  17.149 -0.0835  1.4086  0.4240
  903TIP3    H224125   6.595   6.388  17.036  0.3886 -0.0522  1.3885
  904TIP3   OH224126   2.127   0.135   4.361  0.0186  0.0234 -0.1214
  904TIP3    H124127   2.110   0.205   4.425  1.5243 -0.3127  0.7064
  904TIP3    H224128   2.055   0.141   4.299  0.6920  3.1068 -0.7750
  905TIP3   OH224129   0.612   6.019   2.567  0.1462 -0.3793 -0.4579
  905TIP3    H124130   0.536   5.962   2.564 -0.7453  0.8150 -2.2960
  905TIP3    H224131   0.625   6.047   2.477  1.3308  1.3092  0.1843
  906TIP3   OH224132   2.848   4.750   1.435  0.4150  0.5035  0.0653
  906TIP3    H124133   2.859   4.695   1.357 -1.2888 -1.3414  1.0521
  906TIP3    H224134   2.850   4.840   1.401 -0.2125 -0.2396 -2.1114
  907TIP3   OH224135   2.095   0.459   0.755  0.9007 -0.3752 -0.3155
  907TIP3    H124136   2.047   0.400   0.814  0.1175 -2.0693 -2.4926
  907TIP3    H224137   2.151   0.401   0.703  0.6510  0.8558 -2.0639
  908TIP3   OH224138   2.869   5.429  11.501  0.7585  0.1893 -0.2622
  908TIP3    H124139   2.795   5.465  11.452  1.0266 -0.6905 -1.3752
  908TIP3    H224140   2.940   5.491  11.485  1.3945 -1.0114 -2.6858
  909TIP3   OH224141   1.595   6.275  13.556 -0.1021  0.2946 -0.1540
  909TIP3    H124142   1.615   6.312  13.642 -0.7653  0.3650 -0.0208
  909TIP3    H224143   1.523   6.328  13.523 -0.8140 -0.6171 -0.1236
  910TIP3   OH224144   2.312   5.384   4.074 -0.3222  0.1386 -0.5298
  910TIP3    H124145   2.382   5.446   4.053  1.3673 -1.1306  1.0134
  910TIP3    H224146   2.358   5.304   4.099 -2.3487 -0.8131  0.3566
  911TIP3   OH224147   3.809   5.897  15.484 -0.1427 -0.0697  0.0993
  911TIP3    H124148   3.828   5.990  15.494 -1.3601  0.3324 -0.9929
  911TIP3    H224149   3.766   5.891  15.398 -1.8618 -1.3231  0.9921
  912TIP3   OH224150   1.325   6.244   3.405  0.0633 -0.0949  0.2118
  912TIP3    H124151   1.251   6.234   3.346 -1.1227 -0.1386  1.6576
  912TIP3    H224152   1.290   6.226   3.492  2.2757 -2.4976  0.7481
  913TIP3   OH224153   6.285   4.096  13.595  0.2741 -0.3948  0.2689
  913TIP3    H124154   6.229   4.157  13.547 -0.9408 -0.4863  1.5356
  913TIP3    H224155   6.348   4.152  13.640  0.2365 -0.1869  0.0652
  914TIP3   OH224156   0.767   3.514  14.708 -0.3150  0.0900 -0.2886
  914TIP3    H124157   0.859   3.540  14.697 -0.4893  0.7000 -0.3274
  914TIP3    H224158   0.765   3.472  14.794 -0.3124  1.5789  0.4818
  915TIP3   OH224159   4.738   4.535  13.978  0.0058  0.1641  0.2588
  915TIP3    H124160   4.830   4.534  13.953  0.1133  0.6868  0.6050
  915TIP3    H224161   4.723   4.449  14.018  0.0997 -0.2712 -0.6232
  916TIP3   OH224162   4.708   2.813  11.266  0.1926 -0.0006  0.3815
  916TIP3    H124163   4.653   2.828  11.342 -0.2769  1.9887 -0.2843
  916TIP3    H224164   4.730   2.901  11.234  0.3847 -0.7603 -1.7571
  917TIP3   OH224165   5.051   5.680  10.617  0.6755  0.0281 -0.2533
  917TIP3    H124166   5.088   5.735  10.686  0.1766  0.0284  0.0168
  917TIP3    H224167   5.107   5.602  10.616  0.6377 -0.0054  0.2040
  918TIP3   OH224168   6.109   3.881  15.466 -0.3820  0.4046  0.2117
  918TIP3    H124169   6.113   3.840  15.553 -0.1254  1.2603  0.6186
  918TIP3    H224170   6.025   3.852  15.430 -0.1824 -0.5185  0.4545
  919TIP3   OH224171   3.903   6.188  13.163  0.1252  0.2114  0.0141
  919TIP3    H124172   3.891   6.152  13.075  1.5549 -0.8462  0.2341
  919TIP3    H224173   3.839   6.142  13.217  0.8736 -0.9031 -0.0179
  920TIP3   OH224174   1.549   1.762  14.567 -0.4974 -0.0314  0.7243
  920TIP3    H124175   1.593   1.680  14.590 -0.4738 -0.1229  0.3694
  920TIP3    H224176   1.482   1.773  14.634  0.1183  0.1575  1.3274
  921TIP3   OH224177   2.190   5.405  17.008  0.3205 -0.3841 -0.0148
  921TIP3    H124178   2.267   5.443  17.050 -0.4531  0.6687  0.5246
  921TIP3    H224179   2.148   5.352  17.076  1.9505 -3.1955 -1.0528
  922TIP3   OH224180   3.486   2.087   5.919  0.1546  1.0082  0.6387
  922TIP3    H124181   3.525   2.025   5.981  0.8375  0.9230  0.1341
  922TIP3    H224182   3.401   2.109   5.958 -0.7341 -1.3019  0.1816
  923TIP3   OH224183   1.114   4.494  11.419 -0.3131 -0.6399  0.0419
  923TIP3    H124184   1.062   4.571  11.396  1.2975  0.5260  0.0833
  923TIP3    H224185   1.192   4.500  11.363  0.9342 -0.9289  1.6605
  924TIP3   OH224186   2.279   5.516   6.066  0.2398  0.0096 -0.6040
  924TIP3    H124187   2.213   5.578   6.096  1.8016  1.6373 -0.4067
  924TIP3    H224188   2.298   5.542   5.976  0.3044 -0.7288 -0.8098
  925TIP3   OH224189   4.582   1.305  13.920 -0.1559 -0.0472 -0.4519
  925TIP3    H124190   4.655   1.242  13.916 -0.0110  0.0873  0.0402
  925TIP3    H224191   4.553   1.314  13.829  0.9206  0.4525 -0.7634
  926TIP3   OH224192   1.186   5.475   1.762  0.3982  0.3823 -0.4759
  926TIP3    H124193   1.173   5.565   1.792 -0.0536  0.1250  0.1270
  926TIP3    H224194   1.103   5.431   1.783 -0.1978  0.3372 -2.6856
  927TIP3   OH224195   1.125   0.139  15.136 -0.3534 -0.2970 -0.0679
  927TIP3    H124196   1.117   0.044  15.144  0.4466 -0.3564  0.0953
  927TIP3    H224197   1.213   0.153  15.102 -0.2010  0.4183  0.5993
  928TIP3   OH224198   2.076   6.060  14.776  0.3794 -0.1296 -0.1889
  928TIP3    H124199   2.111   6.056  14.687 -0.7864  0.3611 -0.6852
  928TIP3    H224200   2.089   6.151  14.803 -1.4699  0.3647 -0.8118
  929TIP3   OH224201   1.405   6.633  16.194  0.1868 -0.0469  0.5254
  929TIP3    H124202   1.408   6.729  16.195  1.1696  0.0158 -1.8346
  929TIP3    H224203   1.313   6.612  16.182  0.1294  0.6725 -0.4241
  930TIP3   OH224204   2.172   6.223  14.191  0.0879  0.5551 -0.1696
  930TIP3    H124205   2.165   6.311  14.154 -1.3270 -0.8037 -3.5424
  930TIP3    H224206   2.081   6.193  14.198  0.4852 -0.3146  1.9266
  931TIP3   OH224207   2.352   4.241   4.271 -0.0313 -0.2074  0.2613
  931TIP3    H124208   2.432   4.265   4.225  0.5266  0.6722  1.6234
  931TIP3    H224209   2.383   4.191   4.347 -0.7318  0.3961  0.9635
  932TIP3   OH224210   0.384   2.247  10.793 -0.8960  0.2536 -0.1682
  932TIP3    H124211   0.333   2.266  10.715 -1.1285  2.0753  0.3865
  932TIP3    H224212   0.471   2.281  10.774 -1.2127  1.6407  0.6965
  933TIP3   OH224213   4.837   1.045  12.935  0.0530  0.3714  0.3095
  933TIP3    H124214   4.879   1.073  12.854 -0.2348 -1.7284 -0.6396
  933TIP3    H224215   4.910   1.022  12.993  0.2432  0.7306  0.2174
  934TIP3   OH224216   5.763   4.503  15.763 -0.5678 -0.3182 -0.4732
  934TIP3    H124217   5.852   4.502  15.727  0.1185  0.4466  1.0545
  934TIP3    H224218   5.710   4.546  15.696  0.6693  1.1746 -0.5563
  935TIP3   OH224219   1.751   2.928   3.208  0.5194 -0.5108  0.3160
  935TIP3    H124220   1.779   2.975   3.287 -0.4330  1.5737 -0.5095
  935TIP3    H224221   1.710   2.995   3.154  1.7086 -1.7394 -2.2738
  936TIP3   OH224222   5.235   2.547  14.594 -0.3574  0.5963 -0.0310
  936TIP3    H124223   5.214   2.549  14.688 -0.3172  0.6531 -0.0229
  936TIP3    H224224   5.177   2.480  14.558  0.5112 -0.3156  0.2516
  937TIP3   OH224225   3.442   0.469   1.807 -0.3719 -0.3784 -0.2031
  937TIP3    H124226   3.486   0.453   1.724  1.7915 -0.0181  0.7932
  937TIP3    H224227   3.413   0.560   1.802  1.8963  0.4490  0.2620
  938TIP3   OH224228   1.247   2.442  15.032  0.1176  0.4485  0.0582
  938TIP3    H124229   1.305   2.510  14.997  3.1159 -0.8547  2.0928
  938TIP3    H224230   1.193   2.487  15.097  1.8336  1.0482  1.1438
  939TIP3   OH224231   0.922   1.613  12.874  0.2869  0.0436 -0.0139
  939TIP3    H124232   0.852   1.647  12.929 -0.2465 -0.8448 -0.1251
  939TIP3    H224233   0.945   1.686  12.816  1.2999  1.2137  1.7577
  940TIP3   OH224234   4.807   6.803   0.478 -0.5666 -0.0891  0.4089
  940TIP3    H124235   4.874   6.797   0.546  0.6327  2.6491 -0.4110
  940TIP3    H224236   4.821   6.726   0.424  2.5822  0.7738 -0.2248
  941TIP3   OH224237   5.682   5.841  10.908 -0.4483 -0.3007  0.2091
  941TIP3    H124238   5.669   5.849  11.003  0.5705  2.2811  0.2244
  941TIP3    H224239   5.763   5.791  10.899  1.7869  2.8619  0.9862
  942TIP3   OH224240   5.810   0.997  12.693 -0.2198  0.0069  0.5049
  942TIP3    H124241   5.725   1.003  12.649  0.0900  1.9800  0.0913
  942TIP3    H224242   5.805   0.915  12.742 -1.6119 -0.9035 -1.0394
  943TIP3   OH224243   0.977   4.597  13.710 -0.3125  0.0707 -0.1703
  943TIP3    H124244   0.956   4.650  13.634 -2.0660 -0.6021 -0.1847
  943TIP3    H224245   0.893   4.575  13.749  0.4645 -1.0677  0.9561
  944TIP3   OH224246   0.440   2.798  12.378  0.0389  0.6357 -0.3103
  944TIP3    H124247   0.435   2.737  12.452 -0.6840  1.2134  0.1361
  944TIP3    H224248   0.489   2.751  12.311 -0.2229 -0.3131  0.1461
  945TIP3   OH224249   2.812   4.404  16.144  0.2346  0.3831 -0.3781
  945TIP3    H124250   2.873   4.362  16.205 -0.4332 -0.9370 -0.5764
  945TIP3    H224251   2.808   4.344  16.070  1.6370  2.3531 -2.1375
  946TIP3   OH224252   3.260   3.920   6.080  0.1165 -0.1266 -0.7056
  946TIP3    H124253   3.204   3.912   6.003 -1.9968 -0.6407  0.7944
  946TIP3    H224254   3.216   3.985   6.135  2.3346  1.2981 -0.4999
  947TIP3   OH224255   0.083   3.683   1.959  0.0099  0.5635 -0.4330
  947TIP3    H124256   0.112   3.760   2.008  0.5591  0.3349 -0.3931
  947TIP3    H224257  -0.004   3.707   1.925 -0.6507  0.5117  1.1482
  948TIP3   OH224258   4.059   0.635   3.173  0.1689  0.3367 -0.1146
  948TIP3    H124259   4.002   0.560   3.155 -1.3511  1.1157  1.1890
  948TIP3    H224260   4.078   0.627   3.267 -0.3405  1.7928  0.1258
  949TIP3   OH224261   3.492   4.305   0.845  0.0121 -0.1549 -0.0318
  949TIP3    H124262   3.405   4.266   0.844 -0.2401  0.4001 -0.9500
  949TIP3    H224263   3.478   4.395   0.814  0.8988 -0.0253 -0.0764
  950TIP3   OH224264   1.194   5.464   1.073  0.3339  0.1428  0.0105
  950TIP3    H124265   1.126   5.400   1.092  1.0338 -0.4169  0.6631
  950TIP3    H224266   1.145   5.542   1.045 -0.7346  0.5742  2.7579
  951TIP3   OH224267   3.248   4.301  12.254 -0.4582 -0.4148 -0.2243
  951TIP3    H124268   3.248   4.364  12.326 -0.8935  0.4355 -0.9438
  951TIP3    H224269   3.286   4.222  12.292  1.3567  0.6671  0.3565
  952TIP3   OH224270   3.504   3.534  11.966  0.1219 -0.1440 -0.0046
  952TIP3    H124271   3.479   3.610  12.019 -0.4585  0.8797 -1.6443
  952TIP3    H224272   3.553   3.478  12.026 -0.5118  0.9277  1.5951
  953TIP3   OH224273   4.454   3.443   0.041  0.1848 -0.1873  0.0593
  953TIP3    H124274   4.545   3.421   0.064  0.0991 -1.2037 -0.4802
  953TIP3    H224275   4.401   3.397   0.106  0.0573  2.4095  1.9316
  954TIP3   OH224276   6.231   6.493   2.902  0.5595  0.0366 -0.0395
  954TIP3    H124277   6.153   6.530   2.860  1.1378 -1.1977 -2.4030
  954TIP3    H224278   6.197   6.430   2.965 -0.3680  0.1405 -0.4245
  955TIP3   OH224279   3.494   1.377  13.769 -0.1170 -0.8247  0.4388
  955TIP3    H124280   3.554   1.303  13.776  1.9188  0.7371  0.4357
  955TIP3    H224281   3.431   1.352  13.701  0.2226 -2.6986  0.7797
  956TIP3   OH224282   5.699   6.660  16.009  0.0863  0.6447  0.2063
  956TIP3    H124283   5.670   6.609  15.933  1.0075  0.3853  0.0223
  956TIP3    H224284   5.768   6.607  16.049  0.6675  1.4882  0.3412
  957TIP3   OH224285   2.818   1.808   1.020 -0.2111 -0.4073  0.2566
  957TIP3    H124286   2.910   1.831   1.013  0.0315 -1.7381 -1.8426
  957TIP3    H224287   2.817   1.713   1.028 -1.4128 -0.4295  0.1412
  958TIP3   OH224288   0.438   3.630  16.478 -0.2524 -0.1476  0.0747
  958TIP3    H124289   0.430   3.646  16.572 -1.3267 -3.4573  0.6794
  958TIP3    H224290   0.353   3.594  16.453  0.0185  0.6479 -2.2041
  959TIP3   OH224291   5.059   5.330  10.876  0.3471  0.2819  0.2036
  959TIP3    H124292   5.103   5.340  10.792 -0.0631 -1.6619 -0.3027
  959TIP3    H224293   4.972   5.297  10.854 -0.6517  2.0560  1.2913
  960TIP3   OH224294   2.529   1.139  15.463 -0.1904 -0.2277  0.0536
  960TIP3    H124295   2.473   1.167  15.391  0.0264  1.7970  0.6020
  960TIP3    H224296   2.477   1.156  15.542  1.2624  2.1393  0.6085
  961TIP3   OH224297   3.738   2.346   3.860  0.2617  0.2125  0.0830
  961TIP3    H124298   3.750   2.329   3.767 -1.3196  1.3780 -0.3809
  961TIP3    H224299   3.654   2.392   3.865 -0.5541 -1.3601  2.2764
  962TIP3   OH224300   6.163   0.182   1.843  0.0154 -0.3570 -0.4797
  962TIP3    H124301   6.231   0.192   1.910 -0.1983 -1.0480 -0.1558
  962TIP3    H224302   6.081   0.188   1.892 -0.1412 -0.9165 -0.6755
  963TIP3   OH224303   0.610   1.573  12.757  0.5275 -0.2084  0.4047
  963TIP3    H124304   0.669   1.575  12.681  2.3800  2.2580  1.7551
  963TIP3    H224305   0.636   1.649  12.809 -1.6480 -0.9795  2.8011
  964TIP3   OH224306   3.259   3.785   3.685 -0.3912  0.4696  0.4240
  964TIP3    H124307   3.328   3.721   3.704 -0.9184 -0.5143 -0.8433
  964TIP3    H224308   3.306   3.869   3.680  1.1316 -0.4137 -2.3669
  965TIP3   OH224309   3.975   5.568   2.317  0.4198  0.0345  0.0903
  965TIP3    H124310   4.059   5.605   2.286  1.3125 -0.2293  2.0641
  965TIP3    H224311   3.990   5.474   2.318 -0.4056 -0.1220 -0.8492
  966TIP3   OH224312   1.363   1.265  12.444 -0.0699 -0.4153 -0.2362
  966TIP3    H124313   1.316   1.336  12.399 -0.8862 -0.9721 -0.2934
  966TIP3    H224314   1.302   1.236  12.512  0.6283 -0.4554  0.3790
  967TIP3   OH224315   4.534   1.891  10.510 -0.1166  0.1432 -0.2192
  967TIP3    H124316   4.605   1.828  10.522  0.7397  0.6127 -2.2969
  967TIP3    H224317   4.562   1.968  10.559  0.2782 -0.0654 -0.1090
  968TIP3   OH224318   5.076   6.377   4.070 -0.3496  0.3140 -0.2302
  968TIP3    H124319   5.007   6.325   4.110  1.0073 -0.6658  0.9353
  968TIP3    H224320   5.074   6.353   3.977 -0.3052 -1.1796  0.1365
  969TIP3   OH224321   0.459   4.395  12.957  0.8654  0.4863 -0.2109
  969TIP3    H124322   0.516   4.326  12.923  0.7144  1.3132 -2.3427
  969TIP3    H224323   0.515   4.445  13.016  1.5326 -0.3408 -0.1225
  970TIP3   OH224324   4.558   3.167  15.602  0.2004 -0.2252  0.3210
  970TIP3    H124325   4.596   3.229  15.663  1.5820  1.7240 -2.2955
  970TIP3    H224326   4.475   3.141  15.641  0.9483  0.9719  2.8826
  971TIP3   OH224327   1.747   4.760   3.840  0.0622  0.2841 -0.7339
  971TIP3    H124328   1.716   4.849   3.825  2.0991  1.5136  1.6938
  971TIP3    H224329   1.737   4.746   3.934  1.2216 -1.4791 -0.8306
  972TIP3   OH224330   2.595   1.311  11.843 -0.6107  0.3397 -0.3297
  972TIP3    H124331   2.623   1.261  11.920  2.2294  2.2065  0.0154
  972TIP3    H224332   2.572   1.397  11.877  0.7516  1.2231 -1.4987
  973TIP3   OH224333   6.729   4.320  11.981  0.9419 -0.0413 -0.2466
  973TIP3    H124334   6.680   4.402  11.993  2.4416  1.1696 -1.7808
  973TIP3    H224335   6.796   4.322  12.050 -0.4314 -1.1713  1.1791
  974TIP3   OH224336   0.544   0.545  14.121 -0.1620  0.8025  0.2604
  974TIP3    H124337   0.490   0.479  14.164 -0.8728  0.9315 -0.4195
  974TIP3    H224338   0.578   0.599  14.193  0.2950 -0.1934  0.8005
  975TIP3   OH224339   1.818   1.848  15.642 -0.4003 -0.3362  0.1989
  975TIP3    H124340   1.747   1.911  15.639  0.1710  0.3098 -0.0959
  975TIP3    H224341   1.779   1.769  15.678 -1.1808  0.1158  0.3604
  976TIP3   OH224342   1.728   1.575  16.897  0.3671 -0.2419 -0.4148
  976TIP3    H124343   1.806   1.530  16.864  1.3374 -1.3179  2.9137
  976TIP3    H224344   1.760   1.626  16.971 -1.9854 -0.0971  0.5760
  977TIP3   OH224345   2.819   5.855  10.219  0.4690  0.2614 -0.2274
  977TIP3    H124346   2.869   5.842  10.300  0.8011 -0.8065 -0.5889
  977TIP3    H224347   2.857   5.934  10.181  1.6965 -0.3591 -0.3392
  978TIP3   OH224348   3.532   5.897   5.856  0.0247  1.1418  0.4665
  978TIP3    H124349   3.537   5.870   5.764 -0.0211  2.5706  0.0213
  978TIP3    H224350   3.449   5.860   5.887 -0.1487  0.9810 -0.1721
  979TIP3   OH224351   5.192   3.147  15.174 -0.0956 -0.0467 -0.0459
  979TIP3    H124352   5.240   3.079  15.222  1.0742  0.6010 -0.2444
  979TIP3    H224353   5.250   3.170  15.101 -0.4810  1.1215 -0.0145
  980TIP3   OH224354   3.317   3.656   5.336  0.6605  0.2266  0.2736
  980TIP3    H124355   3.272   3.572   5.349 -0.7700  1.0628  0.9070
  980TIP3    H224356   3.309   3.673   5.242 -0.7363  0.5533  0.4348
  981TIP3   OH224357   0.950   5.492   5.457  0.1703 -0.1883 -0.4558
  981TIP3    H124358   0.896   5.568   5.438 -3.9234 -2.6767 -0.1204
  981TIP3    H224359   0.926   5.467   5.546  2.7618 -0.8987  0.1066
  982TIP3   OH224360   4.024   4.177   6.214 -0.3357 -0.4114  0.1052
  982TIP3    H124361   3.978   4.248   6.259  1.2238  0.3528  0.5510
  982TIP3    H224362   4.016   4.102   6.274  1.2953  0.4598  1.4951
  983TIP3   OH224363   6.694   2.110   6.106 -0.0516 -0.0466 -0.1026
  983TIP3    H124364   6.663   2.028   6.145 -2.7356 -0.3604 -2.5376
  983TIP3    H224365   6.695   2.093   6.012 -1.2281  2.8045 -0.7484
  984TIP3   OH224366   5.210   5.470   3.477  0.1646 -0.0729 -0.1135
  984TIP3    H124367   5.175   5.402   3.536 -0.3753 -0.2738 -0.6538
  984TIP3    H224368   5.159   5.460   3.397 -0.0928  1.1457 -0.1149
  985TIP3   OH224369   5.785   6.322   2.566 -0.0245  0.8021 -0.2038
  985TIP3    H124370   5.825   6.314   2.653 -0.1601 -0.0396 -0.2188
  985TIP3    H224371   5.834   6.261   2.512 -1.2515 -0.1739 -0.2515
  986TIP3   OH224372   4.333   3.262   4.726  0.1891  0.3367 -0.2247
  986TIP3    H124373   4.323   3.311   4.645 -0.6910 -0.7609 -0.7934
  986TIP3    H224374   4.320   3.171   4.702  2.7666 -0.3468  0.6211
  987TIP3   OH224375   0.433   2.265  14.678 -0.4478 -0.5136  0.4762
  987TIP3    H124376   0.466   2.341  14.629  2.7739 -2.7079 -1.0546
  987TIP3    H224377   0.383   2.304  14.751 -1.9927  2.9702 -2.1270
  988TIP3   OH224378   3.559   5.771  16.587 -0.1117  0.0004 -0.1798
  988TIP3    H124379   3.563   5.769  16.492 -1.2859  1.5289 -0.3158
  988TIP3    H224380   3.475   5.731  16.609 -0.9374  1.7522  0.0236
  989TIP3   OH224381   6.491   1.117   5.840  0.3403  0.1666 -0.0940
  989TIP3    H124382   6.507   1.079   5.753 -3.1330  1.1323 -1.3519
  989TIP3    H224383   6.469   1.042   5.895  0.2150 -0.2551 -0.7012
  990TIP3   OH224384   1.268   4.603  12.039 -0.2539  0.6673 -0.4549
  990TIP3    H124385   1.180   4.635  12.062  1.0459  3.1475  1.6254
  990TIP3    H224386   1.279   4.524  12.092  0.1062  2.5380  2.5564
  991TIP3   OH224387   5.282   6.114  15.868  0.0916 -0.0848 -0.0698
  991TIP3    H124388   5.215   6.052  15.840  0.6584  0.1466 -2.1003
  991TIP3    H224389   5.238   6.170  15.931 -1.7612  0.2780 -1.5998
  992TIP3   OH224390   2.407   4.229  16.451  0.1927 -0.3735 -0.0033
  992TIP3    H124391   2.390   4.156  16.392  1.4280 -0.5648 -0.1643
  992TIP3    H224392   2.445   4.297  16.395  0.5554 -0.2309  0.4092
  993TIP3   OH224393   0.869   6.230   3.529 -0.4535 -0.0517 -0.2047
  993TIP3    H124394   0.822   6.196   3.605  0.2989 -0.2578  0.1798
  993TIP3    H224395   0.801   6.270   3.474 -0.8284  1.4557  1.2818
  994TIP3   OH224396   2.160   2.818   1.293  0.3133 -0.6574 -0.0896
  994TIP3    H124397   2.230   2.801   1.356  0.2449 -1.2607 -0.1673
  994TIP3    H224398   2.083   2.837   1.347  0.7325  0.9565  0.0005
  995TIP3   OH224399   4.101   2.242   6.323 -0.5583  0.4877  0.2242
  995TIP3    H124400   4.192   2.273   6.316  0.6229 -2.3857  1.2062
  995TIP3    H224401   4.090   2.184   6.248 -1.1352 -0.1808  0.8101
  996TIP3   OH224402   5.381   5.386  16.173  0.2511  0.3924  0.3307
  996TIP3    H124403   5.413   5.468  16.212  0.5557  1.5830 -2.2129
  996TIP3    H224404   5.428   5.380  16.090 -2.3245 -0.5246 -1.1621
  997TIP3   OH224405   5.643   3.254   5.156 -0.2702 -0.2218  0.7077
  997TIP3    H124406   5.732   3.265   5.121 -0.1612 -0.8975  0.7647
  997TIP3    H224407   5.617   3.166   5.129 -0.0733 -0.8836  2.5652
  998TIP3   OH224408   4.726   3.075  13.328 -0.0866  0.3037 -0.2446
  998TIP3    H124409   4.660   3.130  13.285 -0.9261 -0.4891 -0.0045
  998TIP3    H224410   4.796   3.067  13.263 -0.0116  1.5450 -0.3256
  999TIP3   OH224411   2.136   5.698  10.443 -0.2957 -0.2523  0.1707
  999TIP3    H124412   2.222   5.740  10.440  0.0957 -1.0414 -0.5912
  999TIP3    H224413   2.124   5.673  10.534  0.5215 -0.5558  0.2112
 1000TIP3   OH224414   3.891   6.278  11.824  0.2388 -0.1223  0.2388
 1000TIP3    H124415   3.823   6.289  11.891  1.3512 -1.6345  1.6948
 1000TIP3    H224416   3.973   6.279  11.873  1.1237 -0.6661 -1.1763
 1001TIP3   OH224417   4.135   0.215   2.871 -0.6569  0.3032  0.9710
 1001TIP3    H124418   4.145   0.133   2.825 -0.9217 -0.0409  1.5121
 1001TIP3    H224419   4.063   0.260   2.827 -0.8108  0.0418  0.9588
 1002TIP3   OH224420   1.218   4.306  14.962 -0.1661  0.1313  0.0137
 1002TIP3    H124421   1.265   4.319  14.880  0.6067 -1.8030  0.0840
 1002TIP3    H224422   1.279   4.334  15.030 -0.4741  0.9050 -0.0172
 1003TIP3   OH224423   6.764   2.627  12.715  0.1564 -0.2417 -0.1430
 1003TIP3    H124424   6.699   2.658  12.779  0.7197  2.1172 -0.6060
 1003TIP3    H224425   6.846   2.667  12.743  0.8531 -0.9625 -1.1132
 1004TIP3   OH224426   3.958   4.309   5.751 -0.4259 -0.2799 -0.4982
 1004TIP3    H124427   4.025   4.241   5.757 -0.0365  0.2222  1.5462
 1004TIP3    H224428   3.932   4.325   5.842 -0.5900  2.2071 -0.9153
 1005TIP3   OH224429   0.089   1.907  11.875  0.4972 -0.2534 -0.0762
 1005TIP3    H124430   0.066   1.815  11.860 -0.2915  0.0416 -0.7581
 1005TIP3    H224431   0.046   1.929  11.958  1.0284 -0.6022  0.3024
 1006TIP3   OH224432   6.670   4.281  11.298  0.4400 -0.1028 -0.2250
 1006TIP3    H124433   6.687   4.234  11.216 -1.9313 -0.3980 -0.6061
 1006TIP3    H224434   6.670   4.373  11.273 -1.0844 -0.2262 -0.7662
 1007TIP3   OH224435   0.489   4.295   4.946 -0.2804  0.2008 -0.0892
 1007TIP3    H124436   0.471   4.384   4.915  0.6032  0.3076 -0.3078
 1007TIP3    H224437   0.584   4.291   4.955 -0.1600 -1.2200 -1.5831
 1008TIP3   OH224438   2.636   0.532  10.676  0.1806 -0.0508  0.4851
 1008TIP3    H124439   2.558   0.572  10.714 -0.3867 -1.7321  1.1626
 1008TIP3    H224440   2.604   0.455  10.630  1.0358  1.0614 -2.1988
 1009TIP3   OH224441   3.583   2.333  13.649  0.3152  0.1846 -0.0388
 1009TIP3    H124442   3.552   2.316  13.738 -0.1011  0.2536 -0.1675
 1009TIP3    H224443   3.670   2.371  13.661 -0.4458  1.8847  0.4358
 1010TIP3   OH224444   2.998   4.767   0.714  0.2069 -0.5946 -0.1120
 1010TIP3    H124445   2.976   4.695   0.654 -0.5614  0.0683 -0.6489
 1010TIP3    H224446   2.918   4.820   0.718  0.5337 -0.1567  0.8376
 1011TIP3   OH224447   3.887   4.329   5.104 -0.2798  0.3098 -0.5408
 1011TIP3    H124448   3.905   4.377   5.023 -0.0370 -0.5012 -0.9764
 1011TIP3    H224449   3.846   4.247   5.075 -1.8878  0.7734  0.2556
 1012TIP3   OH224450   5.068   0.151  12.676 -0.1790 -0.3717  0.0244
 1012TIP3    H124451   5.037   0.068  12.713  0.4286 -0.9401 -0.7025
 1012TIP3    H224452   5.042   0.147  12.584  1.9061 -0.8415 -0.6058
 1013TIP3   OH224453   0.834   6.577   0.453  0.8658 -0.4068 -0.3099
 1013TIP3    H124454   0.832   6.556   0.359 -0.5237  1.4052 -0.7243
 1013TIP3    H224455   0.743   6.586   0.478  1.2448 -0.3304  1.1200
 1014TIP3   OH224456   0.114   5.113  14.573  0.1322 -0.2767 -0.3546
 1014TIP3    H124457   0.148   5.024  14.575  0.7080 -0.0499  0.4194
 1014TIP3    H224458   0.186   5.167  14.606 -0.4162  0.4028 -0.2452
 1015TIP3   OH224459   5.832   2.764  14.100  0.7663 -0.1507 -0.0643
 1015TIP3    H124460   5.741   2.789  14.079  1.0993  0.5132 -0.7749
 1015TIP3    H224461   5.852   2.693  14.038  0.4394 -0.9430  0.7121
 1016TIP3   OH224462   5.878   6.240   3.108  0.0516  0.7191 -0.1670
 1016TIP3    H124463   5.866   6.236   3.013  1.0418  1.5698 -0.3470
 1016TIP3    H224464   5.944   6.308   3.121  0.8391 -0.2312  1.0621
 1017TIP3   OH224465   3.692   1.785  16.235 -0.1991  0.1238  0.1935
 1017TIP3    H124466   3.654   1.848  16.173 -0.2034 -0.7633 -0.7415
 1017TIP3    H224467   3.755   1.735  16.183  1.6946  1.0089  1.5157
 1018TIP3   OH224468   4.544   3.440  11.901  0.4764  0.7609 -0.2022
 1018TIP3    H124469   4.556   3.531  11.927  0.2188  0.9166 -0.6200
 1018TIP3    H224470   4.450   3.432  11.882  0.6119  0.5909 -0.8302
 1019TIP3   OH224471   6.013   6.583  14.494  0.0829  0.0030 -0.2574
 1019TIP3    H124472   6.014   6.575  14.589 -0.4388  1.9319 -0.0355
 1019TIP3    H224473   6.078   6.651  14.475 -2.7372  2.8305 -0.7988
 1020TIP3   OH224474   0.662   2.128   3.572 -0.0517  0.0588  1.0068
 1020TIP3    H124475   0.728   2.196   3.581 -0.6948  1.3015 -2.1532
 1020TIP3    H224476   0.625   2.142   3.484 -1.7355 -3.0434  1.0682
 1021TIP3   OH224477   5.961   0.203  11.769  0.2174  0.2983  0.0164
 1021TIP3    H124478   5.901   0.136  11.735 -0.2716  0.2698  0.9104
 1021TIP3    H224479   5.931   0.220  11.858  1.0009  0.9343  0.1769
 1022TIP3   OH224480   0.570   4.049  16.050  0.1871 -0.5533  0.9254
 1022TIP3    H124481   0.587   4.084  15.962  0.1811 -0.7207  0.8563
 1022TIP3    H224482   0.522   3.967  16.034  0.6900 -0.8761  1.0653
 1023TIP3   OH224483   2.417   5.116  15.515 -0.7688  0.3733 -0.1749
 1023TIP3    H124484   2.425   5.193  15.570 -1.5427  0.0582  0.4037
 1023TIP3    H224485   2.505   5.100  15.482 -0.6884  1.7711 -0.6823
 1024TIP3   OH224486   0.230   3.689   0.946  1.0374 -0.0216  0.7686
 1024TIP3    H124487   0.209   3.774   0.905  0.5601 -0.4335  0.1443
 1024TIP3    H224488   0.202   3.700   1.037 -0.7308 -0.0974  0.2819
 1025TIP3   OH224489   2.488   5.727  13.362  0.3305  0.2232  0.4068
 1025TIP3    H124490   2.430   5.674  13.417  0.5695  0.3332  0.7674
 1025TIP3    H224491   2.518   5.797  13.419  0.1447  0.6625 -0.0222
 1026TIP3   OH224492   5.281   3.517   3.651  0.0838 -0.5771 -0.0267
 1026TIP3    H124493   5.264   3.501   3.559  0.7626  0.6592 -0.3947
 1026TIP3    H224494   5.374   3.542   3.654  0.1017 -0.7181  1.0053
 1027TIP3   OH224495   6.723   2.069  15.899  0.4300  0.2683 -0.4129
 1027TIP3    H124496   6.677   2.137  15.848 -0.0699  0.4148  0.2210
 1027TIP3    H224497   6.694   1.987  15.859 -0.0933  0.3745 -0.2606
 1028TIP3   OH224498   2.112   0.914   3.209  0.0845  0.0683 -0.4084
 1028TIP3    H124499   2.029   0.881   3.174 -0.3808 -0.2075  0.9200
 1028TIP3    H224500   2.091   1.002   3.240 -0.0604 -0.4805  1.1240
 1029TIP3   OH224501   4.557   4.276  12.351 -0.0915 -0.7735  0.6743
 1029TIP3    H124502   4.588   4.344  12.410  0.9384 -0.1133 -0.5667
 1029TIP3    H224503   4.493   4.226  12.402 -2.1301  2.0863  1.1400
 1030TIP3   OH224504   2.638   2.363  13.494  0.0246  0.5769 -0.3998
 1030TIP3    H124505   2.645   2.351  13.399 -0.9723  1.2282 -0.5692
 1030TIP3    H224506   2.550   2.333  13.516  0.5321 -0.3432  0.4657
 1031TIP3   OH224507   4.267   4.459  11.253 -0.2206  0.1581  0.1716
 1031TIP3    H124508   4.207   4.465  11.179 -2.6775 -0.0428  1.9779
 1031TIP3    H224509   4.350   4.492  11.221 -0.3378 -2.4538 -3.4291
 1032TIP3   OH224510   6.800   5.180  13.597 -0.2678 -0.6556  0.4548
 1032TIP3    H124511   6.765   5.202  13.511 -1.6092 -1.5911  0.7270
 1032TIP3    H224512   6.872   5.119  13.580 -0.9281 -1.3276  0.0010
 1033TIP3   OH224513   0.242   2.939   0.561 -0.2500  0.1192 -0.0197
 1033TIP3    H124514   0.179   2.891   0.506  0.6797  0.3910 -1.3606
 1033TIP3    H224515   0.201   2.940   0.648 -1.9331 -0.0065 -0.7691
 1034TIP3   OH224516   5.383   4.740  12.899 -0.3392  0.3286  0.4390
 1034TIP3    H124517   5.380   4.679  12.973 -1.0653  1.3914  1.3262
 1034TIP3    H224518   5.472   4.733  12.864 -0.7641 -2.1717 -0.3266
 1035TIP3   OH224519   6.763   5.430   1.486  0.0697  0.2503  0.4851
 1035TIP3    H124520   6.841   5.468   1.446  1.0289 -0.9572  1.1342
 1035TIP3    H224521   6.722   5.503   1.532  1.7116  0.6124  1.4896
 1036TIP3   OH224522   0.827   1.351   3.172 -0.0481  0.1916 -0.0336
 1036TIP3    H124523   0.807   1.407   3.097 -1.3124 -1.3937 -0.9382
 1036TIP3    H224524   0.879   1.407   3.230 -0.5162  2.0081 -1.2725
 1037TIP3   OH224525   2.936   5.027  11.364  0.2564  0.2808 -0.6512
 1037TIP3    H124526   2.978   5.110  11.342 -0.6844  1.3527  1.2783
 1037TIP3    H224527   2.953   4.971  11.289  0.3387  2.4234 -2.3447
 1038TIP3   OH224528   3.071   0.216  12.652  0.3082 -0.6343  0.3206
 1038TIP3    H124529   2.986   0.176  12.674 -0.9675  2.4030  1.4461
 1038TIP3    H224530   3.129   0.186  12.722 -0.0622 -1.9113  0.1198
 1039TIP3   OH224531   3.538   5.411   5.775  0.9845 -0.1460  0.3958
 1039TIP3    H124532   3.475   5.455   5.831  1.4855 -0.1362  0.9705
 1039TIP3    H224533   3.617   5.465   5.781  0.6878  0.5243 -1.2901
 1040TIP3   OH224534   1.034   6.275  11.559  0.5355  0.3127 -0.0312
 1040TIP3    H124535   1.095   6.310  11.495 -0.1644 -0.0624 -0.9379
 1040TIP3    H224536   0.976   6.348  11.580  0.8732  0.4832  0.2997
 1041TIP3   OH224537   4.704   3.017   2.791  0.3503  0.1699  0.1251
 1041TIP3    H124538   4.756   2.969   2.726  0.7674  1.1902 -0.3312
 1041TIP3    H224539   4.746   2.999   2.875 -0.1575 -1.1186  0.1174
 1042TIP3   OH224540   4.732   2.405   6.054 -0.2593 -0.1345  0.0803
 1042TIP3    H124541   4.704   2.370   5.969  1.6365 -1.5386 -0.0429
 1042TIP3    H224542   4.679   2.357   6.117 -1.3880  0.6193 -0.2629
 1043TIP3   OH224543   2.143   4.058  13.470 -0.5075  0.0390  0.0793
 1043TIP3    H124544   2.104   4.069  13.557 -1.4488  1.1996 -0.4724
 1043TIP3    H224545   2.084   4.105  13.411 -0.2479 -1.2957 -1.2936
 1044TIP3   OH224546   6.226   5.282   5.363  0.0036 -0.0485  0.1497
 1044TIP3    H124547   6.136   5.254   5.348 -0.2545  1.4935 -1.6145
 1044TIP3    H224548   6.279   5.205   5.342 -0.8300 -0.4327 -0.6134
 1045TIP3   OH224549   3.199   0.221  11.664  0.3675 -0.0440  0.1350
 1045TIP3    H124550   3.105   0.218  11.650  0.6226  0.8923 -2.1526
 1045TIP3    H224551   3.209   0.255  11.753 -1.4435  0.3320  0.2273
 1046TIP3   OH224552   3.957   6.665   3.413  0.0598 -0.5167 -0.5134
 1046TIP3    H124553   3.995   6.678   3.500 -2.1845  1.4097  0.2865
 1046TIP3    H224554   4.002   6.729   3.357 -0.0847 -0.1638 -0.2284
 1047TIP3   OH224555   1.957   3.058  11.535 -0.1221 -0.0935  0.0300
 1047TIP3    H124556   1.956   2.973  11.579  1.7608  1.2879  3.1140
 1047TIP3    H224557   2.021   3.047  11.465  0.8216 -0.9897  0.9872
 1048TIP3   OH224558   5.618   2.560   3.068 -0.3447 -0.0476  0.1216
 1048TIP3    H124559   5.680   2.628   3.093 -1.1006  0.3146  1.0937
 1048TIP3    H224560   5.592   2.582   2.978  0.9040 -0.2044 -0.2906
 1049TIP3   OH224561   0.154   1.173  13.153 -0.0907 -0.0779 -0.4619
 1049TIP3    H124562   0.129   1.259  13.186  1.1724  1.0173 -2.2160
 1049TIP3    H224563   0.172   1.121  13.231 -2.3143  0.7445  0.6848
 1050TIP3   OH224564   5.188   4.266   3.959  0.1408  0.0712 -0.6276
 1050TIP3    H124565   5.139   4.341   3.994 -1.7379 -0.6158 -1.6565
 1050TIP3    H224566   5.245   4.304   3.892  1.4913  0.9587  0.9373
 1051TIP3   OH224567   2.103   2.402  11.730 -0.5309 -0.3435  0.2828
 1051TIP3    H124568   2.172   2.467  11.712  1.8402 -2.8439 -0.4245
 1051TIP3    H224569   2.058   2.435  11.808  2.1719  0.9712  1.4131
 1052TIP3   OH224570   2.694   5.510   5.190 -0.0715 -0.3577  0.4910
 1052TIP3    H124571   2.768   5.523   5.250  0.1044  1.2237 -0.0162
 1052TIP3    H224572   2.727   5.451   5.123  0.6944  0.2008  0.3625
 1053TIP3   OH224573   2.764   1.225  16.829  0.2899  0.5924  0.5309
 1053TIP3    H124574   2.858   1.242  16.819  0.3526  0.2628  0.5606
 1053TIP3    H224575   2.726   1.312  16.840  0.6863  0.6815  1.2889
 1054TIP3   OH224576   1.123   2.367  14.317 -0.4159  0.1318 -0.6190
 1054TIP3    H124577   1.153   2.360  14.408  0.9720  0.2619 -1.0313
 1054TIP3    H224578   1.064   2.443  14.317 -3.0965 -1.8108  0.7741
 1055TIP3   OH224579   5.680   4.240  15.994  0.0755  0.1535  0.5405
 1055TIP3    H124580   5.695   4.218  15.902  0.9520 -0.2375  0.7683
 1055TIP3    H224581   5.700   4.159  16.041  1.0222  0.7537  1.1934
 1056TIP3   OH224582   3.024   6.009  17.082  0.1909  0.4139  0.0065
 1056TIP3    H124583   3.076   5.934  17.052 -0.0811  0.6350 -1.0529
 1056TIP3    H224584   2.947   6.009  17.026 -0.7057  0.4270  1.1906
 1057TIP3   OH224585   5.604   2.477   4.586 -0.0356 -0.2377 -0.2266
 1057TIP3    H124586   5.608   2.382   4.589  1.8822 -0.1672  1.0200
 1057TIP3    H224587   5.528   2.500   4.640  0.3567 -1.0075  0.6638
 1058TIP3   OH224588   6.579   0.615   2.369 -0.7254  0.5215 -0.1170
 1058TIP3    H124589   6.505   0.582   2.421 -1.2617  0.8475 -0.6549
 1058TIP3    H224590   6.609   0.692   2.417 -1.9178  1.4629 -0.8263
 1059TIP3   OH224591   6.241   3.692  13.831  0.4445  0.1130  0.2028
 1059TIP3    H124592   6.309   3.649  13.883 -0.2006 -0.7421  0.3577
 1059TIP3    H224593   6.246   3.784  13.857  1.1907 -0.0317  0.6006
 1060TIP3   OH224594   1.226   4.494   3.441 -0.0702  0.2794 -0.2237
 1060TIP3    H124595   1.165   4.495   3.367  0.4595 -0.0276 -0.6658
 1060TIP3    H224596   1.312   4.504   3.402  0.1446  1.2694  0.4372
 1061TIP3   OH224597   0.837   1.974   4.516 -0.5068  0.2265 -0.1498
 1061TIP3    H124598   0.801   1.894   4.554 -0.9867 -0.1618 -1.3648
 1061TIP3    H224599   0.928   1.976   4.545 -0.8980  0.0656  1.1625
 1062TIP3   OH224600   2.791   0.793  12.482 -0.1362  0.0207 -0.6608
 1062TIP3    H124601   2.792   0.861  12.549 -0.8611 -0.0806 -0.5348
 1062TIP3    H224602   2.882   0.785  12.454  0.0250  0.7237 -0.3571
 1063TIP3   OH224603   0.864   1.667  11.349 -0.1448 -0.3105  0.1391
 1063TIP3    H124604   0.851   1.648  11.442  0.4165 -0.4399  0.1971
 1063TIP3    H224605   0.936   1.609  11.323 -0.1574 -0.1231 -0.3222
 1064TIP3   OH224606   1.622   2.907   0.525  0.3132  0.1346 -0.4404
 1064TIP3    H124607   1.636   2.976   0.460  0.2618  0.3920 -0.1819
 1064TIP3    H224608   1.566   2.948   0.591 -0.9815 -0.6177 -1.0414
 1065TIP3   OH224609   1.250   5.752   3.290  0.1997  0.7266  0.6276
 1065TIP3    H124610   1.196   5.772   3.214  1.2192  0.0541 -0.3081
 1065TIP3    H224611   1.312   5.824   3.296 -0.5243  1.3021  1.4669
 1066TIP3   OH224612   0.167   2.600  16.826 -0.6662 -0.2588 -0.1319
 1066TIP3    H124613   0.197   2.602  16.916  1.3371  1.5521 -0.7523
 1066TIP3    H224614   0.247   2.608  16.773 -1.6115 -2.8101 -2.1558
 1067TIP3   OH224615   4.977   4.109  12.135 -0.1479  0.4650 -0.2516
 1067TIP3    H124616   5.046   4.153  12.183 -0.5936  1.6391 -0.6379
 1067TIP3    H224617   4.906   4.099  12.198 -0.0136  0.2195 -0.1389
 1068TIP3   OH224618   6.151   1.697   3.079  0.1298 -0.0151 -0.3112
 1068TIP3    H124619   6.124   1.611   3.111 -0.8900  0.3368 -0.2123
 1068TIP3    H224620   6.191   1.739   3.156  0.5637 -0.3610 -0.3410
 1069TIP3   OH224621   0.555   1.838   1.354 -0.3500  0.4873 -0.0855
 1069TIP3    H124622   0.566   1.764   1.296 -0.5305 -0.5674  1.1715
 1069TIP3    H224623   0.635   1.840   1.407 -0.9343  0.3167  0.8290
 1070TIP3   OH224624   5.439   3.345  11.209  0.1871 -0.1622  0.0497
 1070TIP3    H124625   5.517   3.395  11.234 -0.1364 -0.4022  1.6856
 1070TIP3    H224626   5.438   3.348  11.113  1.5212  0.8754  0.0332
 1071TIP3   OH224627   0.937   0.157   4.875  0.3576 -0.2474 -0.0812
 1071TIP3    H124628   0.919   0.112   4.792  1.0709  1.3100 -1.1386
 1071TIP3    H224629   0.914   0.093   4.942  2.6815 -2.7661 -1.4690
 1072TIP3   OH224630   6.200   0.153  12.316 -0.0841  0.0896  0.5571
 1072TIP3    H124631   6.152   0.217  12.263  1.7146  1.6025  0.6524
 1072TIP3    H224632   6.132   0.094  12.349 -1.9555  2.3438  1.0409
 1073TIP3   OH224633   1.234   0.941  12.201  0.0595  0.5049  0.4034
 1073TIP3    H124634   1.231   1.034  12.223  0.0251  0.2127  1.6618
 1073TIP3    H224635   1.144   0.918  12.178  0.2754  1.0410 -1.1076
 1074TIP3   OH224636   1.808   1.487   5.316 -0.4120 -0.0957  0.3977
 1074TIP3    H124637   1.772   1.515   5.232 -0.7243 -1.1597  0.1682
 1074TIP3    H224638   1.738   1.505   5.379  0.2033  1.6839  0.6280
 1075TIP3   OH224639   4.346   2.501   0.674  0.2222 -0.3063 -0.2364
 1075TIP3    H124640   4.311   2.492   0.762  0.9742 -2.2706 -0.0697
 1075TIP3    H224641   4.269   2.519   0.619 -0.1333  1.9073  0.8762
 1076TIP3   OH224642   0.502   4.991  11.344  0.4439 -0.0947  0.2650
 1076TIP3    H124643   0.528   4.928  11.411 -0.6277 -0.3211  0.4923
 1076TIP3    H224644   0.410   4.970  11.326  0.8125 -0.2662 -1.5482
 1077TIP3   OH224645   2.951   0.802   2.752  0.0789 -0.4122 -0.3599
 1077TIP3    H124646   2.994   0.881   2.720 -0.8110  1.3297  2.3609
 1077TIP3    H224647   3.020   0.752   2.794  0.0348  1.1556  1.7701
 1078TIP3   OH224648   0.081   6.153   3.999  0.5082  0.3501  0.2852
 1078TIP3    H124649   0.102   6.229   4.053  0.0232 -0.1820  1.2525
 1078TIP3    H224650   0.017   6.104   4.050 -0.7449  0.3313 -1.2082
 1079TIP3   OH224651   0.401   6.231  11.912  0.0219  0.0699  0.0696
 1079TIP3    H124652   0.354   6.150  11.934 -1.3917  1.1954  1.4178
 1079TIP3    H224653   0.368   6.255  11.826  1.0396 -1.1693 -0.7045
 1080TIP3   OH224654   0.134   6.741   4.032  0.0888  0.4013 -0.8234
 1080TIP3    H124655   0.141   6.779   4.120 -1.5237  0.5045 -0.7036
 1080TIP3    H224656   0.224   6.730   4.003  0.6804 -0.0772  1.0357
 1081TIP3   OH224657   3.881   2.568  14.700 -0.1968 -0.0239  0.0512
 1081TIP3    H124658   3.924   2.532  14.623 -1.4559 -2.8197  0.5169
 1081TIP3    H224659   3.939   2.637  14.730  0.9268  0.3313 -2.6693
 1082TIP3   OH224660   1.455   2.625  15.724 -0.3912 -0.1993  0.1648
 1082TIP3    H124661   1.379   2.576  15.755  0.0982 -0.3519  1.1544
 1082TIP3    H224662   1.460   2.605  15.631 -1.3338 -0.4953  0.1685
 1083TIP3   OH224663   2.523   4.001   2.827 -0.9512  0.3100  0.0485
 1083TIP3    H124664   2.501   4.073   2.886 -3.6146 -0.0543 -0.3937
 1083TIP3    H224665   2.619   4.006   2.820 -1.0056  4.2688 -0.5697
 1084TIP3   OH224666   4.786   5.608   2.716  0.0483 -0.4826 -0.0746
 1084TIP3    H124667   4.718   5.636   2.777  0.7635  0.1280  0.4596
 1084TIP3    H224668   4.804   5.517   2.741 -1.4446 -1.0996 -1.0503
 1085TIP3   OH224669   5.943   3.563   3.916  0.6935 -0.1504 -0.5234
 1085TIP3    H124670   5.922   3.541   4.007 -2.3505  0.1980 -1.0076
 1085TIP3    H224671   5.956   3.478   3.874 -1.0856 -0.5646 -0.3465
 1086TIP3   OH224672   4.353   0.879  15.574  0.0428  0.1069  0.1348
 1086TIP3    H124673   4.341   0.842  15.487 -1.1497  1.9102 -0.5450
 1086TIP3    H224674   4.296   0.828  15.631  0.5532 -0.8477 -0.1929
 1087TIP3   OH224675   4.875   5.425  12.374 -0.7676 -0.1858 -0.0076
 1087TIP3    H124676   4.810   5.362  12.342  0.2429 -0.8971 -0.7080
 1087TIP3    H224677   4.885   5.404  12.467 -0.9317 -0.6119 -0.0826
 1088TIP3   OH224678   0.448   1.503  11.883 -0.4077 -0.1947  0.2647
 1088TIP3    H124679   0.385   1.560  11.838 -1.2947 -0.5855  1.0009
 1088TIP3    H224680   0.395   1.432  11.919  0.7015 -1.6386 -0.8068
 1089TIP3   OH224681   1.720   2.691   5.169  0.3065  0.3061 -0.2782
 1089TIP3    H124682   1.654   2.757   5.191 -0.5194 -0.4354 -0.4322
 1089TIP3    H224683   1.679   2.640   5.098  0.1189 -1.5292  1.0708
 1090TIP3   OH224684   3.787   3.694  14.600 -1.1076  0.3917  0.2386
 1090TIP3    H124685   3.708   3.743  14.624 -0.7238  0.4480  1.4498
 1090TIP3    H224686   3.859   3.752  14.624 -0.6393  1.0951 -2.4530
 1091TIP3   OH224687   0.244   6.103  14.501 -0.5273 -0.0952  0.2712
 1091TIP3    H124688   0.158   6.145  14.501 -1.7216 -2.3304  2.5261
 1091TIP3    H224689   0.301   6.165  14.548 -1.4311  0.4704  0.6433
 1092TIP3   OH224690   3.203   4.440   6.201  0.4411 -0.2719  0.5554
 1092TIP3    H124691   3.144   4.398   6.138  1.8963  1.3001 -2.0214
 1092TIP3    H224692   3.231   4.369   6.259 -2.1156 -1.4956  0.4506
 1093TIP3   OH224693   5.443   5.018   0.392 -0.0424 -0.0329  0.2228
 1093TIP3    H124694   5.379   5.017   0.320  1.2103  1.4122 -0.9787
 1093TIP3    H224695   5.466   4.926   0.403  1.1084 -0.2001 -2.5798
 1094TIP3   OH224696   0.318   4.876  10.270 -0.5807  0.0738  0.2915
 1094TIP3    H124697   0.383   4.847  10.335 -1.9876 -0.7331  1.3952
 1094TIP3    H224698   0.366   4.938  10.215  0.5903  1.0622  2.3017
 1095TIP3   OH224699   6.258   4.535  14.984  0.2726  0.1025  0.7846
 1095TIP3    H124700   6.246   4.458  15.039  1.2301 -0.0060  0.8616
 1095TIP3    H224701   6.302   4.599  15.041 -1.0243  0.9380  0.9022
 1096TIP3   OH224702   6.317   3.853   1.611  0.3063 -0.3393  0.3314
 1096TIP3    H124703   6.338   3.943   1.636  0.1569 -0.5134  1.1111
 1096TIP3    H224704   6.226   3.856   1.582  0.1113 -0.3503  0.9389
 1097TIP3   OH224705   4.045   3.484   5.660 -0.6349  0.2291 -0.0549
 1097TIP3    H124706   3.955   3.482   5.692 -0.7153 -1.5226 -0.2735
 1097TIP3    H224707   4.098   3.470   5.738 -0.8172 -3.6788 -0.4281
 1098TIP3   OH224708   6.051   0.545   2.754 -0.2135 -0.4872  0.4641
 1098TIP3    H124709   5.977   0.570   2.699 -0.6859 -1.3047  0.7157
 1098TIP3    H224710   6.103   0.625   2.762  0.2103 -0.4894 -1.6887
 1099TIP3   OH224711   6.460   4.280   5.045  0.2810 -0.2768 -0.3135
 1099TIP3    H124712   6.458   4.298   5.139  0.4675  2.2305 -0.7232
 1099TIP3    H224713   6.384   4.224   5.030 -0.1188 -0.1997  1.2270
 1100TIP3   OH224714   5.218   2.056  16.150 -0.1269  0.7211 -0.0269
 1100TIP3    H124715   5.290   2.113  16.124 -0.7262  1.0933 -0.9284
 1100TIP3    H224716   5.187   2.018  16.068 -1.1308  0.7709  0.3173
 1101TIP3   OH224717   5.496   6.549  14.791 -0.5556 -0.0734  0.1596
 1101TIP3    H124718   5.452   6.517  14.712 -0.3767  0.8874 -0.3399
 1101TIP3    H224719   5.575   6.591  14.760 -0.8878  1.0496  0.7660
 1102TIP3   OH224720   5.345   0.769   4.177 -0.1255 -0.2778 -0.1506
 1102TIP3    H124721   5.373   0.678   4.182  2.8189  0.3873 -1.6795
 1102TIP3    H224722   5.423   0.819   4.201 -1.4558  1.8437 -0.0057
 1103TIP3   OH224723   0.087   1.467   3.829  0.5294 -0.6172 -0.2839
 1103TIP3    H124724   0.010   1.415   3.855  1.4756 -1.7658  0.3646
 1103TIP3    H224725   0.093   1.455   3.735 -0.4226 -0.0346 -0.4280
 1104TIP3   OH224726   3.342   4.484  11.900  0.4407  0.7055 -0.0363
 1104TIP3    H124727   3.344   4.545  11.826  0.9581  1.2721  0.4355
 1104TIP3    H224728   3.249   4.466  11.913  0.3841 -1.4021 -2.4122
 1105TIP3   OH224729   6.427   2.990   5.935  0.0836 -0.1969 -0.1601
 1105TIP3    H124730   6.385   3.054   5.877  0.8689  1.6076  1.1859
 1105TIP3    H224731   6.369   2.984   6.011  0.2757 -0.7253 -0.0482
 1106TIP3   OH224732   2.556   5.231   1.168  0.7327 -0.3016  0.3668
 1106TIP3    H124733   2.494   5.276   1.226 -1.7353 -2.2967 -0.5286
 1106TIP3    H224734   2.623   5.196   1.227 -0.6293 -0.6052  1.7921
 1107TIP3   OH224735   1.820   2.586  11.463 -0.3358 -0.4964  0.0559
 1107TIP3    H124736   1.880   2.624  11.399  0.3141  0.8012  1.3980
 1107TIP3    H224737   1.810   2.495  11.434  2.1484 -0.7335 -0.3182
 1108TIP3   OH224738   0.011   0.767   5.371 -0.4565 -0.6295 -0.4368
 1108TIP3    H124739   0.029   0.821   5.448  0.0536 -2.4514  0.7739
 1108TIP3    H224740  -0.023   0.685   5.407 -1.7830 -0.9268 -2.2435
 1109TIP3   OH224741   1.302   5.189   5.162 -0.2780 -0.0083 -0.4790
 1109TIP3    H124742   1.285   5.098   5.138 -0.4466 -0.3313  0.8354
 1109TIP3    H224743   1.378   5.185   5.219 -0.1410  0.7106 -0.6022
 1110TIP3   OH224744   4.003   0.323   0.634 -0.5050  0.3425  0.3966
 1110TIP3    H124745   3.973   0.413   0.633 -0.5854  0.3215  0.7728
 1110TIP3    H224746   3.943   0.278   0.694 -1.1637 -0.2088 -0.6423
 1111TIP3   OH224747   3.569   0.056   3.531  0.1105  0.0030 -0.0356
 1111TIP3    H124748   3.653   0.070   3.573  0.6302 -0.5537 -0.8591
 1111TIP3    H224749   3.509   0.036   3.603  0.9168 -0.6743  0.4714
 1112TIP3   OH224750   2.943   3.286   3.693 -0.4814 -0.4655  0.0019
 1112TIP3    H124751   2.906   3.367   3.657  0.6703  0.8044  1.4778
 1112TIP3    H224752   2.900   3.277   3.778  1.2527  0.1090  0.9972
 1113TIP3   OH224753   2.460   2.082  16.827  0.1149  0.6069  0.0764
 1113TIP3    H124754   2.441   2.162  16.875  0.6850  0.4364  0.5915
 1113TIP3    H224755   2.475   2.111  16.737 -2.2302  0.8001 -0.3256
 1114TIP3   OH224756   2.453   0.891   0.372 -0.0355 -0.1975 -0.1621
 1114TIP3    H124757   2.443   0.951   0.298 -0.8243  1.5981  1.3083
 1114TIP3    H224758   2.544   0.902   0.400 -0.2135  0.4285  0.1819
 1115TIP3   OH224759   5.433   2.611   5.773 -0.1343  0.3776  0.1673
 1115TIP3    H124760   5.473   2.693   5.745  1.5594 -0.4997 -0.1094
 1115TIP3    H224761   5.365   2.594   5.708 -0.9368  1.8534  0.5825
 1116TIP3   OH224762   1.435   6.203   1.224 -0.3418  0.6245 -0.0232
 1116TIP3    H124763   1.341   6.212   1.237 -0.3701  0.7084 -0.2805
 1116TIP3    H224764   1.474   6.258   1.292 -0.3977 -1.8886  2.2436
 1117TIP3   OH224765   6.098   6.680  10.773  0.1526 -0.7308  0.6681
 1117TIP3    H124766   6.168   6.735  10.809 -0.2167 -0.1370  0.4843
 1117TIP3    H224767   6.077   6.720  10.689  0.2125 -1.4366  0.3121
 1118TIP3   OH224768   1.475   5.008  12.121 -0.1731 -0.0716  0.1793
 1118TIP3    H124769   1.439   4.941  12.179 -0.4558  2.2596  2.8628
 1118TIP3    H224770   1.406   5.023  12.056 -0.4807 -1.6246  0.1014
 1119TIP3   OH224771   0.885   5.692  16.877  0.0501  0.0951 -0.1570
 1119TIP3    H124772   0.837   5.771  16.902  1.4099  0.6488  0.8408
 1119TIP3    H224773   0.872   5.684  16.783 -1.3644  0.6328 -0.0301
 1120TIP3   OH224774   6.242   1.629  14.198 -0.3561 -0.2955  0.1895
 1120TIP3    H124775   6.319   1.652  14.251 -1.1500 -0.8650  1.6579
 1120TIP3    H224776   6.248   1.686  14.122  1.7348 -0.5966  0.0514
 1121TIP3   OH224777   2.904   3.023   4.178 -0.4513  0.5425  0.2648
 1121TIP3    H124778   2.865   3.097   4.224 -0.1100  1.7414 -1.2683
 1121TIP3    H224779   2.832   2.986   4.127 -0.1902  1.1334 -0.5580
 1122TIP3   OH224780   6.013   3.517   4.604  0.0090  0.3260  0.3389
 1122TIP3    H124781   5.945   3.468   4.560 -0.8543  0.5777  1.3449
 1122TIP3    H224782   5.967   3.588   4.649  0.8791  0.3255  1.2954
 1123TIP3   OH224783   1.621   2.053   6.350 -0.1671  0.0724 -0.1528
 1123TIP3    H124784   1.692   2.079   6.409 -0.1417  1.0797 -0.6001
 1123TIP3    H224785   1.541   2.074   6.398 -0.2437 -2.4414  0.9695
 1124TIP3   OH224786   1.334   0.895   4.517 -0.7041  0.2705 -0.3233
 1124TIP3    H124787   1.375   0.831   4.575  1.2035  0.9351 -0.8774
 1124TIP3    H224788   1.263   0.847   4.475 -0.9049 -0.7539  1.1055
 1125TIP3   OH224789   5.203   3.662   3.886 -0.3488  0.7388  0.3889
 1125TIP3    H124790   5.108   3.658   3.898 -0.4612 -2.6148 -0.4960
 1125TIP3    H224791   5.218   3.616   3.804  1.8970  4.0641 -1.2640
 1126TIP3   OH224792   0.568   4.133   6.523 -1.0101  0.0575  0.5479
 1126TIP3    H124793   0.531   4.058   6.476  1.9126 -1.7517  0.8896
 1126TIP3    H224794   0.659   4.138   6.494  0.1523  0.6248  3.8103
 1127TIP3   OH224795   0.714   3.910   4.465 -0.6612  0.6273 -0.4388
 1127TIP3    H124796   0.724   3.977   4.532 -0.6753 -0.4533  0.6793
 1127TIP3    H224797   0.659   3.844   4.505  0.7749 -0.8917 -0.8446
 1128TIP3   OH224798   1.348   2.788  13.117 -0.2048 -0.4620  0.3754
 1128TIP3    H124799   1.403   2.741  13.181 -0.3327 -1.2240 -0.0596
 1128TIP3    H224800   1.347   2.878  13.149  0.1167 -0.7304  1.1936
 1129TIP3   OH224801   0.525   4.004  13.525 -0.1671  0.3201  0.2099
 1129TIP3    H124802   0.431   3.992  13.541 -0.1074  1.2054  1.3844
 1129TIP3    H224803   0.566   3.978  13.607  0.5621  0.5678 -0.0688
 1130TIP3   OH224804   0.502   3.828   1.116  0.1332  0.0220  0.1540
 1130TIP3    H124805   0.482   3.822   1.023  0.4610 -0.7958  0.1322
 1130TIP3    H224806   0.420   3.856   1.156  0.1319  0.8983 -0.4345
 1131TIP3   OH224807   2.363   5.133   0.177  0.5614  0.4605 -0.3289
 1131TIP3    H124808   2.431   5.113   0.242 -1.1105 -0.2098  1.2974
 1131TIP3    H224809   2.336   5.048   0.144 -0.9535  0.5397  0.6307
 1132TIP3   OH224810   3.633   4.616   3.316  0.2170 -0.6770 -0.1856
 1132TIP3    H124811   3.622   4.680   3.387  0.8193 -1.1706  0.3757
 1132TIP3    H224812   3.547   4.611   3.275  0.4507  1.3761 -1.0280
 1133TIP3   OH224813   4.243   4.515   2.186 -0.1343 -0.3942  0.4642
 1133TIP3    H124814   4.170   4.464   2.150  1.2749 -2.0935 -0.1536
 1133TIP3    H224815   4.312   4.450   2.200  2.2963  1.5367 -1.6720
 1134TIP3   OH224816   2.419   5.154   4.124  0.0951  0.0684 -0.3186
 1134TIP3    H124817   2.421   5.123   4.214  0.0156 -0.8260 -0.6206
 1134TIP3    H224818   2.504   5.127   4.087  0.2402  0.6700 -0.4346
 1135TIP3   OH224819   6.088   2.322   3.834 -0.2898  0.0406 -0.1037
 1135TIP3    H124820   6.114   2.234   3.807 -0.4285  0.3037 -1.1208
 1135TIP3    H224821   6.150   2.380   3.791 -1.1254  0.5339 -0.6766
 1136TIP3   OH224822   4.956   2.106  14.267  0.0145  0.1304 -0.1358
 1136TIP3    H124823   4.888   2.159  14.224 -1.5598 -0.1087  1.8825
 1136TIP3    H224824   5.037   2.128  14.221 -1.3251  0.8460 -2.2940
 1137TIP3   OH224825   3.894   5.439   2.938 -0.1205  0.2500 -0.1224
 1137TIP3    H124826   3.818   5.385   2.959 -0.0161  0.5120  1.0093
 1137TIP3    H224827   3.858   5.519   2.902 -0.5017  0.9824  1.7485
 1138TIP3   OH224828   4.883   5.335  16.972  0.4551  0.3180 -0.0985
 1138TIP3    H124829   4.860   5.385  16.894  0.1604  1.7804  0.8710
 1138TIP3    H224830   4.887   5.244  16.943 -1.3544  0.6234 -1.4368
 1139TIP3   OH224831   3.508   5.643  11.864 -0.2231  0.0069 -0.1372
 1139TIP3    H124832   3.583   5.589  11.890  0.0728  0.4490 -0.0763
 1139TIP3    H224833   3.458   5.656  11.944  0.7296  1.4345  0.2474
 1140TIP3   OH224834   6.065   2.915  14.092  0.1610  0.4412 -0.0085
 1140TIP3    H124835   6.049   2.967  14.171  1.3720 -0.3017  0.7564
 1140TIP3    H224836   5.990   2.856  14.086  0.8189 -0.6249  1.5506
 1141TIP3   OH224837   6.327   2.492   2.926 -0.0889 -0.5812 -0.0727
 1141TIP3    H124838   6.381   2.566   2.953 -0.9171  0.5971 -1.5016
 1141TIP3    H224839   6.349   2.422   2.988  0.3335  1.0000  1.6365
 1142TIP3   OH224840   6.433   3.860   4.018  0.5933  0.1360 -0.1545
 1142TIP3    H124841   6.455   3.904   4.101  2.3344 -1.0845  0.0737
 1142TIP3    H224842   6.472   3.773   4.025 -2.3196 -1.3510 -0.8105
 1143TIP3   OH224843   6.289   3.643   3.324 -0.0268 -0.3742 -0.0690
 1143TIP3    H124844   6.382   3.651   3.344 -0.0937 -0.8395  0.4606
 1143TIP3    H224845   6.284   3.578   3.254  0.0610 -0.1987 -0.2381
 1144TIP3   OH224846   0.037   1.777   3.670  0.9734  0.4518 -0.1319
 1144TIP3    H124847  -0.011   1.705   3.711  1.0414  1.2388  1.4085
 1144TIP3    H224848   0.120   1.781   3.719 -0.3411  3.6533  2.2246
 1145TIP3   OH224849   5.597   2.242  15.596 -0.0504 -0.5449  0.2701
 1145TIP3    H124850   5.621   2.332  15.619 -0.6880 -0.9502  2.8495
 1145TIP3    H224851   5.676   2.191  15.615 -0.6692 -0.9276  1.9103
 1146TIP3   OH224852   0.152   5.924  12.278 -0.2167 -0.4445  0.3791
 1146TIP3    H124853   0.157   6.015  12.307  0.6919 -0.2717 -0.2655
 1146TIP3    H224854   0.060   5.910  12.258 -0.2150  0.6519 -0.4847
 1147TIP3   OH224855   6.239   1.034   0.112 -0.1242 -0.0051 -0.0175
 1147TIP3    H124856   6.314   0.985   0.079  1.0968  1.7067  0.0682
 1147TIP3    H224857   6.165   0.974   0.106  1.2544 -1.7395 -0.1148
 1148TIP3   OH224858   4.432   5.432  13.169 -0.0981  0.1506 -0.2678
 1148TIP3    H124859   4.407   5.365  13.105 -0.8709 -1.0149  1.1984
 1148TIP3    H224860   4.365   5.426  13.237  0.6804  1.3836  0.6438
 1149TIP3   OH224861   0.249   3.542  13.471  0.3408 -0.3002  0.1067
 1149TIP3    H124862   0.291   3.480  13.531 -0.3711 -1.9469 -1.0270
 1149TIP3    H224863   0.171   3.496  13.440 -0.4495  1.3587 -0.4584
 1150TIP3   OH224864   4.826   0.971   1.870  0.2698  0.1968 -0.0850
 1150TIP3    H124865   4.738   0.936   1.866  0.0994  0.4394  1.0574
 1150TIP3    H224866   4.842   0.986   1.964  2.8562 -3.1791  0.1951
 1151TIP3   OH224867   1.186   3.963  14.637 -0.2600  0.3429 -0.4851
 1151TIP3    H124868   1.153   4.049  14.612  1.0818  1.4519  1.3415
 1151TIP3    H224869   1.114   3.921  14.683 -0.6091  0.9014 -0.5208
 1152TIP3   OH224870   5.287   0.524   4.505 -0.3799 -0.2134  0.3971
 1152TIP3    H124871   5.260   0.549   4.594 -1.5611  0.1927 -0.0652
 1152TIP3    H224872   5.382   0.511   4.512 -0.5637 -0.9499  1.8919
 1153TIP3   OH224873   1.012   5.145  15.430 -0.1115 -0.1278 -0.0686
 1153TIP3    H124874   0.948   5.171  15.364 -1.2895 -0.3428  0.9524
 1153TIP3    H224875   0.980   5.186  15.511  0.1339 -1.5833  0.7855
 1154TIP3   OH224876   2.461   4.350   5.562 -0.2796  0.5731  0.3113
 1154TIP3    H124877   2.556   4.360   5.572 -0.3205  1.0211  0.2836
 1154TIP3    H224878   2.446   4.256   5.564  0.1792  0.4971  0.2131
 1155TIP3   OH224879   0.908   2.178   0.828 -0.1414 -0.4450 -0.1914
 1155TIP3    H124880   0.949   2.107   0.780 -1.4112 -0.6509 -1.0153
 1155TIP3    H224881   0.848   2.219   0.765  0.6629  1.4591  0.2144
 1156TIP3   OH224882   2.532   0.866   1.098 -0.4304  0.4313  0.3464
 1156TIP3    H124883   2.593   0.899   1.163  0.8630  0.3982 -0.8116
 1156TIP3    H224884   2.572   0.886   1.014 -1.6240 -0.3269 -0.4491
 1157TIP3   OH224885   0.183   0.999  13.440  0.0746 -0.6027  0.3412
 1157TIP3    H124886   0.089   1.016  13.442  0.0390 -0.6372 -0.6074
 1157TIP3    H224887   0.190   0.904  13.448 -0.1697 -0.9808 -2.7732
 1158TIP3   OH224888   1.738   3.758   5.738 -0.2995  0.5259 -0.2123
 1158TIP3    H124889   1.697   3.688   5.788  0.6431 -0.5542 -0.8841
 1158TIP3    H224890   1.807   3.791   5.795  3.1215 -3.0253 -1.8101
 1159TIP3   OH224891   3.653   0.893  14.796 -0.0955 -0.0479  0.3132
 1159TIP3    H124892   3.747   0.878  14.807 -0.0670 -1.0055 -0.9976
 1159TIP3    H224893   3.632   0.959  14.862  1.2622 -0.6273  1.3861
 1160TIP3   OH224894   4.758   0.581   4.303 -0.3363  0.0563  0.2646
 1160TIP3    H124895   4.714   0.551   4.382  1.4051  0.2728  1.3721
 1160TIP3    H224896   4.849   0.597   4.330  0.2153  0.5463 -1.6773
 1161TIP3   OH224897   1.867   0.892  17.082  0.2663  0.5163  0.3053
 1161TIP3    H124898   1.826   0.864  17.164  0.4901  1.0053  0.5907
 1161TIP3    H224899   1.830   0.979  17.065 -0.7110 -0.0951 -0.7695
 1162TIP3   OH224900   5.493   1.588  13.235 -0.1774  0.2510  0.4478
 1162TIP3    H124901   5.552   1.538  13.179  2.0864 -0.0118  2.8533
 1162TIP3    H224902   5.412   1.537  13.236  0.0176 -0.1659 -1.8098
 1163TIP3   OH224903   0.643   2.039  11.498 -0.1451  0.3788 -0.5812
 1163TIP3    H124904   0.564   2.071  11.454  1.3148  0.2976 -3.4457
 1163TIP3    H224905   0.610   1.976  11.563 -2.5232  1.7994 -0.2995
 1164TIP3   OH224906   6.313   2.933  13.708 -0.4326 -0.0232 -0.2372
 1164TIP3    H124907   6.244   2.979  13.756 -0.1098  0.4568 -0.2283
 1164TIP3    H224908   6.275   2.916  13.622 -0.8482 -0.4799  0.0305
 1165TIP3   OH224909   0.835   6.766   0.234 -0.7240 -0.4372 -0.3877
 1165TIP3    H124910   0.740   6.758   0.242 -0.7544  0.3702  0.1982
 1165TIP3    H224911   0.859   6.834   0.297  0.1784 -0.2358 -0.9242
 1166TIP3   OH224912   6.244   2.131  10.437  0.0021  0.0257  0.7239
 1166TIP3    H124913   6.154   2.118  10.465 -0.6022  1.0661 -0.6610
 1166TIP3    H224914   6.255   2.226  10.434  0.5057 -0.0617 -1.0683
 1167TIP3   OH224915   0.818   3.422   3.826  1.0358  0.2922  0.4685
 1167TIP3    H124916   0.871   3.344   3.805  1.0260  0.5562 -0.5991
 1167TIP3    H224917   0.844   3.487   3.760 -0.4148  0.5237  0.0943
 1168TIP3   OH224918   2.998   2.189   3.615  0.0558  0.0755 -0.0798
 1168TIP3    H124919   2.930   2.252   3.593  1.7268  2.0237 -0.0222
 1168TIP3    H224920   3.031   2.159   3.530  0.4850  0.7351 -0.1587
 1169TIP3   OH224921   6.295   1.706   4.126  0.2222  0.3363 -0.2327
 1169TIP3    H124922   6.348   1.629   4.149 -0.0990  0.4731  1.0392
 1169TIP3    H224923   6.327   1.733   4.040  1.0861 -0.5657 -0.2065
 1170TIP3   OH224924   4.740   4.266  16.899  0.1896  0.2320 -0.1768
 1170TIP3    H124925   4.795   4.223  16.833 -1.4019 -1.4096 -0.5214
 1170TIP3    H224926   4.749   4.212  16.977 -0.6562  0.1512 -0.1309
 1171TIP3   OH224927   5.604   1.921   4.570 -0.2696  0.3584 -0.2710
 1171TIP3    H124928   5.639   1.844   4.615  2.0352  2.4476  1.7921
 1171TIP3    H224929   5.654   1.926   4.489  1.3789  0.9748  0.7311
 1172TIP3   OH224930   2.098   0.487  13.561 -0.2170 -0.2287 -0.5788
 1172TIP3    H124931   2.150   0.516  13.486 -0.0212  0.4577 -0.1920
 1172TIP3    H224932   2.046   0.564  13.584  0.3702 -0.1579  0.5367
 1173TIP3   OH224933   5.478   1.722   3.514  0.2434 -0.4270 -0.9813
 1173TIP3    H124934   5.553   1.777   3.489  1.0032 -1.2727 -0.6250
 1173TIP3    H224935   5.402   1.767   3.478  0.4062  2.7023  2.1311
 1174TIP3   OH224936   2.635   1.013   4.290  0.1304 -0.4334 -0.0029
 1174TIP3    H124937   2.634   0.917   4.300  1.7790 -0.8468 -2.8244
 1174TIP3    H224938   2.562   1.031   4.230  1.3263 -0.2616 -1.4448
 1175TIP3   OH224939   5.577   4.208   1.686  0.3874  0.1134 -0.0802
 1175TIP3    H124940   5.505   4.180   1.743  0.9358 -1.6442 -0.1873
 1175TIP3    H224941   5.534   4.232   1.604 -0.3652  2.1992  0.8444
 1176TIP3   OH224942   3.062   0.653  10.920  0.1224 -0.4138  0.2627
 1176TIP3    H124943   3.005   0.701  10.860  0.3475 -0.8077 -0.2774
 1176TIP3    H224944   3.013   0.575  10.943 -0.8034  0.6696  2.1970
 1177TIP3   OH224945   0.598   0.569  11.459 -0.3935 -0.4104  0.2134
 1177TIP3    H124946   0.574   0.662  11.461 -0.9338 -0.4131 -2.2318
 1177TIP3    H224947   0.685   0.568  11.417  0.4498 -0.9379  1.8701
 1178TIP3   OH224948   0.465   1.105   1.911  0.0535 -0.1615  0.2577
 1178TIP3    H124949   0.557   1.087   1.932  0.4787 -1.5793 -2.3305
 1178TIP3    H224950   0.469   1.159   1.832 -1.3335 -0.2015  0.1395
 1179TIP3   OH224951   2.588   2.416   5.318  0.0473 -0.0537  0.1686
 1179TIP3    H124952   2.571   2.364   5.397  4.5898 -0.5437  1.0661
 1179TIP3    H224953   2.608   2.353   5.250 -0.3410  0.4710 -0.4526
 1180TIP3   OH224954   6.309   4.307  15.584  0.4684  0.2776  0.6749
 1180TIP3    H124955   6.249   4.250  15.631  1.7023 -0.7540  1.0603
 1180TIP3    H224956   6.372   4.248  15.543  0.9351  1.2950 -0.1509
 1181TIP3   OH224957   3.036   1.440   3.105 -0.5806 -0.8682 -0.0910
 1181TIP3    H124958   3.032   1.366   3.044  1.4547 -0.1405 -1.2359
 1181TIP3    H224959   2.954   1.488   3.091 -1.2130 -2.0306 -0.4899
 1182TIP3   OH224960   1.549   0.001   3.687 -0.1618 -0.4355 -0.0840
 1182TIP3    H124961   1.509   0.043   3.764 -0.9405 -0.6802 -0.3502
 1182TIP3    H224962   1.493   0.025   3.614  0.2181 -0.7293 -0.4803
 1183TIP3   OH224963   5.313   4.456   0.079 -0.3328  0.4781  0.3796
 1183TIP3    H124964   5.263   4.433   0.157 -2.0955  1.2227 -0.4448
 1183TIP3    H224965   5.298   4.384   0.018  0.9120 -0.0318  0.6573
 1184TIP3   OH224966   5.898   5.119  12.385  0.2586  0.0377 -0.2284
 1184TIP3    H124967   5.936   5.043  12.341  1.2729  0.5442 -0.2643
 1184TIP3    H224968   5.949   5.193  12.353  0.5561  0.5117  1.2531
 1185TIP3   OH224969   1.398   2.408  15.533  0.3552 -0.3377  0.2464
 1185TIP3    H124970   1.319   2.459  15.553 -0.8874 -1.7160 -0.8909
 1185TIP3    H224971   1.415   2.426  15.441  0.1527 -1.5931 -0.0570
 1186TIP3   OH224972   5.953   4.660  14.239 -0.9822 -0.1368 -0.2232
 1186TIP3    H124973   5.873   4.619  14.208 -1.5664  1.7238 -1.3737
 1186TIP3    H224974   5.926   4.712  14.315 -0.7866  0.1466 -0.3449
 1187TIP3   OH224975   5.056   2.001   3.729  0.1235 -0.2557  0.1823
 1187TIP3    H124976   4.990   2.015   3.797 -1.3226 -0.4190 -1.1367
 1187TIP3    H224977   5.107   1.926   3.760 -0.1275  0.0360  1.3490
 1188TIP3   OH224978   4.315   5.959  11.711 -0.3204  0.8120  0.8156
 1188TIP3    H124979   4.406   5.954  11.684 -0.6719  0.3420 -0.3541
 1188TIP3    H224980   4.267   5.981  11.631 -1.4501 -0.9282  0.9510
 1189TIP3   OH224981   2.600   2.868  15.420 -0.0883  0.0259  0.2134
 1189TIP3    H124982   2.683   2.826  15.444  0.1139  0.9076  1.1039
 1189TIP3    H224983   2.534   2.819  15.469  0.1184  0.5524  1.0357
 1190TIP3   OH224984   5.162   2.265   4.521  0.2796 -0.0428  0.3087
 1190TIP3    H124985   5.106   2.334   4.485  2.0038  1.0195 -0.4433
 1190TIP3    H224986   5.175   2.205   4.448 -0.5386 -0.7400  0.7251
 1191TIP3   OH224987   4.000   1.172   4.246 -0.0370 -0.1643  0.0468
 1191TIP3    H124988   3.943   1.097   4.229 -0.6738  0.5300 -1.0773
 1191TIP3    H224989   4.060   1.174   4.171 -0.0271  0.4412  0.0626
 1192TIP3   OH224990   1.866   6.014   1.047 -0.5927 -0.1067 -0.5124
 1192TIP3    H124991   1.822   6.099   1.058  1.5692  0.8945  1.1808
 1192TIP3    H224992   1.819   5.956   1.107  0.4534  1.0291  1.5307
 1193TIP3   OH224993   2.521   6.746   1.219 -0.2179 -0.0869 -0.0245
 1193TIP3    H124994   2.596   6.703   1.177  0.2284  0.4674  0.1859
 1193TIP3    H224995   2.553   6.834   1.240  0.7525 -1.2211  4.3983
 1194TIP3   OH224996   3.698   6.030  13.460  0.0346 -0.1389 -0.4117
 1194TIP3    H124997   3.732   6.028  13.550 -0.0781  2.3783 -0.2388
 1194TIP3    H224998   3.603   6.031  13.470 -0.0175 -1.5730 -0.6532
 1195TIP3   OH224999   0.174   2.843  12.154  0.0775 -0.4216 -0.8865
 1195TIP3    H125000   0.207   2.930  12.128 -3.7236  1.4296 -0.2421
 1195TIP3    H225001   0.210   2.829  12.241  1.6602 -0.0951 -1.4475
 1196TIP3   OH225002   0.872   5.850  11.033 -0.1720 -0.1852 -0.2506
 1196TIP3    H125003   0.928   5.917  11.072 -1.0588  0.1804  0.4130
 1196TIP3    H225004   0.829   5.895  10.960  0.8191 -0.6278 -1.1352
 1197TIP3   OH225005   2.021   4.442  16.401  0.2302  0.3612  0.9507
 1197TIP3    H125006   2.102   4.433  16.350  0.2931  2.5470  0.5728
 1197TIP3    H225007   2.031   4.379  16.472  1.3657 -0.8248 -0.1870
 1198TIP3   OH225008   2.746   1.224  13.047  0.0710  0.1686 -0.2892
 1198TIP3    H125009   2.724   1.131  13.039 -0.4275  0.2371  0.2549
 1198TIP3    H225010   2.798   1.243  12.969 -0.0627 -0.4982 -0.5466
 1199TIP3   OH225011   1.068   2.838   6.701  0.3447 -0.0956  0.5735
 1199TIP3    H125012   1.106   2.926   6.702  0.8465 -0.2988  2.1086
 1199TIP3    H225013   0.974   2.852   6.708  0.4112  0.3244  0.6462
 1200TIP3   OH225014   1.344   5.564  15.993 -0.4927 -0.5644 -0.6388
 1200TIP3    H125015   1.313   5.507  16.064  2.3146  0.0994  1.2984
 1200TIP3    H225016   1.302   5.648  16.010  1.1622 -0.0183  1.1978
 1201TIP3   OH225017   3.350   1.699  15.221  0.6655  0.3298 -0.2197
 1201TIP3    H125018   3.284   1.743  15.275  0.0181 -0.4063 -0.3889
 1201TIP3    H225019   3.395   1.770  15.176 -0.1953  0.8481 -0.2972
 1202TIP3   OH225020   2.371   6.282  12.006  0.0042  0.3038  0.2488
 1202TIP3    H125021   2.386   6.375  12.018  1.6148  0.0070  0.7287
 1202TIP3    H225022   2.360   6.248  12.095  2.9760 -0.4789  0.4178
 1203TIP3   OH225023   1.317   0.077   4.316 -0.3835  0.6372  0.1400
 1203TIP3    H125024   1.277   0.001   4.360 -0.9027  1.0559  0.4096
 1203TIP3    H225025   1.351   0.042   4.234  2.3798 -0.5962  1.6757
 1204TIP3   OH225026   2.322   5.166  13.746 -0.0673  0.5019 -0.2481
 1204TIP3    H125027   2.330   5.070  13.746 -0.3597  0.3902  2.6021
 1204TIP3    H225028   2.385   5.195  13.681  0.6674 -1.6012 -0.5706
 1205TIP3   OH225029   1.161   5.272   3.301  0.0183 -0.2618 -0.8188
 1205TIP3    H125030   1.254   5.280   3.279 -0.2699  1.5558 -1.5955
 1205TIP3    H225031   1.139   5.355   3.343 -0.9919 -1.1549  0.5020
 1206TIP3   OH225032   4.017   0.063   3.234  0.4008  0.2865  0.4781
 1206TIP3    H125033   4.041   0.142   3.185 -0.0520 -0.8662 -1.7520
 1206TIP3    H225034   3.927   0.044   3.206  0.4612 -0.9415  1.0511
 1207TIP3   OH225035   6.755   6.780  15.742  0.1837 -0.0749 -0.5975
 1207TIP3    H125036   6.810   6.846  15.700  2.3751  0.5531  2.7926
 1207TIP3    H225037   6.699   6.831  15.802  0.3199 -1.1013  0.4470
 1208TIP3   OH225038   2.462   1.371  15.136  0.6500  0.5364  0.2329
 1208TIP3    H125039   2.499   1.283  15.134 -1.8219 -0.5863 -1.1279
 1208TIP3    H225040   2.420   1.378  15.222 -0.4486 -0.2400 -0.2243
 1209TIP3   OH225041   4.451   5.559   4.419  0.1551  0.5273  0.1003
 1209TIP3    H125042   4.475   5.633   4.475 -2.0545 -0.2480  2.2542
 1209TIP3    H225043   4.405   5.599   4.345 -0.3729  1.3759  0.8631
 1210TIP3   OH225044   6.200   4.397   5.167 -0.1740 -0.5120  0.8551
 1210TIP3    H125045   6.241   4.473   5.127  0.7239 -1.6626 -0.5144
 1210TIP3    H225046   6.252   4.379   5.245  1.0471 -1.0751 -0.0688
 1211TIP3   OH225047   2.930   5.627  16.252 -0.3055 -0.0623 -0.0690
 1211TIP3    H125048   2.884   5.544  16.260 -0.5676  0.0370 -0.4877
 1211TIP3    H225049   3.012   5.614  16.299 -0.4086 -0.5090 -0.0073
 1212TIP3   OH225050   2.714   0.725  14.997  0.3956 -0.1495  0.0726
 1212TIP3    H125051   2.637   0.773  15.030  0.6134  0.1621  0.1300
 1212TIP3    H225052   2.753   0.784  14.932  0.6204 -0.2846  0.0854
 1213TIP3   OH225053   6.694   1.052  13.373 -0.3035 -0.6569 -0.1759
 1213TIP3    H125054   6.614   1.091  13.338 -0.4306 -0.9146 -0.1685
 1213TIP3    H225055   6.694   1.076  13.466 -0.7260 -1.2519 -0.0196
 1214TIP3   OH225056   5.536   2.053   6.727  0.0291  0.1159  0.4689
 1214TIP3    H125057   5.513   2.028   6.817 -0.0010 -1.3333  0.0958
 1214TIP3    H225058   5.466   2.016   6.674  0.5868  0.0473 -0.2329
 1215TIP3   OH225059   3.688   3.171   2.654 -0.7744 -0.3101 -0.5881
 1215TIP3    H125060   3.677   3.138   2.743 -1.7122 -0.4733 -0.7574
 1215TIP3    H225061   3.779   3.200   2.651 -1.1941  1.3489  0.9648
 1216TIP3   OH225062   3.232   1.234  16.216  0.3675  0.0831  0.4469
 1216TIP3    H125063   3.195   1.159  16.263 -0.0087  0.1205  0.2189
 1216TIP3    H225064   3.320   1.207  16.191 -0.2154 -0.7682 -0.7432
 1217TIP3   OH225065   2.531   5.201  13.092 -0.6146 -0.5157 -0.0309
 1217TIP3    H125066   2.568   5.231  13.175 -3.4385  1.5753  0.6409
 1217TIP3    H225067   2.472   5.129  13.116 -0.0607 -1.1338 -0.4999
 1218TIP3   OH225068   4.531   4.633  16.427  0.6115  0.4245 -0.4869
 1218TIP3    H125069   4.480   4.706  16.463 -0.5409  1.1415 -3.3008
 1218TIP3    H225070   4.469   4.560  16.423  0.1478  0.8814 -2.5809
 1219TIP3   OH225071   6.128   1.962  12.269 -0.2463  0.5298 -0.2409
 1219TIP3    H125072   6.116   2.056  12.251 -2.1338  0.1222 -1.3236
 1219TIP3    H225073   6.199   1.960  12.332 -0.2585  2.7175 -0.0547
 1220TIP3   OH225074   5.478   1.837  17.037  0.6325 -0.4465 -0.0476
 1220TIP3    H125075   5.507   1.752  17.004  1.0626  0.1146 -1.1836
 1220TIP3    H225076   5.395   1.853  16.992  0.1411 -0.6230  0.7823
 1221TIP3   OH225077   1.008   2.745  12.086  0.1525 -0.1147  0.4026
 1221TIP3    H125078   0.933   2.698  12.120  0.9129 -2.0216 -0.3780
 1221TIP3    H225079   1.057   2.679  12.036  0.0139  2.0383 -2.8822
 1222TIP3   OH225080   4.733   0.460   5.281 -0.2535 -0.1206  0.6061
 1222TIP3    H125081   4.687   0.501   5.354  1.2616 -1.1900  2.2572
 1222TIP3    H225082   4.701   0.370   5.280 -0.9551  0.1251 -0.6979
 1223TIP3   OH225083   0.922   1.178   5.417 -0.6114 -0.1537 -0.2490
 1223TIP3    H125084   0.937   1.184   5.323 -0.4374  1.4583 -0.1413
 1223TIP3    H225085   1.007   1.193   5.457 -0.7620 -0.3901  0.1708
 1224TIP3   OH225086   5.851   1.528   5.745  0.2646  0.4990  0.1960
 1224TIP3    H125087   5.854   1.615   5.787 -0.3550  0.6259 -0.0182
 1224TIP3    H225088   5.834   1.547   5.653 -2.9336  0.0649  0.5881
 1225TIP3   OH225089   0.053   2.884   5.478 -0.2537 -0.2348 -0.6872
 1225TIP3    H125090   0.060   2.800   5.523 -1.1959 -0.1450 -0.3491
 1225TIP3    H225091   0.061   2.949   5.547  3.3843  0.1076 -1.2517
 1226TIP3   OH225092   2.202   3.578  12.570  0.1398 -0.5808  0.1764
 1226TIP3    H125093   2.115   3.617  12.573  0.5766  0.5014 -0.6022
 1226TIP3    H225094   2.239   3.597  12.657 -0.2037 -0.5761  0.3241
 1227TIP3   OH225095   5.515   6.486   3.343 -0.2681 -0.0737 -0.2548
 1227TIP3    H125096   5.480   6.476   3.431  1.6973 -0.3644  0.5366
 1227TIP3    H225097   5.556   6.402   3.323 -0.1762  0.1852 -1.2196
 1228TIP3   OH225098   1.444   3.809  11.145 -0.0710  0.1660 -0.2683
 1228TIP3    H125099   1.349   3.815  11.155  0.0804  0.3905  1.2694
 1228TIP3    H225100   1.469   3.733  11.198  0.6836  0.5491 -0.0631
 1229TIP3   OH225101   5.877   6.765   4.850  0.0740 -0.0031 -0.3408
 1229TIP3    H125102   5.955   6.765   4.906 -0.3338  0.3738  0.2511
 1229TIP3    H225103   5.850   6.674   4.846 -0.6100  0.1180  1.1239
 1230TIP3   OH225104   5.881   3.890   1.288 -0.0537 -0.1266  0.2683
 1230TIP3    H125105   5.889   3.906   1.194 -0.8194 -1.2147 -0.0011
 1230TIP3    H225106   5.789   3.910   1.308  0.5238  1.8778  1.1702
 1231TIP3   OH225107   6.630   1.927   3.936 -0.5420  0.0087 -0.1763
 1231TIP3    H125108   6.619   1.946   3.843  0.7028 -0.3637 -0.4227
 1231TIP3    H225109   6.657   1.835   3.939  2.4997  0.7988  0.2694
 1232TIP3   OH225110   1.278   5.285   1.572 -0.4293  0.0099  0.7333
 1232TIP3    H125111   1.242   5.342   1.640 -2.2019  0.2772 -0.3684
 1232TIP3    H225112   1.279   5.340   1.493 -2.1123 -1.3802 -0.3380
 1233TIP3   OH225113   6.805   4.706  12.782  0.1585  0.3046  0.3090
 1233TIP3    H125114   6.742   4.778  12.774  0.4761  0.8662  2.4561
 1233TIP3    H225115   6.788   4.652  12.705 -2.7281  0.5964  0.6349
 1234TIP3   OH225116   2.005   0.788  11.023 -0.4281  0.2112  0.5926
 1234TIP3    H125117   2.025   0.747  10.939 -1.1071  0.7220  0.1667
 1234TIP3    H225118   1.998   0.716  11.084 -2.5380 -0.4443 -0.3272
 1235TIP3   OH225119   6.354   3.825  14.236 -0.2092  0.2702  0.6212
 1235TIP3    H125120   6.404   3.888  14.287  0.5617  0.3709 -0.2272
 1235TIP3    H225121   6.342   3.750  14.294 -2.0763  1.5804  2.0205
 1236TIP3   OH225122   5.288   4.687  10.722 -0.1622  0.1063  0.5470
 1236TIP3    H125123   5.319   4.640  10.645  1.9331 -0.4067  1.6427
 1236TIP3    H225124   5.329   4.773  10.716 -0.3689  0.2274  0.8472
 1237TIP3   OH225125   5.529   3.502  12.925 -0.6365 -0.1886  0.5644
 1237TIP3    H125126   5.528   3.407  12.926  0.3373 -0.2055  1.5827
 1237TIP3    H225127   5.593   3.525  12.856 -0.3242 -0.2858  0.8195
 1238TIP3   OH225128   1.932   5.175  14.261 -0.2201  0.2734 -0.0262
 1238TIP3    H125129   1.895   5.159  14.174 -0.2592 -1.5604  0.2937
 1238TIP3    H225130   2.027   5.179  14.246 -0.2934  1.2612 -0.3137
 1239TIP3   OH225131   4.608   1.572  16.847  0.5706 -0.8170  0.3978
 1239TIP3    H125132   4.523   1.546  16.812  1.4678 -1.5477 -1.3890
 1239TIP3    H225133   4.671   1.537  16.784  2.0762  2.0994  0.1373
 1240TIP3   OH225134   1.177   2.493   2.463  0.0185  0.9616 -0.3809
 1240TIP3    H125135   1.263   2.534   2.476  0.9227 -0.8078 -0.4223
 1240TIP3    H225136   1.135   2.501   2.549  1.1765 -0.1550  0.3368
 1241TIP3   OH225137   3.296   5.069   0.895  0.0399  0.6234 -0.6208
 1241TIP3    H125138   3.331   5.157   0.885  0.0175  0.6635 -0.3641
 1241TIP3    H225139   3.352   5.013   0.841  1.4055  0.4520  0.9052
 1242TIP3   OH225140   5.233   1.198   3.298 -0.1721 -0.0297  0.2528
 1242TIP3    H125141   5.257   1.120   3.247 -1.3811  0.6443 -1.4457
 1242TIP3    H225142   5.273   1.271   3.250 -1.1463  0.6038  0.3865
 1243TIP3   OH225143   4.743   5.556  16.524 -0.3943  0.5683  0.2221
 1243TIP3    H125144   4.657   5.556  16.566 -0.7432  0.1304 -0.4693
 1243TIP3    H225145   4.748   5.471  16.480  0.3064  0.6765  0.0774
 1244TIP3   OH225146   0.767   4.840  11.507  0.2542  0.7682  0.4533
 1244TIP3    H125147   0.719   4.759  11.489 -0.5838  1.2654  0.4140
 1244TIP3    H225148   0.850   4.829  11.462  0.4249 -0.3567  1.0062
 1245TIP3   OH225149   0.988   4.861  12.133 -0.0599  0.8900 -0.3448
 1245TIP3    H125150   1.012   4.773  12.162  1.6060  1.8574  1.4489
 1245TIP3    H225151   0.996   4.858  12.038 -0.2193 -0.9349 -0.3256
 1246TIP3   OH225152   2.242   5.498  15.605  0.0027  0.0713  0.2315
 1246TIP3    H125153   2.163   5.548  15.588  0.7875  0.8099 -1.5110
 1246TIP3    H225154   2.224   5.450  15.686 -2.5597 -0.5273 -0.6233
 1247TIP3   OH225155   0.724   5.761   0.699 -0.0009  0.4524  0.2678
 1247TIP3    H125156   0.792   5.808   0.746  0.1386 -1.2245  1.8456
 1247TIP3    H225157   0.658   5.740   0.766  0.0020 -1.6513 -0.3118
 1248TIP3   OH225158   2.705   3.940  14.538 -0.0995 -0.9810  0.4373
 1248TIP3    H125159   2.772   3.975  14.480  0.5236 -1.2664  0.9763
 1248TIP3    H225160   2.629   3.927  14.482  0.7613 -2.0817 -0.5164
 1249TIP3   OH225161   2.309   0.202   6.360 -0.5078 -0.1412 -0.2133
 1249TIP3    H125162   2.385   0.163   6.404 -0.3582 -1.3648 -1.4868
 1249TIP3    H225163   2.233   0.163   6.402 -0.3607 -1.6816 -1.3030
 1250TIP3   OH225164   4.017   3.174  11.299  0.3060 -0.2535  0.2511
 1250TIP3    H125165   3.974   3.236  11.358  1.0700 -0.2377  0.7921
 1250TIP3    H225166   3.988   3.202  11.211 -0.1004  0.2898  0.5490
 1251TIP3   OH225167   4.401   1.782   5.454  0.2500  0.3758 -0.1771
 1251TIP3    H125168   4.470   1.716   5.463 -0.6061 -0.4146  0.6517
 1251TIP3    H225169   4.320   1.733   5.445 -0.3434  1.3033 -0.1056
 1252TIP3   OH225170   5.284   1.575   0.397  0.0315 -0.2651 -0.0229
 1252TIP3    H125171   5.244   1.650   0.352  0.6397 -0.7708 -1.4480
 1252TIP3    H225172   5.376   1.600   0.407  0.1614 -0.6726 -0.1944
 1253TIP3   OH225173   4.612   1.461   0.269  0.5065  0.1109 -0.0501
 1253TIP3    H125174   4.679   1.527   0.287  1.1503 -0.5172 -0.1297
 1253TIP3    H225175   4.561   1.456   0.350  1.1419 -0.0855  0.3482
 1254TIP3   OH225176   2.197   0.072  16.453 -0.1697 -0.1625  0.5766
 1254TIP3    H125177   2.256  -0.004  16.451  2.2909  1.5475 -2.6146
 1254TIP3    H225178   2.218   0.115  16.535  1.9558 -0.5288  0.3099
 1255TIP3   OH225179   1.549   5.840  14.493 -0.1629  0.8035 -0.2812
 1255TIP3    H125180   1.506   5.876  14.415  0.1938  2.3044  0.1677
 1255TIP3    H225181   1.639   5.872  14.486  0.0435  0.3734  0.3972
 1256TIP3   OH225182   5.064   2.680   3.759  0.3992  0.5262  0.1638
 1256TIP3    H125183   5.130   2.660   3.693 -0.7534 -1.6396 -0.4373
 1256TIP3    H225184   5.109   2.670   3.843  0.9689 -0.3747 -0.2433
 1257TIP3   OH225185   4.190   3.513   6.305 -0.3979  0.0239 -0.0570
 1257TIP3    H125186   4.269   3.473   6.341  0.7284  1.4400 -0.8923
 1257TIP3    H225187   4.161   3.451   6.238  2.1432  1.1292 -2.3495
 1258TIP3   OH225188   0.583   3.057   3.668 -0.7406 -0.1107  0.0190
 1258TIP3    H125189   0.608   3.028   3.756 -2.1422 -0.7290  0.2424
 1258TIP3    H225190   0.488   3.060   3.670 -0.7551  1.2173 -1.0785
 1259TIP3   OH225191   4.164   4.217  16.030  0.9416  0.5538 -0.2420
 1259TIP3    H125192   4.210   4.256  15.956  2.0104  2.8020  1.4597
 1259TIP3    H225193   4.228   4.217  16.101 -0.7156  0.7097  1.3385
 1260TIP3   OH225194   2.340   6.653  16.582  0.0675 -0.0050 -0.1383
 1260TIP3    H125195   2.352   6.646  16.676  3.5914 -0.8585 -0.4921
 1260TIP3    H225196   2.300   6.570  16.556  1.0835 -0.6877  0.4220
 1261TIP3   OH225197   3.499   0.827  12.414 -0.7427 -0.1344 -0.1649
 1261TIP3    H125198   3.574   0.842  12.356 -1.6154 -0.3051 -1.3780
 1261TIP3    H225199   3.475   0.915  12.444  0.2664 -0.1266  0.6828
 1262TIP3   OH225200   6.265   4.963   0.243  0.2032  0.7369  0.6329
 1262TIP3    H125201   6.202   5.029   0.272  1.1210  2.1285 -0.4072
 1262TIP3    H225202   6.347   4.990   0.284  0.3731 -0.4148  1.0736
 1263TIP3   OH225203   0.212   4.562   2.735 -0.4691 -0.1933 -0.4192
 1263TIP3    H125204   0.254   4.615   2.802 -0.7248  0.9437 -1.1260
 1263TIP3    H225205   0.256   4.587   2.654 -0.9871 -0.6546 -0.8537
 1264TIP3   OH225206   6.409   2.823   5.442  0.6094  0.1722 -0.2248
 1264TIP3    H125207   6.441   2.817   5.532 -2.0768 -0.6062  0.7792
 1264TIP3    H225208   6.373   2.736   5.423  1.0283  0.3486 -2.0526
 1265TIP3   OH225209   2.435   3.866   6.538 -0.4710 -0.3837 -0.3784
 1265TIP3    H125210   2.516   3.828   6.572 -1.3842  0.6320  3.2814
 1265TIP3    H225211   2.369   3.798   6.550 -0.9066  0.1641  0.3849
 1266TIP3   OH225212   4.963   1.746  11.710  0.1368  0.0297 -0.0816
 1266TIP3    H125213   5.006   1.811  11.655  0.0553  0.0395 -0.1342
 1266TIP3    H225214   4.961   1.667  11.656  1.6983 -0.4941  0.5732
 1267TIP3   OH225215   1.264   1.564  10.499 -0.0083  0.3464 -0.1961
 1267TIP3    H125216   1.262   1.659  10.515  1.8157  0.7489 -1.9655
 1267TIP3    H225217   1.189   1.548  10.442  0.2103  0.9158 -0.6604
 1268TIP3   OH225218   0.908   3.446   4.426 -0.4280  0.3285 -0.1338
 1268TIP3    H125219   0.978   3.382   4.412  0.0679  1.0184 -1.0005
 1268TIP3    H225220   0.865   3.452   4.340 -0.5141  1.0829 -0.0422
 1269TIP3   OH225221   4.219   5.509   1.543 -0.3486  0.4682 -0.2903
 1269TIP3    H125222   4.148   5.474   1.489 -0.2447 -1.5568  0.8052
 1269TIP3    H225223   4.175   5.549   1.618 -0.3827 -1.4778  0.7882
 1270TIP3   OH225224   1.836   0.431   4.873  0.1944  0.6150  0.1242
 1270TIP3    H125225   1.892   0.357   4.894  0.6496  0.6555 -0.8780
 1270TIP3    H225226   1.751   0.392   4.851  0.3023  0.4255  0.0441
 1271TIP3   OH225227   6.460   1.225   2.386  0.3683 -0.1511  0.3405
 1271TIP3    H125228   6.431   1.134   2.397  2.6514 -1.0710 -0.6696
 1271TIP3    H225229   6.529   1.221   2.319  0.8152  2.2789  0.5488
 1272TIP3   OH225230   0.839   3.785   5.365  0.0101 -0.6988  0.0045
 1272TIP3    H125231   0.788   3.841   5.423 -0.2244  0.8386 -1.5915
 1272TIP3    H225232   0.858   3.707   5.417 -0.8495  0.2592  1.8445
 1273TIP3   OH225233   2.334   0.904  16.774 -0.2524 -0.6988  0.3397
 1273TIP3    H125234   2.304   0.823  16.815 -1.4674  0.4093  1.7552
 1273TIP3    H225235   2.409   0.877  16.720 -0.0581 -2.6113  1.4561
 1274TIP3   OH225236   1.898   4.071   2.729 -0.1264  0.1810  0.0253
 1274TIP3    H125237   1.812   4.086   2.689  0.2442 -0.7318 -1.1562
 1274TIP3    H225238   1.924   3.985   2.697 -0.0857 -0.9323  2.7556
 1275TIP3   OH225239   0.897   3.902  10.197  0.0541 -0.7289  0.0724
 1275TIP3    H125240   0.992   3.900  10.192  0.0262 -2.8317 -0.7828
 1275TIP3    H225241   0.876   3.863  10.282 -0.0441 -0.6214  0.0974
 1276TIP3   OH225242   2.974   6.130  14.870  0.3730 -0.2058 -0.1023
 1276TIP3    H125243   2.909   6.127  14.800 -2.4012  1.5899  2.1394
 1276TIP3    H225244   3.037   6.196  14.842  1.0677 -1.6528 -2.1414
 1277TIP3   OH225245   6.320   0.709   0.479 -0.5347 -0.0163 -0.0102
 1277TIP3    H125246   6.291   0.625   0.443 -0.8334 -0.0760  0.3634
 1277TIP3    H225247   6.401   0.688   0.526  0.3421  0.2127 -1.3510
 1278TIP3   OH225248   3.681   4.192  14.059 -0.1156 -0.0428 -0.2872
 1278TIP3    H125249   3.750   4.213  13.997 -1.9943 -0.2839 -2.5867
 1278TIP3    H225250   3.717   4.215  14.145  2.4323  0.6727 -1.4848
 1279TIP3   OH225251   1.256   5.508   3.885 -0.2608  0.5904  0.0953
 1279TIP3    H125252   1.213   5.591   3.903  1.7362  1.7110 -0.0116
 1279TIP3    H225253   1.193   5.458   3.833 -2.0969  1.3931  1.4573
 1280TIP3   OH225254   6.457   0.939   6.029 -0.5272  0.4540  0.2771
 1280TIP3    H125255   6.417   0.897   6.105 -1.6499  2.1573  0.7002
 1280TIP3    H225256   6.542   0.969   6.060 -0.9137  0.9930  0.8383
 1281TIP3   OH225257   1.295   3.914   2.895 -0.5297  0.3385 -0.0985
 1281TIP3    H125258   1.236   3.967   2.949 -0.9692  0.0942 -0.3351
 1281TIP3    H225259   1.304   3.832   2.944 -0.3558  0.3881 -0.0460
 1282TIP3   OH225260   3.554   2.281   6.456 -0.1112 -0.9533  0.2544
 1282TIP3    H125261   3.608   2.305   6.380 -1.3699 -1.4348 -0.8343
 1282TIP3    H225262   3.617   2.248   6.520  1.2346  1.3070  0.2460
 1283TIP3   OH225263   1.089   2.975   0.183 -0.0585 -1.0270  0.0802
 1283TIP3    H125264   1.184   2.988   0.176 -0.2421 -0.4045 -2.2247
 1283TIP3    H225265   1.080   2.887   0.219  1.4484 -1.6107 -0.8288
 1284TIP3   OH225266   5.650   2.215  14.282  0.7801 -0.0661  0.3895
 1284TIP3    H125267   5.715   2.227  14.212 -0.0144  1.1500 -0.1570
 1284TIP3    H225268   5.596   2.294  14.279 -1.5496 -1.5780 -0.0228
 1285TIP3   OH225269   5.828   1.607  14.511  0.2031  0.0539  0.0502
 1285TIP3    H125270   5.737   1.577  14.518  0.8061 -1.6496  1.6302
 1285TIP3    H225271   5.860   1.567  14.431  0.0963 -1.0223  0.5232
 1286TIP3   OH225272   0.446   3.445   1.401 -0.5316  0.4134 -0.1927
 1286TIP3    H125273   0.357   3.435   1.432  0.7462 -1.9918  3.3446
 1286TIP3    H225274   0.481   3.519   1.450 -0.2641  0.7150 -0.8202
 1287TIP3   OH225275   0.108   5.770  16.628 -0.5102  0.4047 -0.0553
 1287TIP3    H125276   0.177   5.734  16.573  0.8096 -0.0646  1.8102
 1287TIP3    H225277   0.036   5.708  16.620  0.0091 -0.1521 -0.5024
 1288TIP3   OH225278   6.401   1.320   2.102  0.8803  0.4756 -0.0596
 1288TIP3    H125279   6.479   1.273   2.133  0.7417 -0.7079 -1.3992
 1288TIP3    H225280   6.358   1.259   2.042  0.4270  2.1543 -1.5424
 1289TIP3   OH225281   0.612   1.583   0.670 -0.2885  0.0351 -0.0183
 1289TIP3    H125282   0.611   1.533   0.589 -1.4462  0.6466 -0.4076
 1289TIP3    H225283   0.519   1.591   0.694 -0.2113  2.5185 -0.3149
 1290TIP3   OH225284   0.429   3.377   0.931  0.2184  0.7317  0.1212
 1290TIP3    H125285   0.338   3.406   0.919  0.5360  1.5189 -0.4120
 1290TIP3    H225286   0.457   3.421   1.011  0.1620  0.5508  0.2418
 1291TIP3   OH225287   6.594   3.836   4.926  0.2996 -0.8892  0.0188
 1291TIP3    H125288   6.592   3.805   5.017  0.0980 -2.2922 -0.4437
 1291TIP3    H225289   6.508   3.812   4.891 -0.3822  1.3664 -0.0254
 1292TIP3   OH225290   3.728   0.406  15.141 -0.0313 -0.6348  0.2526
 1292TIP3    H125291   3.763   0.490  15.112  1.6142 -2.0485 -2.2719
 1292TIP3    H225292   3.728   0.412  15.237  2.0878  1.4655  0.2269
 1293TIP3   OH225293   1.548   4.263  13.411 -0.3494 -0.4196 -0.3750
 1293TIP3    H125294   1.608   4.308  13.351 -2.5317  1.3702 -1.3492
 1293TIP3    H225295   1.599   4.252  13.491  1.2819  1.0421 -1.1347
 1294TIP3   OH225296   0.031   3.187   1.868  0.5561  0.1619 -0.4799
 1294TIP3    H125297   0.036   3.277   1.901  1.3913  0.0578 -0.3108
 1294TIP3    H225298  -0.046   3.150   1.912  0.9360  0.4053  0.4265
 1295TIP3   OH225299   2.070   2.038  15.284  0.2663 -0.0801 -0.6374
 1295TIP3    H125300   2.122   2.119  15.285  1.4998 -0.8488  0.0445
 1295TIP3    H225301   1.991   2.059  15.334  0.9541  0.4776  0.2337
 1296TIP3   OH225302   1.250   4.065   3.675 -0.1237  0.2098 -0.6013
 1296TIP3    H125303   1.158   4.042   3.689  0.0370  0.3508  0.8551
 1296TIP3    H225304   1.297   3.983   3.691  0.1149  0.5032  0.2340
 1297TIP3   OH225305   4.139   4.537  16.068 -0.2198 -0.0861 -0.2703
 1297TIP3    H125306   4.189   4.483  16.006  0.4845  2.0451 -1.6888
 1297TIP3    H225307   4.199   4.549  16.142  0.1587 -0.1321 -0.5629
 1298TIP3   OH225308   6.048   3.565   0.302  0.4240  0.4748 -0.0483
 1298TIP3    H125309   6.036   3.473   0.276  0.7285  0.3474  0.2566
 1298TIP3    H225310   5.988   3.576   0.376 -0.5985  0.8942 -0.9059
 1299TIP3   OH225311   4.840   5.364  15.703 -0.1197  0.3789 -0.2977
 1299TIP3    H125312   4.803   5.433  15.758 -2.0661  0.8872 -2.1007
 1299TIP3    H225313   4.871   5.410  15.625  0.5944 -0.5503 -0.5678
 1300TIP3   OH225314   0.757   5.463   4.852  0.0949 -0.0123 -0.4487
 1300TIP3    H125315   0.819   5.498   4.789 -0.0296 -0.4265 -0.8084
 1300TIP3    H225316   0.678   5.515   4.839  0.1238  0.0149 -0.5167
 1301TIP3   OH225317   5.084   0.764   4.094  0.1820 -0.8712 -0.2561
 1301TIP3    H125318   5.027   0.813   4.154  0.2840 -1.2566  0.1671
 1301TIP3    H225319   5.167   0.758   4.140  0.8564  0.4701 -1.2607
 1302TIP3   OH225320   0.238   0.241   3.797 -0.1660 -0.4091  0.0523
 1302TIP3    H125321   0.185   0.321   3.784  1.0177  0.4802  0.5117
 1302TIP3    H225322   0.288   0.232   3.716  0.2793 -0.2238  0.3019
 1303TIP3   OH225323   4.167   1.617   3.253 -0.1440  0.6066 -0.4389
 1303TIP3    H125324   4.088   1.585   3.295  1.5178 -0.2470  2.3096
 1303TIP3    H225325   4.182   1.703   3.293  0.5434  0.5633 -0.5870
 1304TIP3   OH225326   5.574   0.365   1.741 -0.5851  0.0996  0.1848
 1304TIP3    H125327   5.634   0.392   1.811 -1.0912  1.3598  0.1423
 1304TIP3    H225328   5.553   0.445   1.694  0.0333 -0.7600 -1.6794
 1305TIP3   OH225329   1.630   0.509   0.273  0.2585  0.0784  0.0175
 1305TIP3    H125330   1.540   0.479   0.275 -0.0925  1.0392 -0.4582
 1305TIP3    H225331   1.642   0.543   0.184  0.9979  0.2166  0.1596
 1306TIP3   OH225332   5.053   2.779   5.679  0.5068  0.0317 -1.4004
 1306TIP3    H125333   4.975   2.834   5.678  0.9074  0.6144 -1.4560
 1306TIP3    H225334   5.120   2.834   5.719  0.1120 -1.5447  1.7316
 1307TIP3   OH225335   1.441   3.893   1.380 -0.4654 -0.0192 -0.4623
 1307TIP3    H125336   1.357   3.861   1.348 -2.1120  3.3844  0.0435
 1307TIP3    H225337   1.474   3.822   1.435 -3.1716 -1.3698 -0.4225
 1308TIP3   OH225338   3.714   2.558  11.183 -0.1572  0.3554  0.2527
 1308TIP3    H125339   3.746   2.529  11.098  1.0703  0.2182  0.7320
 1308TIP3    H225340   3.694   2.651  11.171 -0.0640  0.3156 -0.2080
 1309TIP3   OH225341   6.739   0.140  11.242  0.6977 -0.3052  0.3127
 1309TIP3    H125342   6.722   0.114  11.151 -2.5990 -0.4672  0.8527
 1309TIP3    H225343   6.780   0.226  11.234 -2.6036  1.3358 -1.4800
 1310TIP3   OH225344   3.765   6.519  14.935 -0.2551 -0.1705  0.0059
 1310TIP3    H125345   3.824   6.585  14.897 -0.8805  0.4851  0.1579
 1310TIP3    H225346   3.755   6.545  15.027 -1.7329  0.4337 -0.3038
 1311TIP3   OH225347   2.152   6.106   0.005  0.3402 -0.2925 -0.3183
 1311TIP3    H125348   2.208   6.038   0.042 -0.5849  0.2162  2.2007
 1311TIP3    H225349   2.068   6.063  -0.010  0.1899 -0.0770 -0.1097
 1312TIP3   OH225350   1.965   0.594  14.918  0.1250 -0.2154  0.0202
 1312TIP3    H125351   2.040   0.588  14.978  0.6920 -0.1318 -0.6716
 1312TIP3    H225352   1.888   0.584  14.975  0.6637 -0.5638  0.7029
 1313TIP3   OH225353   2.201   5.440  10.401 -0.2473  0.0793  0.0419
 1313TIP3    H125354   2.160   5.390  10.472 -1.7906  1.0948 -0.0796
 1313TIP3    H225355   2.172   5.530  10.416  1.5462  0.7738 -0.3924
 1314TIP3   OH225356   1.666   5.304  15.684 -0.7071 -0.0403 -0.1992
 1314TIP3    H125357   1.740   5.288  15.626  0.1029  0.0287  0.7917
 1314TIP3    H225358   1.625   5.383  15.650 -0.9561 -0.6486 -1.3660
 1315TIP3   OH225359   4.532   4.138   4.491  0.1158  0.0017  0.3368
 1315TIP3    H125360   4.523   4.191   4.570  2.0622 -0.1592  0.7015
 1315TIP3    H225361   4.566   4.054   4.522 -0.8805 -0.7390 -0.4856
 1316TIP3   OH225362   2.349   6.143  15.153 -0.1870  0.1606  0.8922
 1316TIP3    H125363   2.438   6.140  15.118  0.0622 -2.0634  1.5752
 1316TIP3    H225364   2.301   6.196  15.090  0.7545 -1.8059 -1.6653
 1317TIP3   OH225365   6.538   2.862   0.254 -0.1182  0.7097  0.3687
 1317TIP3    H125366   6.443   2.847   0.254  0.0950 -0.8960 -1.1631
 1317TIP3    H225367   6.559   2.883   0.163  0.9039  1.8752  0.8510
 1318TIP3   OH225368   0.067   4.191  11.484  0.0476  0.8472 -0.5837
 1318TIP3    H125369  -0.008   4.242  11.452 -1.0523  0.6202  1.5120
 1318TIP3    H225370   0.060   4.108  11.438 -1.2023  0.7063 -0.1666
 1319TIP3   OH225371   4.108   0.054   2.297  0.3590  0.1492 -0.4079
 1319TIP3    H125372   4.170   0.108   2.347  0.2087  0.3856 -0.4755
 1319TIP3    H225373   4.048   0.117   2.257  0.6228 -0.0134 -1.0870
 1320TIP3   OH225374   1.914   0.694  16.378 -0.8932 -0.2355  0.1060
 1320TIP3    H125375   1.872   0.732  16.455 -1.1192 -0.6199  0.1750
 1320TIP3    H225376   1.912   0.599  16.393  0.0215 -0.2646  0.1226
 1321TIP3   OH225377   4.555   3.471  13.494  0.1490 -0.0395 -0.6080
 1321TIP3    H125378   4.574   3.416  13.417 -0.9479 -1.3302  0.0131
 1321TIP3    H225379   4.602   3.428  13.566 -0.8792 -0.2879 -0.0761
 1322TIP3   OH225380   3.624   6.143   6.367  0.6654 -0.1036  0.6682
 1322TIP3    H125381   3.537   6.155   6.331  1.1557  0.8816 -0.2589
 1322TIP3    H225382   3.639   6.221   6.420  0.7005 -0.6218  1.4288
 1323TIP3   OH225383   1.997   5.205  15.998 -0.3478  1.0202  0.2916
 1323TIP3    H125384   1.916   5.175  16.038 -1.5030  0.7153 -2.1012
 1323TIP3    H225385   2.065   5.151  16.038 -1.6311 -0.4583  0.5495
 1324TIP3   OH225386   3.914   3.867   3.479 -0.0246  0.3866 -0.0510
 1324TIP3    H125387   3.878   3.888   3.393 -0.2562 -1.5794 -0.4870
 1324TIP3    H225388   4.005   3.843   3.461  0.4834  1.7595  0.5410
 1325TIP3   OH225389   3.144   4.465   4.150 -0.0676  0.0995 -0.2224
 1325TIP3    H125390   3.207   4.421   4.093  0.0996  0.4150 -0.2841
 1325TIP3    H225391   3.112   4.539   4.099  0.3132  0.5652  0.1979
 1326TIP3   OH225392   6.635   2.296   5.653 -0.0997 -0.5622 -0.1922
 1326TIP3    H125393   6.612   2.386   5.629 -1.6384 -0.8991 -0.0363
 1326TIP3    H225394   6.551   2.253   5.668  0.5820 -2.2513 -1.0257
 1327TIP3   OH225395   6.182   5.915  13.090 -0.3525  0.3375 -0.2585
 1327TIP3    H125396   6.153   5.890  13.003  1.3407  0.7323 -0.9814
 1327TIP3    H225397   6.252   5.979  13.075  2.2254 -1.8999  1.1884
 1328TIP3   OH225398   5.839   0.248   5.416 -0.5750 -0.0043 -0.3886
 1328TIP3    H125399   5.877   0.173   5.371  0.1198  1.7551 -2.9472
 1328TIP3    H225400   5.751   0.256   5.379 -0.8372  0.1788  0.2519
 1329TIP3   OH225401   4.727   5.669   3.223  0.2585 -1.2319 -0.3084
 1329TIP3    H125402   4.725   5.740   3.288 -1.4468 -1.6013  0.0912
 1329TIP3    H225403   4.785   5.603   3.261 -1.1381 -1.6866  1.1777
 1330TIP3   OH225404   0.073   1.844   6.062 -0.0880  0.3055  0.0762
 1330TIP3    H125405   0.064   1.928   6.017 -2.2771  1.0606  1.7699
 1330TIP3    H225406   0.131   1.862   6.136  0.0249  0.1312  0.0314
 1331TIP3   OH225407   5.863   6.399  17.008  0.1550  0.0602  0.1645
 1331TIP3    H125408   5.938   6.380  17.065  0.3252  0.4854  0.0881
 1331TIP3    H225409   5.895   6.468  16.950 -0.5690  0.8466  0.6795
 1332TIP3   OH225410   6.078   5.055  15.364 -0.3231  0.1203 -0.1233
 1332TIP3    H125411   6.172   5.067  15.374 -0.3121 -0.3432  0.3881
 1332TIP3    H225412   6.045   5.141  15.338  0.4836 -0.1720 -2.2267
 1333TIP3   OH225413   6.271   2.448  13.227 -0.0400  0.0608 -0.1551
 1333TIP3    H125414   6.224   2.428  13.307 -0.0060  0.4005 -0.0490
 1333TIP3    H225415   6.351   2.396  13.232  0.2423  0.5268  0.3150
 1334TIP3   OH225416   6.660   5.469   0.619 -0.4102  0.6636 -0.1368
 1334TIP3    H125417   6.650   5.411   0.544 -0.1750  1.4560 -0.7867
 1334TIP3    H225418   6.734   5.433   0.668 -0.7121  0.0101 -0.1402
 1335TIP3   OH225419   6.407   3.044   5.274 -0.2416 -0.3617 -0.0044
 1335TIP3    H125420   6.403   2.965   5.328  2.0222 -1.1201 -0.8179
 1335TIP3    H225421   6.484   3.031   5.219 -0.7622  1.7103 -1.3235
 1336TIP3   OH225422   5.566   1.388  16.563 -0.3342  0.8751  0.1822
 1336TIP3    H125423   5.547   1.295  16.567  1.0051  0.4493 -1.6234
 1336TIP3    H225424   5.489   1.427  16.523 -0.4342  0.3416 -0.1575
 1337TIP3   OH225425   0.885   3.019  16.096  0.5541 -0.1067  0.0175
 1337TIP3    H125426   0.861   2.927  16.086 -0.1746  0.2240 -1.4661
 1337TIP3    H225427   0.829   3.050  16.167  1.5253 -1.0220  1.2381
 1338TIP3   OH225428   2.081   4.126   4.274  0.4498  0.5183 -0.6711
 1338TIP3    H125429   2.076   4.062   4.345  0.4468  1.4377  0.1734
 1338TIP3    H225430   2.174   4.143   4.265  0.3377  2.0893  0.6880
 1339TIP3   OH225431   5.514   5.457  15.258  0.0001 -0.4073 -0.0006
 1339TIP3    H125432   5.593   5.502  15.289 -0.8511  1.4047 -0.3242
 1339TIP3    H225433   5.448   5.474  15.325 -0.6368 -0.2188 -0.6592
 1340TIP3   OH225434   3.000   4.817  13.051 -0.1188 -0.5271 -0.3204
 1340TIP3    H125435   3.054   4.738  13.053  1.9679  0.8555  0.3631
 1340TIP3    H225436   2.911   4.784  13.038  0.9306 -2.8561 -2.5241
 1341TIP3   OH225437   0.004   4.703   2.094  0.2604 -0.6527 -0.1776
 1341TIP3    H125438  -0.026   4.621   2.056  3.4925  0.0749 -5.3368
 1341TIP3    H225439  -0.067   4.765   2.078  0.3594 -1.0884 -2.7162
 1342TIP3   OH225440   4.040   1.426   0.480  0.0164  0.4032  0.6668
 1342TIP3    H125441   3.961   1.473   0.505 -1.2403 -1.0329 -0.4081
 1342TIP3    H225442   4.057   1.366   0.553 -0.9486 -0.5279  0.1512
 1343TIP3   OH225443   0.297   1.854   4.788 -0.5665  0.0303  0.4668
 1343TIP3    H125444   0.268   1.803   4.712 -0.8721  2.4834 -1.1600
 1343TIP3    H225445   0.307   1.789   4.857 -0.4892 -2.2983 -1.5817
 1344TIP3   OH225446   3.274   3.144   1.362  0.1001 -0.0396 -0.2689
 1344TIP3    H125447   3.254   3.200   1.437  1.8819 -0.3865  0.5381
 1344TIP3    H225448   3.364   3.116   1.378 -0.8204 -3.4681 -0.4109
 1345TIP3   OH225449   5.327   2.180  10.740 -0.1512  0.6760 -0.1261
 1345TIP3    H125450   5.250   2.201  10.793 -0.3231 -1.5564  0.6081
 1345TIP3    H225451   5.401   2.208  10.793 -0.4011  2.4975 -0.6746
 1346TIP3   OH225452   5.891   2.275   2.285 -0.1246  0.4022 -0.4124
 1346TIP3    H125453   5.924   2.198   2.239  2.9683  0.8786  0.7519
 1346TIP3    H225454   5.897   2.346   2.221  1.1288  0.4496 -0.2692
 1347TIP3   OH225455   6.652   2.726  15.015  0.0698 -0.2741 -0.4495
 1347TIP3    H125456   6.691   2.813  15.021 -0.2193 -0.2490  2.2483
 1347TIP3    H225457   6.708   2.671  15.070 -1.1079 -1.2403 -0.1776
 1348TIP3   OH225458   5.411   1.901   4.870  0.3952 -0.4185 -0.4206
 1348TIP3    H125459   5.478   1.969   4.871  0.3291 -0.3494  0.8464
 1348TIP3    H225460   5.339   1.939   4.819  0.8010  0.0095 -0.6850
 1349TIP3   OH225461   0.863   3.426  10.568 -0.0168  0.0098  0.1661
 1349TIP3    H125462   0.877   3.387  10.654  1.1643 -0.5792 -0.2663
 1349TIP3    H225463   0.836   3.516  10.586 -2.4835 -0.8345  1.1930
 1350TIP3   OH225464   4.198   5.200  13.824  1.2139  0.4924 -0.0292
 1350TIP3    H125465   4.231   5.114  13.798  0.0286  0.0508 -0.1430
 1350TIP3    H225466   4.147   5.182  13.903 -0.1154  0.8699 -0.7793
 1351TIP3   OH225467   0.098   2.629   5.898 -0.0333 -0.0002  0.0731
 1351TIP3    H125468   0.151   2.684   5.956 -1.0585  1.8579 -0.6697
 1351TIP3    H225469   0.044   2.576   5.958  2.2894 -1.6965  0.8389
 1352TIP3   OH225470   3.532   1.408  14.134 -0.6767 -0.5782 -0.0938
 1352TIP3    H125471   3.540   1.312  14.132 -2.5659 -0.8542  1.6451
 1352TIP3    H225472   3.451   1.426  14.088  1.4197  0.6402 -3.7168
 1353TIP3   OH225473   6.077   6.724  15.659  0.4520  0.0154 -0.2623
 1353TIP3    H125474   6.131   6.751  15.585  0.1273  1.1437 -0.1200
 1353TIP3    H225475   5.998   6.778  15.651  0.6904  0.6495  1.2496
 1354TIP3   OH225476   4.928   2.716  11.662  0.3041  0.8211 -0.4683
 1354TIP3    H125477   4.841   2.754  11.675  0.6403  1.2054  0.9225
 1354TIP3    H225478   4.911   2.625  11.635 -0.6156  0.0330  2.3760
 1355TIP3   OH225479   1.971   1.293   3.609 -0.3677 -0.2184 -0.0735
 1355TIP3    H125480   2.033   1.221   3.597 -1.6572 -1.2705 -0.8267
 1355TIP3    H225481   2.024   1.369   3.632  1.1199 -1.2037 -0.1800
 1356TIP3   OH225482   2.128   1.809   3.081 -0.4251  1.2375 -0.0998
 1356TIP3    H125483   2.157   1.747   3.014 -0.0939  1.7732 -0.4678
 1356TIP3    H225484   2.083   1.756   3.146 -0.0987  0.6079 -0.3821
 1357TIP3   OH225485   3.976   6.719  11.582  0.2369 -0.2295 -0.2644
 1357TIP3    H125486   3.921   6.641  11.592 -0.8464  0.5731  0.2131
 1357TIP3    H225487   3.926   6.789  11.622  0.7258  0.9352 -1.5976
 1358TIP3   OH225488   5.158   0.185   2.716  0.1723  0.2737  0.0249
 1358TIP3    H125489   5.218   0.193   2.643 -0.7217  0.3734 -0.7205
 1358TIP3    H225490   5.214   0.175   2.793  1.1429  1.1220 -0.5473
 1359TIP3   OH225491   4.334   5.973  10.575 -0.0018  0.5954 -0.2722
 1359TIP3    H125492   4.263   6.002  10.517 -1.1943 -0.5733  0.5408
 1359TIP3    H225493   4.383   5.909  10.524 -1.0561 -0.4383 -0.0220
 1360TIP3   OH225494   2.010   2.822  12.958 -0.0685  0.5773  0.2732
 1360TIP3    H125495   2.091   2.845  13.005  0.7649 -1.1573 -0.2304
 1360TIP3    H225496   1.940   2.840  13.021  1.1005 -3.9976  3.3874
 1361TIP3   OH225497   1.671   5.266   0.876  0.0653  0.1805  0.0439
 1361TIP3    H125498   1.639   5.310   0.955  1.6903  2.1015 -0.3068
 1361TIP3    H225499   1.643   5.322   0.804 -2.6451 -2.2571 -1.0109
 1362TIP3   OH225500   5.377   2.724  12.529 -0.2653  0.5956 -0.3608
 1362TIP3    H125501   5.337   2.701  12.445  1.9596  0.2326 -1.4011
 1362TIP3    H225502   5.345   2.813  12.547  0.2371  1.2257 -2.3124
 1363TIP3   OH225503   5.361   1.220  13.443 -0.2639 -0.0480 -0.2626
 1363TIP3    H125504   5.362   1.307  13.483  1.5540  1.1438 -2.6721
 1363TIP3    H225505   5.453   1.194  13.442 -0.2858 -0.2508 -3.0405
 1364TIP3   OH225506   5.837   4.502   0.044 -1.2244 -0.1643  0.7816
 1364TIP3    H125507   5.764   4.472   0.099 -0.7180 -0.4316  1.3182
 1364TIP3    H225508   5.914   4.496   0.100 -0.6200 -0.8697 -0.0874
 1365TIP3   OH225509   1.144   3.558  16.687 -0.4419 -0.1620  0.5679
 1365TIP3    H125510   1.089   3.528  16.614 -1.1545  0.0357  1.0179
 1365TIP3    H225511   1.119   3.649  16.700  1.2405  0.4667 -0.3476
 1366TIP3   OH225512   1.769   5.237   4.654  0.0474 -0.0155  0.2437
 1366TIP3    H125513   1.757   5.246   4.749 -1.1932 -0.6145  0.1644
 1366TIP3    H225514   1.680   5.240   4.619  0.4722 -0.2323 -0.8702
 1367TIP3   OH225515   2.208   3.150   0.842 -0.4018 -0.0916  0.1798
 1367TIP3    H125516   2.223   3.175   0.750  0.3380  0.7169  0.4975
 1367TIP3    H225517   2.114   3.162   0.855 -0.3100  1.1582 -0.1076
 1368TIP3   OH225518   5.959   3.680   0.010 -0.3417  0.2787 -0.4024
 1368TIP3    H125519   6.036   3.695  -0.045 -0.6287  0.5717 -0.7385
 1368TIP3    H225520   5.908   3.761   0.001  0.5266  1.1393  1.8444
 1369TIP3   OH225521   1.663   6.380  13.827 -0.3448  0.2884  0.0848
 1369TIP3    H125522   1.653   6.463  13.874 -1.8901 -0.2643  0.7881
 1369TIP3    H225523   1.719   6.327  13.883  2.5256  1.5200 -1.3636
 1370TIP3   OH225524   5.519   2.250  12.320  0.1045 -0.3932  0.3531
 1370TIP3    H125525   5.564   2.334  12.332  0.6865 -0.7084  0.4143
 1370TIP3    H225526   5.537   2.201  12.400  0.4617 -0.8865 -0.0208
 1371TIP3   OH225527   1.573   4.180   6.580  0.2266 -0.6493  0.1825
 1371TIP3    H125528   1.550   4.255   6.635 -2.2350 -1.2033  0.0330
 1371TIP3    H225529   1.651   4.143   6.621  1.0529  1.4988  0.6983
 1372TIP3   OH225530   4.463   6.228  12.612  0.0673  0.4080  0.8186
 1372TIP3    H125531   4.481   6.145  12.569  1.4600 -0.0267  2.1378
 1372TIP3    H225532   4.509   6.293  12.559 -0.4577  0.2591  0.1697
 1373TIP3   OH225533   3.489   0.794   1.908  0.0297  0.2501  0.4026
 1373TIP3    H125534   3.477   0.738   1.984 -0.3274 -0.7695 -0.3921
 1373TIP3    H225535   3.582   0.784   1.885 -0.0255  0.0036  0.2828
 1374TIP3   OH225536   5.669   0.172  14.052  0.6841 -0.3071 -0.3665
 1374TIP3    H125537   5.654   0.123  13.971  2.1956 -1.2269 -0.1221
 1374TIP3    H225538   5.582   0.202  14.078  0.2071  0.4033 -2.5575
 1375TIP3   OH225539   1.538   1.772  10.553 -0.2274 -0.0173  0.0778
 1375TIP3    H125540   1.546   1.677  10.566 -1.8751 -0.0357  1.3810
 1375TIP3    H225541   1.444   1.788  10.559 -0.0528  1.6075 -1.0394
 1376TIP3   OH225542   1.126   2.358  10.870 -0.8314  0.1660 -0.4861
 1376TIP3    H125543   1.061   2.413  10.826 -0.8682  1.2293  0.8387
 1376TIP3    H225544   1.188   2.420  10.908 -1.6772 -0.5761  2.3025
 1377TIP3   OH225545   3.552   0.090  13.161 -0.2419 -0.1408  0.1115
 1377TIP3    H125546   3.557   0.018  13.225 -0.6200 -1.7409 -1.5668
 1377TIP3    H225547   3.615   0.065  13.094 -0.7810  0.8363 -0.7691
 1378TIP3   OH225548   2.659   5.088  12.505  0.1550 -0.2047 -0.3093
 1378TIP3    H125549   2.681   5.018  12.443 -1.3671 -1.2197  0.2186
 1378TIP3    H225550   2.743   5.114  12.543  0.6676 -3.0189  0.7657
 1379TIP3   OH225551   5.653   6.181  16.966 -0.6173 -0.4820 -0.2129
 1379TIP3    H125552   5.699   6.260  16.995 -0.5379 -1.1658  1.6652
 1379TIP3    H225553   5.560   6.203  16.975 -0.5932 -0.7497  0.8102
 1380TIP3   OH225554   3.760   4.819  11.683  0.0629 -0.1799 -0.0036
 1380TIP3    H125555   3.819   4.776  11.745  0.1841  0.4188  0.2966
 1380TIP3    H225556   3.816   4.878  11.633 -0.4827  1.4570  1.2307
 1381TIP3   OH225557   0.738   2.932  11.776  0.1274 -0.1460  0.0725
 1381TIP3    H125558   0.720   2.884  11.695  0.0907 -0.2018  0.1133
 1381TIP3    H225559   0.829   2.911  11.796  0.4559  0.6800 -0.4986
 1382TIP3   OH225560   2.946   2.337   1.066 -0.5145 -0.7591  0.2947
 1382TIP3    H125561   3.004   2.342   0.989 -0.5333 -0.9233  0.2694
 1382TIP3    H225562   2.909   2.425   1.074  1.1860 -0.0860  1.4285
 1383TIP3   OH225563   0.042   1.301   0.903 -0.0913  0.4312 -0.3329
 1383TIP3    H125564  -0.031   1.363   0.897  0.5140  1.0013 -2.4616
 1383TIP3    H225565   0.023   1.234   0.838 -0.0599 -0.9526  1.0252
 1384TIP3   OH225566   4.063   6.237  16.961  0.1998 -0.1626 -0.4646
 1384TIP3    H125567   4.107   6.314  16.998 -0.1970 -1.1815  2.3575
 1384TIP3    H225568   4.135   6.179  16.936  0.5030 -0.2525  0.5691
 1385TIP3   OH225569   2.210   1.629   1.947 -0.5317  0.0211 -0.1179
 1385TIP3    H125570   2.126   1.649   1.989  0.8401  2.8835  1.5998
 1385TIP3    H225571   2.269   1.611   2.021  0.8702  0.3851 -1.1148
 1386TIP3   OH225572   3.696   6.098  11.269 -0.0652  0.0771  0.0117
 1386TIP3    H125573   3.730   6.020  11.312 -0.6385  0.3399  0.9778
 1386TIP3    H225574   3.699   6.166  11.336 -2.9556 -0.0139  0.3696
 1387TIP3   OH225575   0.128   2.624  14.455 -0.5128 -0.5975 -0.3374
 1387TIP3    H125576   0.135   2.628  14.359 -1.4622 -0.5820 -0.4141
 1387TIP3    H225577   0.050   2.676  14.476  0.6093  0.7975  0.5948
 1388TIP3   OH225578   2.642   3.850  14.959  0.1337  0.5075 -0.1781
 1388TIP3    H125579   2.645   3.806  14.874 -2.4465  1.2062 -0.7003
 1388TIP3    H225580   2.566   3.812  15.003  1.7199 -0.2407  2.1288
 1389TIP3   OH225581   2.200   2.209   2.873  0.0280  0.2938  0.0081
 1389TIP3    H125582   2.264   2.229   2.804  0.1223  0.6119  0.1837
 1389TIP3    H225583   2.115   2.218   2.830  0.0780  0.7585 -0.0049
 1390TIP3   OH225584   6.545   1.082   1.794  0.2597 -0.4034  0.0436
 1390TIP3    H125585   6.498   1.062   1.875  1.1285  0.3827  0.7691
 1390TIP3    H225586   6.482   1.065   1.724 -0.8627 -0.0535  0.9542
 1391TIP3   OH225587   1.442   1.270   3.572 -0.7204 -0.1777  0.3073
 1391TIP3    H125588   1.461   1.176   3.584 -1.7343 -0.1767  2.5634
 1391TIP3    H225589   1.347   1.275   3.576 -0.8206  0.7566 -2.0381
 1392TIP3   OH225590   6.171   1.023  15.202  0.7293 -0.3105  1.0349
 1392TIP3    H125591   6.211   1.050  15.119  0.0059 -0.8282  0.4934
 1392TIP3    H225592   6.126   1.101  15.233  0.7620 -0.1874  0.7796
 1393TIP3   OH225593   4.418   4.849   0.798 -0.2629 -0.1968 -0.5154
 1393TIP3    H125594   4.326   4.833   0.819 -0.8517  0.8407 -2.1331
 1393TIP3    H225595   4.418   4.869   0.704  1.5720  0.1878 -0.4672
 1394TIP3   OH225596   1.046   2.498   5.916 -0.2733  0.3458  0.2296
 1394TIP3    H125597   1.062   2.537   6.002  1.7933  2.4667 -0.9778
 1394TIP3    H225598   0.979   2.554   5.876  1.2783  1.5985 -0.7652
 1395TIP3   OH225599   0.369   5.454  10.309 -0.1796  0.2342 -0.2576
 1395TIP3    H125600   0.452   5.438  10.264 -0.7017 -1.8059 -0.6161
 1395TIP3    H225601   0.372   5.546  10.334  1.7631  0.4499 -1.1189
 1396TIP3   OH225602   2.330   1.678  15.779 -0.6618  0.1017  0.1825
 1396TIP3    H125603   2.337   1.654  15.871  0.5480  1.4347  0.4748
 1396TIP3    H225604   2.243   1.717  15.770 -1.0165 -0.5781  0.6145
 1397TIP3   OH225605   2.363   5.459  14.894  0.2903  0.3959  0.1612
 1397TIP3    H125606   2.387   5.498  14.978 -0.4271  0.9017  0.1435
 1397TIP3    H225607   2.273   5.429  14.906 -0.0802  1.1328 -0.6498
 1398TIP3   OH225608   3.579   5.498   4.883  0.4720 -0.2385 -0.2565
 1398TIP3    H125609   3.633   5.449   4.821  0.3153  0.7936 -1.2625
 1398TIP3    H225610   3.560   5.580   4.837 -0.5782  0.0964  0.7406
 1399TIP3   OH225611   1.092   6.219   4.070  0.4064 -0.5802  0.1238
 1399TIP3    H125612   1.164   6.247   4.014 -0.8316 -0.9170 -1.7258
 1399TIP3    H225613   1.043   6.299   4.088  0.8983 -0.4448  0.8955
 1400TIP3   OH225614   0.674   0.425  16.841 -0.2424  0.3730  0.2130
 1400TIP3    H125615   0.666   0.362  16.769  0.6370  1.1072 -0.5509
 1400TIP3    H225616   0.599   0.483  16.829 -0.7484 -0.2003  0.5895
 1401TIP3   OH225617   0.898   5.308   2.132  0.2558 -0.0509 -0.2250
 1401TIP3    H125618   0.846   5.230   2.149  1.2161 -0.3822  1.3876
 1401TIP3    H225619   0.848   5.380   2.170  0.3764 -0.1995  0.2234
 1402TIP3   OH225620   0.759   5.028   5.792  0.2555  0.2384  0.3698
 1402TIP3    H125621   0.850   5.046   5.769  0.0925  1.5971  0.7120
 1402TIP3    H225622   0.736   5.096   5.855 -0.9941 -0.0973  0.3061
 1403TIP3   OH225623   1.867   4.551   1.325 -0.0684  0.4271 -0.4474
 1403TIP3    H125624   1.801   4.483   1.335 -0.8057  1.1598 -0.1792
 1403TIP3    H225625   1.864   4.599   1.408 -0.0927  1.2347 -0.9063
 1404TIP3   OH225626   2.129   2.174   4.510 -0.4270 -0.0485 -0.0524
 1404TIP3    H125627   2.088   2.088   4.494  0.5157 -0.8234  1.5001
 1404TIP3    H225628   2.059   2.227   4.549 -0.4355 -0.8302  1.0383
 1405TIP3   OH225629   2.319   4.450  14.214  0.2641 -0.3435 -0.4863
 1405TIP3    H125630   2.228   4.428  14.233  0.4805 -1.2299 -0.4078
 1405TIP3    H225631   2.314   4.531  14.164 -0.4417  0.7001  1.2108
 1406TIP3   OH225632   2.724   5.043   1.293  0.1519 -0.0310  0.3624
 1406TIP3    H125633   2.790   5.029   1.360  0.1498 -0.1270  0.3448
 1406TIP3    H225634   2.768   5.020   1.211  0.5023  1.1276  0.2066
 1407TIP3   OH225635   2.135   2.553  13.544  0.6736 -0.6177  0.6585
 1407TIP3    H125636   2.094   2.491  13.484 -0.6074  1.6773 -1.0186
 1407TIP3    H225637   2.218   2.576  13.502  0.3939 -0.0111  0.4264
 1408TIP3   OH225638   3.647   1.258   5.302 -0.0214  0.0149 -0.5317
 1408TIP3    H125639   3.678   1.168   5.312  3.4992  1.0629 -0.5264
 1408TIP3    H225640   3.690   1.306   5.373 -1.6874  1.7540 -0.6246
 1409TIP3   OH225641   0.195   0.919   2.343  0.4322 -0.1833 -0.4150
 1409TIP3    H125642   0.289   0.938   2.351  0.0951  1.1464  1.1351
 1409TIP3    H225643   0.156   1.004   2.322 -0.5863 -0.3222  0.8046
 1410TIP3   OH225644   6.529   0.369  16.481 -0.0408  0.5824 -0.5855
 1410TIP3    H125645   6.475   0.353  16.558 -0.5365  0.4133 -0.9680
 1410TIP3    H225646   6.611   0.322  16.500 -0.3046  0.2188 -0.3293
 1411TIP3   OH225647   1.248   3.766  13.077  0.2929  0.7128 -0.6346
 1411TIP3    H125648   1.183   3.815  13.126  0.2388  0.5751 -0.5695
 1411TIP3    H225649   1.199   3.722  13.008  0.2891  0.4500 -0.4636
 1412TIP3   OH225650   3.343   2.403   0.682  0.0137 -0.2320 -0.1600
 1412TIP3    H125651   3.400   2.478   0.664  1.5940 -1.2781  0.2200
 1412TIP3    H225652   3.304   2.382   0.597  1.5445 -0.5095 -0.8344
 1413TIP3   OH225653   0.902   4.649  11.345  0.1787  0.1219  0.2854
 1413TIP3    H125654   0.902   4.672  11.252  1.9024  0.6262  0.3688
 1413TIP3    H225655   0.843   4.574  11.352  0.5963 -0.3931 -1.3434
 1414TIP3   OH225656   6.083   1.719   1.176 -0.6633 -0.2620  0.2800
 1414TIP3    H125657   6.168   1.709   1.219  0.3449 -2.3753 -1.9506
 1414TIP3    H225658   6.058   1.629   1.154 -1.0929  0.6269 -3.3932
 1415TIP3   OH225659   1.931   2.327   4.051 -0.1732 -0.6361  0.2555
 1415TIP3    H125660   1.870   2.254   4.060 -0.6568 -0.0213  2.5760
 1415TIP3    H225661   1.972   2.335   4.137 -0.6502  2.2341  0.3230
 1416TIP3   OH225662   1.251   4.379  10.296 -0.4891 -0.2575  0.4733
 1416TIP3    H125663   1.279   4.355  10.207 -0.4729  0.7855  0.1783
 1416TIP3    H225664   1.176   4.323  10.314 -0.5235 -0.4427 -0.2266
 1417TIP3   OH225665   5.992   4.106  12.368  0.2528  0.0338 -0.3318
 1417TIP3    H125666   6.067   4.164  12.379  0.8250 -0.6186 -0.6990
 1417TIP3    H225667   6.025   4.034  12.314 -0.7011 -0.1451 -0.7002
 1418TIP3   OH225668   4.058   1.152  12.515  0.2666 -0.0747 -0.3833
 1418TIP3    H125669   4.134   1.185  12.467 -0.6233  0.8158 -1.2284
 1418TIP3    H225670   4.066   1.192  12.602 -0.4104  1.9192 -1.1611
 1419TIP3   OH225671   6.451   5.909   1.725 -0.3876  0.0595 -0.2160
 1419TIP3    H125672   6.477   5.822   1.695  1.6602  0.5881 -0.0995
 1419TIP3    H225673   6.530   5.963   1.715 -1.7418  2.0468 -0.7898
 1420TIP3   OH225674   3.808   0.931   2.336  0.2025 -0.0245 -0.5665
 1420TIP3    H125675   3.728   0.884   2.311  1.6700 -2.4501 -1.1253
 1420TIP3    H225676   3.809   0.927   2.431 -0.7384  0.7885 -0.5097
 1421TIP3   OH225677   5.830   5.230  16.258 -0.2566 -0.2226  0.5770
 1421TIP3    H125678   5.758   5.264  16.205 -2.7978 -3.1124  1.8503
 1421TIP3    H225679   5.823   5.278  16.340 -0.9717 -0.6567  0.7861
 1422TIP3   OH225680   1.955   3.316  14.445  0.3319  0.4788  0.2256
 1422TIP3    H125681   1.955   3.376  14.371 -1.2165 -1.0373 -1.0927
 1422TIP3    H225682   2.010   3.243  14.418 -0.9750 -0.5231  0.1173
 1423TIP3   OH225683   2.909   1.707   1.666 -0.1024 -0.0686  0.4536
 1423TIP3    H125684   2.925   1.723   1.573 -1.7994 -0.3352  0.0964
 1423TIP3    H225685   2.933   1.616   1.679  1.3620  0.3068  0.5909
 1424TIP3   OH225686   3.442   5.140   0.110  0.3815 -1.0967 -0.0401
 1424TIP3    H125687   3.494   5.115   0.033  1.2307 -0.1558  0.2063
 1424TIP3    H225688   3.506   5.177   0.170 -0.6432  0.5342  0.0809
 1425TIP3   OH225689   4.056   2.371   2.702  0.1416  0.4573  0.3191
 1425TIP3    H125690   4.040   2.464   2.684  0.9762  0.3249 -1.2551
 1425TIP3    H225691   4.001   2.352   2.778 -0.1351  2.2044  0.6040
 1426TIP3   OH225692   1.126   0.090   2.918  0.2227 -0.1043  0.2477
 1426TIP3    H125693   1.099   0.182   2.915 -1.1257 -0.4960 -0.7938
 1426TIP3    H225694   1.046   0.041   2.900  0.8527 -1.5138  1.1067
 1427TIP3   OH225695   4.679   1.729  15.193  0.2500  0.2698  0.3877
 1427TIP3    H125696   4.661   1.691  15.107 -2.8423 -1.4716  1.6321
 1427TIP3    H225697   4.633   1.813  15.193 -2.6663 -1.1927  1.2975
 1428TIP3   OH225698   6.085   6.694  14.154  0.0852  0.4651 -0.2746
 1428TIP3    H125699   6.098   6.612  14.202  0.1926  0.8540  0.3772
 1428TIP3    H225700   5.990   6.705  14.151  0.0745  0.3703 -0.2667
 1429TIP3   OH225701   0.902   4.271   3.121  0.3952 -0.2819  0.5793
 1429TIP3    H125702   0.806   4.277   3.118  0.4561  1.3045  0.6169
 1429TIP3    H225703   0.922   4.185   3.084 -1.0060 -0.2187 -0.4351
 1430TIP3   OH225704   0.258   2.707  14.157  0.5524 -0.4407 -0.2752
 1430TIP3    H125705   0.224   2.731  14.071  0.4433 -0.6020 -0.2765
 1430TIP3    H225706   0.304   2.624  14.143  0.9625 -0.2180 -0.2797
 1431TIP3   OH225707   5.455   0.149  16.609 -1.0523 -0.0325  0.0525
 1431TIP3    H125708   5.404   0.186  16.536 -1.4176  0.8138  0.7200
 1431TIP3    H225709   5.391   0.098  16.659 -0.4219 -2.2540 -1.2384
 1432TIP3   OH225710   6.742   2.437  11.701 -0.1891 -0.1740 -0.0890
 1432TIP3    H125711   6.684   2.412  11.628 -0.2866 -1.1517  0.3069
 1432TIP3    H225712   6.793   2.358  11.719  1.9947  0.9258 -1.0519
 1433TIP3   OH225713   2.820   5.268   3.572  0.1497  0.3662  0.2326
 1433TIP3    H125714   2.913   5.260   3.595  1.0384 -0.1100 -3.0533
 1433TIP3    H225715   2.796   5.181   3.541 -0.7790  1.0167 -0.9234
 1434TIP3   OH225716   0.110   1.032  10.383 -0.3548  0.0059  0.0518
 1434TIP3    H125717   0.172   1.038  10.310  0.7953 -3.0391  0.6228
 1434TIP3    H225718   0.029   1.001  10.343 -0.0961 -0.4738 -0.1097
 1435TIP3   OH225719   1.223   1.167  12.663  0.4641  0.2273  0.0921
 1435TIP3    H125720   1.138   1.125  12.673  1.1591 -1.4565 -0.7831
 1435TIP3    H225721   1.285   1.095  12.653  1.9490  1.4277  0.2807
 1436TIP3   OH225722   6.529   0.250   1.428 -0.3942  0.1638 -0.4984
 1436TIP3    H125723   6.459   0.307   1.398 -1.1025 -1.8674 -3.1236
 1436TIP3    H225724   6.599   0.261   1.363  0.6327  0.1289  0.5600
 1437TIP3   OH225725   2.638   5.531   1.505  0.3938  0.5650  0.1569
 1437TIP3    H125726   2.565   5.581   1.468 -2.2592 -1.9641  1.6060
 1437TIP3    H225727   2.663   5.470   1.435  1.4870  1.6685 -0.4699
 1438TIP3   OH225728   3.085   5.236   3.598  0.0115  0.3851 -0.1943
 1438TIP3    H125729   3.112   5.311   3.545 -1.7379 -0.7165 -2.8325
 1438TIP3    H225730   3.124   5.160   3.555 -2.2017 -0.6390 -0.5113
 1439TIP3   OH225731   2.608   0.476   2.098 -0.3129  0.0655 -0.2784
 1439TIP3    H125732   2.574   0.497   2.011  0.4603  0.9111 -0.3824
 1439TIP3    H225733   2.618   0.560   2.142 -1.3254 -0.3893  0.8858
 1440TIP3   OH225734   1.110   3.167  16.127 -0.1925 -0.2357 -0.5796
 1440TIP3    H125735   1.025   3.124  16.110 -1.9954  2.1199  1.6656
 1440TIP3    H225736   1.168   3.132  16.060 -2.3951 -3.4574 -1.0489
 1441TIP3   OH225737   1.402   6.620  15.597 -0.1569  0.5450 -0.1066
 1441TIP3    H125738   1.464   6.566  15.548  0.5648  0.7432  0.5568
 1441TIP3    H225739   1.384   6.694  15.539 -0.5389 -0.0065 -0.6988
 1442TIP3   OH225740   2.825   1.427   1.762 -0.1651  0.0108 -0.0375
 1442TIP3    H125741   2.753   1.372   1.795 -0.6297 -0.4057 -1.6731
 1442TIP3    H225742   2.903   1.373   1.775 -0.1221  0.4296  1.6654
 1443TIP3   OH225743   4.132   0.309  10.892 -0.2237 -0.0465  0.7782
 1443TIP3    H125744   4.122   0.319  10.986 -0.6219 -1.6852  0.9326
 1443TIP3    H225745   4.156   0.217  10.879 -1.3611 -0.1733 -0.7914
 1444TIP3   OH225746   2.911   4.869   4.989  0.2613  0.0595  0.4218
 1444TIP3    H125747   2.922   4.961   5.014  0.0109 -0.4298  2.5724
 1444TIP3    H225748   2.874   4.872   4.901  0.4777  1.9978  0.3475
 1445TIP3   OH225749   3.910   0.284   2.106  0.1188 -0.9052 -0.0514
 1445TIP3    H125750   3.854   0.244   2.173 -0.9717 -0.6234 -0.7606
 1445TIP3    H225751   3.851   0.342   2.057  1.1455 -0.2416 -0.5420
 1446TIP3   OH225752   4.116   1.715  17.045  0.0683 -0.3682 -0.5366
 1446TIP3    H125753   4.140   1.763  17.124 -0.3453 -1.5038  0.3070
 1446TIP3    H225754   4.191   1.725  16.987  1.0788 -0.8968  0.6496
 1447TIP3   OH225755   3.575   1.791  13.742 -0.0068  0.2620 -0.4046
 1447TIP3    H125756   3.620   1.840  13.811  2.1794 -1.8756 -0.2102
 1447TIP3    H225757   3.497   1.844  13.724  1.0085  2.5864  1.3702
 1448TIP3   OH225758   4.834   4.913  12.342 -0.1969 -0.0420 -0.3070
 1448TIP3    H125759   4.792   4.944  12.263 -0.4713 -1.0879 -0.5898
 1448TIP3    H225760   4.895   4.845  12.312  1.6382  1.3383  0.1016
 1449TIP3   OH225761   2.225   4.696   3.774 -0.4093 -0.4885 -0.4261
 1449TIP3    H125762   2.149   4.744   3.741 -0.2877 -0.8066 -1.1999
 1449TIP3    H225763   2.286   4.764   3.802 -1.2338 -0.2399  0.8125
 1450TIP3   OH225764   5.612   5.097   2.459  0.0498  0.6156 -0.5025
 1450TIP3    H125765   5.702   5.092   2.490  0.5463 -0.1257 -1.9463
 1450TIP3    H225766   5.565   5.030   2.509  0.0915  1.5350  0.8092
 1451TIP3   OH225767   1.937   2.035  11.901 -0.1155 -0.1504  0.6652
 1451TIP3    H125768   1.929   2.002  11.812  1.2740 -0.3482  0.5795
 1451TIP3    H225769   2.016   2.089  11.899  0.4344 -0.8535  1.9641
 1452TIP3   OH225770   2.904   2.125   2.668  0.5043  0.0165 -0.7100
 1452TIP3    H125771   2.970   2.057   2.683  0.1346 -0.1173  0.3624
 1452TIP3    H225772   2.895   2.168   2.753 -0.7681  0.0542 -0.8541
 1453TIP3   OH225773   5.010   4.380   5.507 -0.2362  0.6107  0.2374
 1453TIP3    H125774   4.988   4.295   5.544  0.4282  0.8066  1.1178
 1453TIP3    H225775   5.094   4.365   5.463 -0.2201  0.7669  0.2145
 1454TIP3   OH225776   0.054   2.951   2.066 -0.1188 -0.0057  0.2277
 1454TIP3    H125777   0.020   2.862   2.055 -0.3706 -0.0797  1.4392
 1454TIP3    H225778   0.111   2.964   1.990 -2.7826  0.1282 -1.9042
 1455TIP3   OH225779   2.728   0.391  15.726 -0.2486 -0.1687 -0.6087
 1455TIP3    H125780   2.801   0.349  15.681 -1.2156 -0.1004 -2.3040
 1455TIP3    H225781   2.672   0.319  15.754  0.0942 -0.1828  0.0677
 1456TIP3   OH225782   5.951   0.114   3.752 -0.3681  0.0097  0.1470
 1456TIP3    H125783   5.864   0.154   3.747 -0.6251 -0.3778  1.2847
 1456TIP3    H225784   6.002   0.159   3.684 -2.1079 -1.4949 -2.3291
 1457TIP3   OH225785   1.891   1.546   6.483 -0.2971 -0.2983 -0.4596
 1457TIP3    H125786   1.863   1.629   6.444 -0.4467 -1.5923 -3.4579
 1457TIP3    H225787   1.814   1.490   6.476  0.4560 -1.3296 -0.5981
 1458TIP3   OH225788   2.181   5.388  12.784 -0.1493 -0.1472  0.6382
 1458TIP3    H125789   2.177   5.308  12.732 -1.5343  0.2189  0.1516
 1458TIP3    H225790   2.150   5.457  12.726 -1.2190  0.3585  1.7537
 1459TIP3   OH225791   2.485   2.839  16.841 -0.1341 -0.6666  0.0923
 1459TIP3    H125792   2.453   2.750  16.854 -0.1929 -0.4013  2.0223
 1459TIP3    H225793   2.518   2.840  16.751  1.3340 -3.0943  0.5075
 1460TIP3   OH225794   2.445   1.393   4.144 -0.1244 -0.4029 -0.4952
 1460TIP3    H125795   2.369   1.366   4.195 -0.3346  0.1772 -0.4951
 1460TIP3    H225796   2.518   1.393   4.206 -0.9240  3.3546  0.6885
 1461TIP3   OH225797   2.181   4.909   2.833  0.4900 -0.2427  0.1593
 1461TIP3    H125798   2.259   4.941   2.879 -0.2719 -0.2629  1.5069
 1461TIP3    H225799   2.211   4.895   2.743  0.8946  4.2413 -0.6412
 1462TIP3   OH225800   3.499   4.772  12.372 -0.0831 -0.3692  0.4920
 1462TIP3    H125801   3.443   4.743  12.444 -1.1153 -0.5067 -0.3586
 1462TIP3    H225802   3.474   4.863  12.357  0.4829 -0.1830  0.6095
 1463TIP3   OH225803   0.159   4.066   3.527 -0.3580  0.1602  0.3442
 1463TIP3    H125804   0.108   4.138   3.490  1.8139  1.3382 -0.5749
 1463TIP3    H225805   0.184   4.096   3.614 -2.7627 -1.2622  1.6374
 1464TIP3   OH225806   6.102   3.336  15.139  0.0370 -0.2874  0.2405
 1464TIP3    H125807   6.064   3.254  15.172  0.8173  0.3984  3.1561
 1464TIP3    H225808   6.027   3.395  15.129 -0.2445 -0.5312  0.8563
 1465TIP3   OH225809   0.977   2.408  16.835 -0.5222  0.3752  0.3006
 1465TIP3    H125810   0.906   2.344  16.838  0.9804 -1.3801 -0.0324
 1465TIP3    H225811   0.952   2.467  16.764 -0.9539 -1.0834 -0.8048
 1466TIP3   OH225812   3.678   3.731   4.922  0.6081  0.4888 -0.3262
 1466TIP3    H125813   3.712   3.775   5.000 -2.0057 -0.5429  1.5324
 1466TIP3    H225814   3.586   3.714   4.942  0.6363 -2.8102 -2.2574
 1467TIP3   OH225815   1.887   2.674  11.877  0.1047  0.3229  0.2314
 1467TIP3    H125816   1.821   2.714  11.933  1.3614  1.7494  0.7767
 1467TIP3    H225817   1.950   2.744  11.861  1.6730 -1.0694  0.0282
 1468TIP3   OH225818   1.145   5.598   5.687  0.8102  0.7767 -0.6215
 1468TIP3    H125819   1.081   5.533   5.714 -0.1292  1.3011 -1.4794
 1468TIP3    H225820   1.104   5.682   5.708  1.5414  1.1141 -0.5019
 1469TIP3   OH225821   3.589   6.189  15.594  0.2859  0.0438 -0.7062
 1469TIP3    H125822   3.548   6.274  15.576 -0.0766 -0.2801 -1.4545
 1469TIP3    H225823   3.515   6.129  15.606  0.5187  0.0359  0.9365
 1470TIP3   OH225824   0.469   1.412   5.753  0.1857  0.6277 -0.4137
 1470TIP3    H125825   0.408   1.343   5.729  1.0320 -0.4009  0.2913
 1470TIP3    H225826   0.530   1.417   5.678  0.7005 -0.0920 -0.0594
 1471TIP3   OH225827   1.601   4.554   0.831 -0.3481 -0.1075  0.2597
 1471TIP3    H125828   1.638   4.508   0.756 -0.7425 -0.4165  0.2533
 1471TIP3    H225829   1.666   4.622   0.852 -0.9133  0.9563 -1.2813
 1472TIP3   OH225830   4.201   0.345   3.426 -0.4355 -0.5809 -0.3787
 1472TIP3    H125831   4.226   0.333   3.334  2.0824  0.6124  0.0846
 1472TIP3    H225832   4.146   0.423   3.426  1.8826  1.1513 -0.6066
 1473TIP3   OH225833   5.919   0.603  10.486 -0.0570 -0.4600 -0.1404
 1473TIP3    H125834   5.866   0.530  10.517  1.1310 -1.0954  0.4817
 1473TIP3    H225835   5.978   0.623  10.559  1.9191 -1.1166 -1.4605
 1474TIP3   OH225836   0.415   2.950  14.008 -0.3336 -0.3832 -0.6162
 1474TIP3    H125837   0.499   2.908  14.022 -0.3470 -0.4809 -0.8185
 1474TIP3    H225838   0.358   2.880  13.974 -0.8144 -0.5917  0.5804
 1475TIP3   OH225839   2.217   4.072  16.645 -0.4904 -0.0186  0.1034
 1475TIP3    H125840   2.172   4.156  16.648  0.1095  0.3537  4.1202
 1475TIP3    H225841   2.308   4.094  16.626 -0.5703  0.0551 -0.2078
 1476TIP3   OH225842   4.568   5.935  12.894 -0.3327  0.0914 -0.2517
 1476TIP3    H125843   4.511   5.948  12.819 -0.4813  0.0429 -0.1482
 1476TIP3    H225844   4.655   5.924  12.857 -0.5403 -0.8534 -0.4699
 1477TIP3   OH225845   3.474   6.333   0.297 -0.2405  0.2078  0.6886
 1477TIP3    H125846   3.481   6.239   0.284  0.8209  0.2327  0.9858
 1477TIP3    H225847   3.521   6.350   0.379 -0.9340  0.9184  0.9505
 1478TIP3   OH225848   3.280   5.079  15.833 -0.6838 -0.3571 -0.5224
 1478TIP3    H125849   3.298   5.065  15.926 -0.3527  2.0554 -0.1640
 1478TIP3    H225850   3.200   5.030  15.817 -0.9252 -0.5666  1.1181
 1479TIP3   OH225851   6.179   4.753  16.313  0.0947 -0.0730 -0.4639
 1479TIP3    H125852   6.196   4.756  16.219  0.2127 -0.4104 -0.4549
 1479TIP3    H225853   6.121   4.828  16.329 -0.8885 -0.7044 -1.0068
 1480TIP3   OH225854   0.971   5.953  12.077  0.5147 -0.4310 -0.0186
 1480TIP3    H125855   0.926   5.981  12.156  1.5642  3.2464 -0.5366
 1480TIP3    H225856   0.940   5.863  12.062  0.0068 -1.1902  4.2637
 1481TIP3   OH225857   5.663   1.358   3.170  0.4805  1.1882 -0.0524
 1481TIP3    H125858   5.746   1.336   3.212  0.8448  2.1510 -0.2457
 1481TIP3    H225859   5.688   1.398   3.087 -0.1379  2.3667  0.3123
 1482TIP3   OH225860   6.003   5.565   0.585  0.1423 -0.2602 -0.2425
 1482TIP3    H125861   6.053   5.511   0.524  1.6366 -0.5763  1.1986
 1482TIP3    H225862   6.029   5.534   0.672 -2.5387 -0.3881  0.6055
 1483TIP3   OH225863   6.141   3.431  16.066 -0.7420 -0.0168  0.3690
 1483TIP3    H125864   6.177   3.342  16.068  2.1532  1.0282 -0.2526
 1483TIP3    H225865   6.095   3.436  15.983 -1.6667 -1.1614  0.7861
 1484TIP3   OH225866   4.593   6.734   3.606  0.4642 -0.2635 -0.2901
 1484TIP3    H125867   4.521   6.730   3.542  0.1054 -0.5291  0.1303
 1484TIP3    H225868   4.555   6.702   3.687  0.8626  0.2768  0.1185
 1485TIP3   OH225869   5.193   6.305   5.310 -0.4537 -0.4876 -0.3006
 1485TIP3    H125870   5.246   6.382   5.332 -0.2393 -1.0226  1.1401
 1485TIP3    H225871   5.216   6.286   5.219 -0.1090  0.8249 -0.5102
 1486TIP3   OH225872   2.423   1.593  14.496 -0.4974 -0.5605 -0.1834
 1486TIP3    H125873   2.351   1.583  14.557 -0.2904 -0.8516  0.0158
 1486TIP3    H225874   2.493   1.537  14.531  0.4102  0.9611  0.5452
 1487TIP3   OH225875   3.533   4.503  16.181 -0.3763  0.1909 -0.7911
 1487TIP3    H125876   3.614   4.474  16.222 -0.8458  0.4343  0.3474
 1487TIP3    H225877   3.560   4.533  16.094  1.0220  1.6617  0.0682
 1488TIP3   OH225878   3.242   2.917  12.362 -0.2287  0.2649  0.0189
 1488TIP3    H125879   3.255   3.012  12.362 -0.8887  0.3609  0.9163
 1488TIP3    H225880   3.174   2.903  12.296 -0.5570  0.4758  0.3106
 1489TIP3   OH225881   1.268   1.299  15.389 -0.5173  0.6404 -0.1423
 1489TIP3    H125882   1.185   1.322  15.346 -0.6757 -1.6961 -1.2277
 1489TIP3    H225883   1.242   1.270  15.476 -0.6850  1.1995 -0.0019
 1490TIP3   OH225884   1.924   5.246  15.299  0.2433  0.2218 -0.3500
 1490TIP3    H125885   1.951   5.202  15.218  1.4744 -1.2543  0.8056
 1490TIP3    H225886   1.834   5.217  15.312  0.5996 -0.9418 -0.3148
 1491TIP3   OH225887   1.505   3.608   0.806 -0.1656 -0.5167 -0.1656
 1491TIP3    H125888   1.423   3.559   0.795 -1.2396  1.1752 -0.1881
 1491TIP3    H225889   1.477   3.700   0.809  1.8581  0.2121 -1.5199
 1492TIP3   OH225890   2.416   6.391  13.944  0.0496  0.4716 -0.1266
 1492TIP3    H125891   2.494   6.427  13.984  0.6603  0.2134 -1.0541
 1492TIP3    H225892   2.425   6.410  13.850 -0.1179 -1.0995 -0.5043
 1493TIP3   OH225893   4.183   5.995   5.670  0.4197  0.4474 -0.5922
 1493TIP3    H125894   4.120   6.022   5.736 -0.8253 -1.3082 -0.9856
 1493TIP3    H225895   4.148   6.028   5.588 -0.3983 -1.0686 -0.8953
 1494TIP3   OH225896   5.279   4.133   5.103  0.2190 -0.2063 -0.3006
 1494TIP3    H125897   5.262   4.224   5.075  2.7238 -0.6244 -3.9012
 1494TIP3    H225898   5.214   4.082   5.055 -0.2597 -0.4393  0.5901
 1495TIP3   OH225899   3.558   3.095  14.824 -0.6390 -0.1744 -0.2665
 1495TIP3    H125900   3.577   3.111  14.917  2.9845 -0.3569 -0.8354
 1495TIP3    H225901   3.517   3.176  14.794  0.2401  0.8043  1.0347
 1496TIP3   OH225902   4.061   1.028  16.961 -0.0159 -0.2379  0.0775
 1496TIP3    H125903   3.982   1.000  16.914  0.1688 -2.1972  0.8331
 1496TIP3    H225904   4.029   1.090  17.027 -0.3627  2.0140 -2.0544
 1497TIP3   OH225905   6.434   5.435  12.043 -1.0132  0.8312  0.1710
 1497TIP3    H125906   6.495   5.441  12.117 -1.0601  2.4798  0.0998
 1497TIP3    H225907   6.491   5.423  11.967 -0.9531 -0.5869  0.4010
 1498TIP3   OH225908   0.456   5.953   0.657 -0.4814  0.0093 -0.0093
 1498TIP3    H125909   0.453   5.972   0.564  1.4649 -0.7749 -0.2782
 1498TIP3    H225910   0.436   5.860   0.664 -1.2796  0.1977  0.4506
 1499TIP3   OH225911   0.363   5.046  12.405  0.5879  0.0560  0.1525
 1499TIP3    H125912   0.352   5.137  12.379  0.0139  0.2437  0.9939
 1499TIP3    H225913   0.440   5.047  12.462  0.8419 -0.0611 -0.1888
 1500TIP3   OH225914   2.002   1.765  15.418  0.4541  0.4799  0.4678
 1500TIP3    H125915   2.030   1.852  15.387 -0.4932  0.5796 -0.1543
 1500TIP3    H225916   1.942   1.784  15.491 -2.2703  0.5500 -1.6278
 1501TIP3   OH225917   3.266   4.381  14.474  0.2405  0.1744 -0.1014
 1501TIP3    H125918   3.315   4.338  14.544  0.2827  2.0072  1.0722
 1501TIP3    H225919   3.297   4.472  14.476 -0.3455  0.4458 -1.9918
 1502TIP3   OH225920   5.599   5.881   4.994  0.8227 -0.2018 -0.2668
 1502TIP3    H125921   5.629   5.795   4.965 -1.0494 -1.2969  0.8868
 1502TIP3    H225922   5.513   5.891   4.954 -0.1222 -0.0513  1.6940
 1503TIP3   OH225923   6.331   1.212  14.520  0.2243 -0.8605  0.4073
 1503TIP3    H125924   6.281   1.131  14.517  1.7532 -1.8534  0.6979
 1503TIP3    H225925   6.270   1.277  14.556 -0.7624 -2.0715  0.9958
 1504TIP3   OH225926   5.272   6.348   1.547  0.0871  0.0930  0.3684
 1504TIP3    H125927   5.356   6.395   1.551  0.0299  0.2301 -0.0341
 1504TIP3    H225928   5.237   6.368   1.460  1.0726 -2.4047 -0.6909
 1505TIP3   OH225929   4.438   2.022   4.230 -0.1711  0.1409 -0.1081
 1505TIP3    H125930   4.435   2.044   4.137 -1.7056  1.6761  0.2322
 1505TIP3    H225931   4.529   2.001   4.248  0.5790  1.9789 -1.5092
 1506TIP3   OH225932   3.467   2.852   2.236 -0.0165  0.1557  0.4688
 1506TIP3    H125933   3.376   2.832   2.258  0.0563 -2.5681 -1.3145
 1506TIP3    H225934   3.505   2.882   2.319 -2.7777  2.6997  0.9891
 1507TIP3   OH225935   6.220   6.331  13.493  0.0760 -0.1216  0.3103
 1507TIP3    H125936   6.268   6.262  13.539 -0.9163  0.1203  1.7751
 1507TIP3    H225937   6.139   6.289  13.464 -0.3443  0.3048  0.8416
 1508TIP3   OH225938   5.561   1.202  14.917  0.5824  0.7584 -0.2850
 1508TIP3    H125939   5.583   1.282  14.963 -0.8654  0.7277  0.4885
 1508TIP3    H225940   5.562   1.226  14.824 -0.9366  1.9768 -0.0185
 1509TIP3   OH225941   4.665   2.218  16.615 -0.5313 -0.0470  0.0664
 1509TIP3    H125942   4.725   2.143  16.613  1.4422  1.4253  0.1508
 1509TIP3    H225943   4.609   2.202  16.691  1.1890 -0.5262  1.3110
 1510TIP3   OH225944   4.750   1.187  11.186 -0.4514 -0.1327 -0.0444
 1510TIP3    H125945   4.756   1.280  11.164 -0.1273  0.2250  1.4458
 1510TIP3    H225946   4.835   1.166  11.225 -0.1492 -1.3298 -1.2669
 1511TIP3   OH225947   3.384   1.311  11.952  0.3196 -0.5683 -0.2380
 1511TIP3    H125948   3.452   1.378  11.963  1.4331 -1.6795 -0.2586
 1511TIP3    H225949   3.376   1.301  11.857 -2.3788  2.0111 -0.4412
 1512TIP3   OH225950   3.643   0.761   1.639  0.6284  0.5181  0.1814
 1512TIP3    H125951   3.627   0.675   1.600 -0.0561  0.3241  0.8647
 1512TIP3    H225952   3.615   0.824   1.572 -0.7454  0.1872  0.4155
 1513TIP3   OH225953   0.403   5.906   2.856 -0.7387 -0.1112 -0.2062
 1513TIP3    H125954   0.466   5.967   2.893 -1.1551  0.8569 -1.0639
 1513TIP3    H225955   0.346   5.959   2.800 -1.9314 -1.0581  0.0489
 1514TIP3   OH225956   1.181   0.413  15.394 -0.2319 -0.2693  0.2501
 1514TIP3    H125957   1.116   0.466  15.347 -0.1973 -0.2369  0.2388
 1514TIP3    H225958   1.251   0.399  15.330  1.0009  1.8857  1.0130
 1515TIP3   OH225959   4.331   6.773   2.135  0.6723  0.2576 -0.2383
 1515TIP3    H125960   4.342   6.679   2.121 -1.4338 -0.0814  0.0273
 1515TIP3    H225961   4.268   6.779   2.207 -0.1555  1.8562 -1.0441
 1516TIP3   OH225962   0.254   5.999   0.075 -0.7389  0.3561  0.0415
 1516TIP3    H125963   0.160   6.005   0.059 -1.0869  0.1849  1.7766
 1516TIP3    H225964   0.281   5.917   0.034 -2.0847 -1.4038  2.4346
 1517TIP3   OH225965   0.302   2.163   1.888  0.0263 -0.6577  0.6377
 1517TIP3    H125966   0.307   2.176   1.793  0.4706 -2.0797  0.4374
 1517TIP3    H225967   0.314   2.250   1.925 -1.0275  0.0597 -0.6231
 1518TIP3   OH225968   3.968   1.174  16.087  0.5533  0.0837 -0.3277
 1518TIP3    H125969   3.946   1.194  15.996  0.1003 -1.2730 -0.5437
 1518TIP3    H225970   3.917   1.236  16.138  1.6727  1.6179 -1.0076
 1519TIP3   OH225971   3.678   2.207   1.116  0.9013  0.2260  0.2051
 1519TIP3    H125972   3.637   2.286   1.081  3.2016  0.7307 -1.5841
 1519TIP3    H225973   3.704   2.158   1.038 -0.9507 -2.6530  1.2524
 1520TIP3   OH225974   5.060   3.344  11.110  0.2800 -0.0850 -0.0974
 1520TIP3    H125975   5.129   3.280  11.127  1.4149  1.4208  1.1654
 1520TIP3    H225976   5.008   3.344  11.190  1.9541  2.5452  1.0827
 1521TIP3   OH225977   5.654   0.911   5.057 -0.6627  0.2710  0.1584
 1521TIP3    H125978   5.599   0.986   5.078  0.2872  0.3714  2.6274
 1521TIP3    H225979   5.620   0.840   5.111 -0.7991 -0.7835 -1.2588
 1522TIP3   OH225980   0.025   5.595  13.856 -0.0762 -0.5596 -0.6650
 1522TIP3    H125981   0.026   5.510  13.900  0.2320 -0.6355 -0.8139
 1522TIP3    H225982   0.075   5.653  13.913  0.2010 -0.6220 -0.8446
 1523TIP3   OH225983   3.530   0.898  13.248  0.7467 -0.4605  0.0727
 1523TIP3    H125984   3.611   0.881  13.297  0.3890  0.5495  1.0402
 1523TIP3    H225985   3.546   0.982  13.205 -0.4067  0.6567  1.6991
 1524TIP3   OH225986   4.319   1.413  15.533  0.2545 -0.2333  0.3282
 1524TIP3    H125987   4.265   1.338  15.507 -0.4354  1.4694 -4.0034
 1524TIP3    H225988   4.408   1.387  15.511  0.1345 -0.1870 -0.2434
 1525TIP3   OH225989   5.686   0.388   0.260  0.4132 -0.5976  0.1491
 1525TIP3    H125990   5.768   0.423   0.228  0.5735 -1.6708 -0.6539
 1525TIP3    H225991   5.703   0.367   0.352  0.0500  2.1527  0.9438
 1526TIP3   OH225992   0.244   6.615   9.950 -0.2717 -0.0654  0.0492
 1526TIP3    H125993   0.274   6.705   9.936 -0.1862 -0.1858 -0.5931
 1526TIP3    H225994   0.153   6.616   9.918 -0.2339 -0.2295 -0.0652
 1527TIP3   OH225995   2.704   1.257   1.562  0.0327 -0.0193 -0.2366
 1527TIP3    H125996   2.725   1.350   1.565 -0.9729  0.2062  0.2675
 1527TIP3    H225997   2.638   1.250   1.493 -1.5882  0.0212  1.2525
 1528TIP3   OH225998   1.971   3.824  17.052  0.3454  0.5637  0.1502
 1528TIP3    H125999   2.018   3.848  16.972 -0.0963  0.0563 -0.2616
 1528TIP3    H226000   1.911   3.755  17.026 -0.6672  1.2223  0.6636
 1529TIP3   OH226001   3.943   4.216   1.588  0.3253 -0.2536  0.3513
 1529TIP3    H126002   3.859   4.222   1.634  1.2446  0.2041  2.0900
 1529TIP3    H226003   3.989   4.296   1.613  0.4524  0.6476 -2.4167
 1530TIP3   OH226004   4.960   0.745  13.677 -0.2268  0.2696 -0.1055
 1530TIP3    H126005   4.989   0.707  13.595 -0.9600  0.7226 -0.5873
 1530TIP3    H226006   4.864   0.740  13.674 -0.3518  1.9334 -0.1178
 1531TIP3   OH226007   0.789   3.153   4.866  0.6721 -0.1414  0.8163
 1531TIP3    H126008   0.865   3.120   4.914  2.0500 -0.9732 -1.7407
 1531TIP3    H226009   0.826   3.212   4.801 -1.0414  0.4601  0.3401
 1532TIP3   OH226010   0.195   3.138  13.144 -0.3995  0.2901  0.3143
 1532TIP3    H126011   0.274   3.186  13.116 -0.9126  2.7257  2.5603
 1532TIP3    H226012   0.127   3.166  13.083  0.0077 -0.2388 -0.4011
 1533TIP3   OH226013   6.719   0.152   0.455  0.6827  0.7991  0.1905
 1533TIP3    H126014   6.806   0.133   0.491  1.3069 -1.1323 -2.0438
 1533TIP3    H226015   6.700   0.077   0.399 -1.6153  2.0597 -0.8372
 1534TIP3   OH226016   3.668   2.615  16.607 -0.0206 -0.0092 -0.2063
 1534TIP3    H126017   3.573   2.624  16.606  0.1123  2.4488  0.2835
 1534TIP3    H226018   3.695   2.627  16.516 -0.1021  1.7378 -0.0438
 1535TIP3   OH226019   3.746   2.712   2.190 -0.0770 -0.3901  0.2646
 1535TIP3    H126020   3.669   2.659   2.212  0.0869 -0.8454 -0.2536
 1535TIP3    H226021   3.794   2.661   2.126  1.0989 -0.4868  1.1791
 1536TIP3   OH226022   3.734   4.277  14.349 -0.2417  0.3345 -0.0971
 1536TIP3    H126023   3.702   4.214  14.413 -1.6032 -2.2108 -3.0304
 1536TIP3    H226024   3.830   4.269  14.354 -0.3497 -0.6905  0.7577
 1537TIP3   OH226025   4.769   4.933   2.080 -0.0648 -0.0916  0.3357
 1537TIP3    H126026   4.675   4.930   2.095 -0.1075  1.2765  0.5172
 1537TIP3    H226027   4.802   4.851   2.115 -1.0529 -0.0815  1.3384
 1538TIP3   OH226028   2.585   1.570  16.689  0.2328  0.2517  0.1684
 1538TIP3    H126029   2.656   1.574  16.754  0.1673  0.3903  0.2306
 1538TIP3    H226030   2.543   1.655  16.694  0.1326  0.2094  0.0490
 1539TIP3   OH226031   2.054   5.107   3.675  0.0711 -0.1663 -0.6690
 1539TIP3    H126032   2.103   5.115   3.756  2.6115 -1.1200 -1.9847
 1539TIP3    H226033   2.026   5.016   3.672  0.9382 -0.4216 -1.3367
 1540TIP3   OH226034   3.556   6.620  16.909 -0.1000 -0.4685 -0.3944
 1540TIP3    H126035   3.560   6.715  16.908  2.1154 -0.5111  0.0643
 1540TIP3    H226036   3.523   6.598  16.996  0.5881 -0.1206 -0.0372
 1541TIP3   OH226037   4.567   0.828   1.791 -0.2254  0.0232 -0.2343
 1541TIP3    H126038   4.612   0.799   1.712  1.2416 -0.9912  0.9367
 1541TIP3    H226039   4.499   0.888   1.758  0.7633  0.1591 -2.1946
 1542TIP3   OH226040   0.595   1.938   4.197  0.3975  0.3130  0.4051
 1542TIP3    H126041   0.566   1.903   4.282 -0.0609 -2.1054 -0.6739
 1542TIP3    H226042   0.524   1.997   4.170 -0.9225 -1.2573  0.3442
 1543TIP3   OH226043   2.678   0.461   2.609 -0.1059 -0.4468 -0.4366
 1543TIP3    H126044   2.694   0.554   2.593  1.4323 -0.6509 -0.2903
 1543TIP3    H226045   2.611   0.436   2.546 -0.3969  0.7140 -0.6041
 1544TIP3   OH226046   5.887   0.441   6.107 -0.6454 -0.1891 -0.2531
 1544TIP3    H126047   5.951   0.476   6.170 -1.3150  0.5640  0.0193
 1544TIP3    H226048   5.811   0.418   6.161 -0.9907 -0.1191 -0.7079
 1545TIP3   OH226049   3.865   6.297   5.628  0.1332 -0.5072 -0.1009
 1545TIP3    H126050   3.924   6.366   5.596  0.1413 -0.7846 -0.7098
 1545TIP3    H226051   3.924   6.232   5.667  0.1671 -0.4154  0.0018
 1546TIP3   OH226052   0.815   6.468  16.562  0.7446 -0.2492 -0.2814
 1546TIP3    H126053   0.741   6.462  16.502  0.6235  1.3976 -0.3385
 1546TIP3    H226054   0.859   6.383  16.554  0.1551 -0.4411 -1.9267
 1547TIP3   OH226055   1.436   3.146  13.835  0.9399 -0.2099  0.0260
 1547TIP3    H126056   1.441   3.094  13.754  0.4184 -2.5553  1.4096
 1547TIP3    H226057   1.416   3.234  13.805  0.5266 -1.0416 -2.4074
 1548TIP3   OH226058   6.582   4.097   3.884  0.1247 -0.0850  0.4868
 1548TIP3    H126059   6.670   4.086   3.919  0.3727  1.8383  0.5567
 1548TIP3    H226060   6.539   4.157   3.945 -0.1191  1.6801 -1.3149
 1549TIP3   OH226061   4.708   5.281   2.072  0.3543 -0.8351 -0.3698
 1549TIP3    H126062   4.721   5.333   1.993 -0.1783  0.5875  0.4403
 1549TIP3    H226063   4.789   5.289   2.121  0.3650 -0.9954 -0.3583
 1550TIP3   OH226064   6.759   3.580  16.675  0.1626 -1.0724  0.1897
 1550TIP3    H126065   6.727   3.519  16.740  0.1514 -0.4861  0.7466
 1550TIP3    H226066   6.809   3.645  16.725 -0.3977 -0.2446 -0.2942
 1551TIP3   OH226067   5.061   0.600  13.443 -0.3654  0.4985 -0.0607
 1551TIP3    H126068   5.071   0.506  13.459  1.4137  0.8080  0.8473
 1551TIP3    H226069   5.055   0.607  13.347  3.4296 -0.2941 -0.4924
 1552TIP3   OH226070   0.234   6.689  16.856 -0.6619 -0.2398  0.1929
 1552TIP3    H126071   0.172   6.616  16.851 -1.5188  0.5415 -2.5151
 1552TIP3    H226072   0.241   6.721  16.766  0.8804  2.0582  1.0223
 1553TIP3   OH226073   3.658   3.942  15.198  0.4518 -0.0325 -0.3554
 1553TIP3    H126074   3.593   3.903  15.257  0.8146  0.2639  0.2417
 1553TIP3    H226075   3.606   3.978  15.126 -0.1338  1.0802  0.6066
 1554TIP3   OH226076   2.732   0.308  13.351 -0.4272  0.0797 -0.7677
 1554TIP3    H126077   2.764   0.358  13.426  0.9567 -0.9306 -0.6518
 1554TIP3    H226078   2.777   0.347  13.275  0.1874 -0.5751 -0.7473
 1555TIP3   OH226079   6.593   5.585   1.923 -0.2769  0.1299 -0.3234
 1555TIP3    H126080   6.609   5.618   1.834 -0.7739 -1.1473 -0.9058
 1555TIP3    H226081   6.549   5.501   1.910 -0.1814 -0.1695  1.1374
 1556TIP3   OH226082   4.333   1.498   5.653  0.0218  0.4861 -0.3889
 1556TIP3    H126083   4.343   1.404   5.667 -0.8359  0.5077  0.5356
 1556TIP3    H226084   4.263   1.505   5.588  1.0924  0.4645 -1.5548
 1557TIP3   OH226085   5.922   0.198   0.228 -0.1977 -1.1715  0.2183
 1557TIP3    H126086   5.912   0.274   0.286 -3.3222 -1.9440  0.8710
 1557TIP3    H226087   5.954   0.235   0.145 -0.9837  0.7517  0.7238
 1558TIP3   OH226088   3.556   0.291   1.232 -0.1763  0.4188  0.0791
 1558TIP3    H126089   3.622   0.246   1.285 -0.7524  0.8464  1.2086
 1558TIP3    H226090   3.482   0.231   1.230 -0.3748  0.6483  0.2870
 1559TIP3   OH226091   0.701   1.296   5.567  0.2949 -0.0613 -0.3898
 1559TIP3    H126092   0.780   1.249   5.539 -0.4464 -0.2016 -2.4599
 1559TIP3    H226093   0.630   1.251   5.523 -0.7038  1.4651 -0.4184
 1560TIP3   OH226094   5.039   4.884   0.807  0.2255 -0.2956  0.2758
 1560TIP3    H126095   5.091   4.860   0.731  2.0112  2.5043  0.4747
 1560TIP3    H226096   4.949   4.890   0.774  0.0233 -4.0072 -0.3487
 1561TIP3   OH226097   4.638   1.643   3.082 -0.7429  0.2041  0.7569
 1561TIP3    H126098   4.643   1.612   3.172 -1.0677 -2.4238 -0.0436
 1561TIP3    H226099   4.700   1.716   3.078  2.3459 -2.1277  2.1579
 1562TIP3   OH226100   5.618   4.545   0.697  0.2968 -0.3006  0.2740
 1562TIP3    H126101   5.679   4.596   0.643  0.8578  0.5341  1.6177
 1562TIP3    H226102   5.532   4.564   0.662  0.6739 -0.0411 -0.5240
 1563TIP3   OH226103   3.271   1.655   2.318 -0.0779 -0.1219  0.4708
 1563TIP3    H126104   3.287   1.738   2.274 -2.8291 -0.4188 -1.3024
 1563TIP3    H226105   3.337   1.596   2.281 -0.6210  0.3245 -1.2891
 1564TIP3   OH226106   2.588   6.564  14.504 -0.2877  0.1984  0.2583
 1564TIP3    H126107   2.512   6.509  14.524  0.1618  0.2286  2.2051
 1564TIP3    H226108   2.554   6.654  14.510 -0.2375  0.2028  0.4525
 1565TIP3   OH226109   1.734   4.854   5.650 -0.1245 -0.0521  0.2200
 1565TIP3    H126110   1.677   4.929   5.665  1.7913  1.5316 -0.0251
 1565TIP3    H226111   1.713   4.825   5.562 -0.6819  0.3765  0.2071
 1566TIP3   OH226112   3.187   6.333   5.530  0.0246  0.1618 -0.1993
 1566TIP3    H126113   3.222   6.279   5.459 -0.8834  2.0106 -2.1770
 1566TIP3    H226114   3.093   6.320   5.526 -0.0780  0.7058  0.3057
 1567TIP3   OH226115   2.926   2.025  12.104 -0.5824 -0.1493  0.1936
 1567TIP3    H126116   2.973   1.959  12.053  0.5965  0.3169  0.6397
 1567TIP3    H226117   2.918   1.987  12.191 -0.8952 -0.1551  0.1643
 1568TIP3   OH226118   4.010   6.679   0.884 -0.0269  0.0509  0.2024
 1568TIP3    H126119   4.100   6.686   0.918  0.4988 -1.3496 -0.8221
 1568TIP3    H226120   3.974   6.602   0.928 -0.8257  0.7376  0.7779
 1569TIP3   OH226121   2.835   2.249  11.491 -0.0747 -0.0630 -0.8020
 1569TIP3    H126122   2.821   2.189  11.564 -1.3995 -0.2845 -1.1956
 1569TIP3    H226123   2.876   2.326  11.530  0.4906 -0.7179 -0.0764
 1570TIP3   OH226124   0.483   3.087   4.557 -0.5297  0.1210  0.2415
 1570TIP3    H126125   0.399   3.133   4.563  0.4216  1.9082  0.3771
 1570TIP3    H226126   0.525   3.124   4.480 -0.9612 -2.7694 -1.5504
 1571TIP3   OH226127   5.105   3.825   2.903 -0.0995 -0.4976  0.3950
 1571TIP3    H126128   5.137   3.792   2.987  0.8097 -0.5400  0.0446
 1571TIP3    H226129   5.017   3.787   2.893 -1.5763  1.9395  2.7649
 1572TIP3   OH226130   5.415   5.936   0.891 -0.0470 -0.0011 -0.4563
 1572TIP3    H126131   5.332   5.915   0.847 -1.2014  0.7417  1.2390
 1572TIP3    H226132   5.412   5.885   0.972  0.4378  1.1915  0.3315
 1573TIP3   OH226133   4.869   0.071  12.175 -0.0400 -0.6969 -0.1234
 1573TIP3    H126134   4.931   0.136  12.210  1.9909 -1.7838 -1.5280
 1573TIP3    H226135   4.862   0.006  12.244  0.1683 -0.4212  0.1641
 1574TIP3   OH226136   3.647   4.486  15.886  0.5951  0.7673  0.2380
 1574TIP3    H126137   3.665   4.527  15.802 -0.3043  1.1609  0.2172
 1574TIP3    H226138   3.697   4.536  15.949 -0.1467  1.6379  0.1535
 1575TIP3   OH226139   4.908   3.889   5.806  0.0939  0.9117  0.8139
 1575TIP3    H126140   4.902   3.828   5.879  0.5657 -0.1636 -0.0104
 1575TIP3    H226141   4.986   3.941   5.825  0.6034  0.1835  0.7588
 1576TIP3   OH226142   2.516   0.544  13.323 -0.1576  0.1614 -0.3123
 1576TIP3    H126143   2.526   0.564  13.416 -0.7590  0.6193 -0.3359
 1576TIP3    H226144   2.601   0.565  13.285  0.1483 -0.2051  0.1628
 1577TIP3   OH226145   6.052   4.272  16.782  0.5780 -0.5348 -0.2674
 1577TIP3    H126146   6.117   4.328  16.741  0.1135  1.0140  1.0154
 1577TIP3    H226147   6.073   4.274  16.876  0.7582 -2.8278 -0.1962
 1578TIP3   OH226148   6.739   4.539  16.336  0.1468  0.0995  0.4345
 1578TIP3    H126149   6.749   4.447  16.359 -0.1733  0.0978  0.5752
 1578TIP3    H226150   6.819   4.580  16.367  0.1236 -0.0669  0.7242
 1579TIP3   OH226151   4.911   6.486  15.719 -0.2470 -0.0864  0.1603
 1579TIP3    H126152   4.947   6.556  15.665 -1.1303  0.0107 -0.3138
 1579TIP3    H226153   4.987   6.450  15.764  0.6561 -0.7739 -1.8111
 1580TIP3   OH226154   1.712   2.126  12.779 -0.1660  0.0352  0.1146
 1580TIP3    H126155   1.623   2.143  12.810 -0.1473  0.5802 -0.1053
 1580TIP3    H226156   1.768   2.140  12.856 -0.0331  2.2390 -0.3098
 1581TIP3   OH226157   1.456   2.744  17.060 -0.0706 -0.3149 -0.2992
 1581TIP3    H126158   1.512   2.731  16.984  1.9074  3.1300  0.3660
 1581TIP3    H226159   1.492   2.686  17.127  0.3446 -0.8299 -0.9621
 1582TIP3   OH226160   5.663   0.777  17.000 -0.5456  0.1433  0.2158
 1582TIP3    H126161   5.620   0.781  17.086  0.1351 -1.8033  0.7047
 1582TIP3    H226162   5.703   0.690  16.998  0.2236  0.5017 -1.7257
 1583TIP3   OH226163   2.448   3.812   0.307  0.0312 -0.1481 -0.2110
 1583TIP3    H126164   2.374   3.770   0.263  0.4896 -0.0886 -1.0714
 1583TIP3    H226165   2.440   3.786   0.399 -0.3457 -1.1679 -0.5195
 1584TIP3   OH226166   2.383   6.560  11.954 -0.4779  0.2102  0.7317
 1584TIP3    H126167   2.298   6.602  11.944 -0.3782  0.6534  1.6489
 1584TIP3    H226168   2.415   6.548  11.865 -0.8748  1.3200  0.4286
 1585TIP3   OH226169   6.749   5.315  10.355 -0.2434 -0.6718  0.1948
 1585TIP3    H126170   6.764   5.396  10.404 -1.2052 -0.8527  0.8340
 1585TIP3    H226171   6.833   5.294  10.316  0.2183  0.2041  0.6869
 1586TIP3   OH226172   6.801   3.499   2.667  0.2065  0.3466  1.0642
 1586TIP3    H126173   6.890   3.468   2.653 -0.5773 -1.3542 -0.7046
 1586TIP3    H226174   6.809   3.595   2.671  1.9526  0.3507 -0.7016
 1587TIP3   OH226175   0.783   4.945  13.035  0.3919  0.4473 -0.1122
 1587TIP3    H126176   0.809   4.908  13.119 -0.0781 -0.9586 -0.5638
 1587TIP3    H226177   0.852   4.918  12.974 -0.2568 -0.1859 -0.5691
 1588TIP3   OH226178   0.664   2.651   1.450 -0.0760 -0.4022 -0.4297
 1588TIP3    H126179   0.571   2.671   1.439  0.4249  0.5339 -4.2527
 1588TIP3    H226180   0.669   2.556   1.442 -0.6660 -0.4393 -0.4255
 1589TIP3   OH226181   2.715   1.939  10.632 -0.1474  0.5903 -0.2259
 1589TIP3    H126182   2.620   1.939  10.625 -0.2560 -0.7393  0.8600
 1589TIP3    H226183   2.743   2.009  10.572 -1.7149  0.0546 -1.6825
 1590TIP3   OH226184   3.573   4.666   0.168  0.5316 -0.0898  0.4901
 1590TIP3    H126185   3.532   4.746   0.201  0.5286 -0.3454  1.1214
 1590TIP3    H226186   3.499   4.608   0.149  0.5457 -0.0708  0.3815
 1591TIP3   OH226187   5.817   3.871  15.327  0.2786  0.2087 -0.9704
 1591TIP3    H126188   5.848   3.884  15.238  2.0934 -1.2697 -0.6290
 1591TIP3    H226189   5.822   3.776  15.341  0.2435  0.4186  0.7403
 1592TIP3   OH226190   6.468   4.452   3.062  0.2939 -0.2458  0.5653
 1592TIP3    H126191   6.549   4.426   3.105  1.4670 -0.7839 -1.8092
 1592TIP3    H226192   6.424   4.369   3.042 -1.2703  0.0532  2.4601
 1593TIP3   OH226193   1.800   4.600  11.841 -0.5349 -0.6894  0.2255
 1593TIP3    H126194   1.751   4.593  11.760  1.3687  0.4900 -1.1034
 1593TIP3    H226195   1.768   4.680  11.882 -2.0190 -1.6628  1.0848
 1594TIP3   OH226196   6.503   3.583   2.350  0.1309  0.7215 -0.1165
 1594TIP3    H126197   6.511   3.499   2.396 -1.0304 -0.6120 -2.1946
 1594TIP3    H226198   6.484   3.559   2.259  0.0880  3.2567 -0.8534
 1595TIP3   OH226199   1.924   4.770   2.078  0.0363  0.2194  0.2926
 1595TIP3    H126200   1.883   4.748   2.162  1.1806 -0.6619  0.6499
 1595TIP3    H226201   2.017   4.775   2.098  0.2558  0.6789 -0.7970
 1596TIP3   OH226202   0.760   2.224  13.635 -0.7196  0.0856 -0.5752
 1596TIP3    H126203   0.704   2.194  13.564  0.7633 -2.9305 -0.6193
 1596TIP3    H226204   0.812   2.295  13.597  0.3258 -1.7177 -2.7224
 1597TIP3   OH226205   2.296   5.057   2.081 -0.1471 -0.6753 -0.1541
 1597TIP3    H126206   2.378   5.082   2.123 -0.8190 -0.8719  1.3114
 1597TIP3    H226207   2.291   5.113   2.003  0.9526 -0.0547  0.2067
 1598TIP3   OH226208   5.304   2.219  17.046  0.4345  0.0509  0.0873
 1598TIP3    H126209   5.393   2.208  17.080  0.0942  0.6542  1.2317
 1598TIP3    H226210   5.282   2.134  17.008  0.3350 -1.1819  2.6553
 1599TIP3   OH226211   5.917   6.476   1.728 -0.2596 -0.1723  0.3887
 1599TIP3    H126212   5.869   6.525   1.662 -1.4520  1.2365  2.2137
 1599TIP3    H226213   5.860   6.402   1.749  0.8230 -1.5352 -1.2050
 1600TIP3   OH226214   6.179   4.625  11.614  0.5729  0.1586  0.2344
 1600TIP3    H126215   6.108   4.687  11.634  1.3262  0.5718  1.7705
 1600TIP3    H226216   6.194   4.579  11.696  2.2981  0.3102  0.0388
 1601TIP3   OH226217   2.929   5.286  15.568 -0.3328 -0.2329  0.7167
 1601TIP3    H126218   2.990   5.336  15.622 -0.3533  2.0000 -1.1644
 1601TIP3    H226219   2.982   5.215  15.532  0.8147  0.7988  0.2989
 1602TIP3   OH226220   6.322   4.656   5.100  0.4891 -0.0777  0.0288
 1602TIP3    H126221   6.383   4.720   5.136 -2.5912  2.1952  1.6362
 1602TIP3    H226222   6.321   4.674   5.006 -0.8567  2.9122  0.5114
 1603TIP3   OH226223   0.033   3.132   2.653  0.0288  0.2444  0.5245
 1603TIP3    H126224   0.039   3.202   2.588 -2.2401  0.5222  0.5258
 1603TIP3    H226225   0.116   3.136   2.701  1.1640  0.9735 -1.3825
 1604TIP3   OH226226   1.275   5.969   2.632  0.2435 -0.3434  0.7078
 1604TIP3    H126227   1.336   6.043   2.635 -1.3360  0.9812  2.9712
 1604TIP3    H226228   1.188   6.008   2.642 -0.6660 -2.4765  1.8259
 1605TIP3   OH226229   2.624   4.068   3.727  0.2144 -0.5548 -0.1090
 1605TIP3    H126230   2.538   4.056   3.686 -0.3446 -2.9514  1.6017
 1605TIP3    H226231   2.637   4.163   3.725 -1.6821 -0.2384 -1.9110
 1606TIP3   OH226232   0.644   1.480  16.282  1.1081  0.3700 -0.1092
 1606TIP3    H126233   0.602   1.565  16.294  2.5968  0.8947  1.8881
 1606TIP3    H226234   0.585   1.418  16.327  0.3131  0.3911 -1.0783
 1607TIP3   OH226235   2.057   5.105   6.298  0.1491  0.3502 -0.0163
 1607TIP3    H126236   2.000   5.127   6.372  0.4650 -0.7759  0.5930
 1607TIP3    H226237   2.106   5.185   6.281  1.9092  0.0083  2.7021
 1608TIP3   OH226238   5.655   5.633   1.739 -0.6656 -0.0804  0.0799
 1608TIP3    H126239   5.716   5.637   1.665  1.6863 -2.9484  1.6288
 1608TIP3    H226240   5.586   5.573   1.710 -1.9588  1.8794 -1.0886
 1609TIP3   OH226241   0.963   5.351   3.017 -0.0792 -0.8491 -0.5106
 1609TIP3    H126242   0.935   5.422   2.960 -0.0236 -0.9899 -0.7147
 1609TIP3    H226243   0.892   5.341   3.080  1.3179  1.6190  1.6215
 1610TIP3   OH226244   4.622   0.954   2.620 -0.3859 -0.2325  0.9719
 1610TIP3    H126245   4.634   0.951   2.714 -1.1253 -0.8881  1.0569
 1610TIP3    H226246   4.535   0.916   2.605 -1.1632  1.7245  0.1853
 1611TIP3   OH226247   2.509   5.748  13.728  0.3021  0.1871 -0.0620
 1611TIP3    H126248   2.501   5.665  13.774  0.6919  0.5214  0.6178
 1611TIP3    H226249   2.428   5.795  13.748  0.6007  0.4557  0.5460
 1612TIP3   OH226250   5.199   3.223   0.613  0.2910 -1.0588  0.4525
 1612TIP3    H126251   5.189   3.145   0.668 -2.0306 -1.4793 -0.4590
 1612TIP3    H226252   5.205   3.189   0.523 -0.5314 -0.2439  0.0605
 1613TIP3   OH226253   4.473   6.700   5.527 -0.8499  0.8534 -0.2277
 1613TIP3    H126254   4.457   6.793   5.511 -1.1097  1.2292  1.9059
 1613TIP3    H226255   4.393   6.657   5.495 -0.9528  1.4055 -0.7458
 1614TIP3   OH226256   0.265   6.093  11.060  0.6869  0.1907 -0.3983
 1614TIP3    H126257   0.272   6.038  11.138  1.6530 -1.7152 -1.7259
 1614TIP3    H226258   0.264   6.182  11.093  0.6741 -0.5639  1.8011
 1615TIP3   OH226259   5.656   0.346  16.176 -0.0147 -0.3249  0.4073
 1615TIP3    H126260   5.683   0.431  16.211  1.0804 -0.6106  0.3001
 1615TIP3    H226261   5.583   0.366  16.117 -0.8208  0.3427  1.5737
 1616TIP3   OH226262   3.576   3.856  14.689 -0.0621  0.2786  0.1536
 1616TIP3    H126263   3.547   3.828  14.776 -0.5657 -0.1662 -0.1499
 1616TIP3    H226264   3.496   3.854  14.636  0.5363 -1.2295 -0.7656
 1617TIP3   OH226265   5.650   2.267  15.249 -0.3302 -0.4976  0.7652
 1617TIP3    H126266   5.597   2.342  15.276 -2.9742 -1.2237 -1.9557
 1617TIP3    H226267   5.598   2.190  15.274  1.1746 -1.4070  1.2626
 1618TIP3   OH226268   0.125   1.831   5.041  0.0870  0.1847  0.4087
 1618TIP3    H126269   0.119   1.831   5.137 -1.0280 -0.5744  0.3496
 1618TIP3    H226270   0.214   1.802   5.023  0.7721  1.6405  1.2123
 1619TIP3   OH226271   2.290   2.797   0.169  0.0074  0.5629 -0.2521
 1619TIP3    H126272   2.354   2.812   0.100  1.8216 -1.2380  0.9159
 1619TIP3    H226273   2.301   2.872   0.228 -0.4925  1.3455 -1.1395
 1620TIP3   OH226274   1.244   5.891  14.956  0.1995 -0.2972 -0.4963
 1620TIP3    H126275   1.200   5.846  15.028 -0.1882  2.1290  0.8899
 1620TIP3    H226276   1.173   5.927  14.903  0.5046 -0.8593 -1.3107
 1621TIP3   OH226277   5.847   1.691  12.623  0.1248 -0.0192  0.3611
 1621TIP3    H126278   5.809   1.700  12.711  1.0518 -0.6228  0.8398
 1621TIP3    H226279   5.806   1.761  12.572 -0.4467  0.3284  1.2643
 1622TIP3   OH226280   2.745   1.899  13.504 -0.3253 -0.0311 -0.0017
 1622TIP3    H126281   2.662   1.909  13.456 -0.7927  0.4919  0.8846
 1622TIP3    H226282   2.754   1.805  13.517 -1.0918 -0.0508  0.4216
 1623TIP3   OH226283   4.859   2.089   5.765  0.1886  0.3847 -0.2177
 1623TIP3    H126284   4.894   2.010   5.806 -2.0136  1.3004  3.9842
 1623TIP3    H226285   4.934   2.148   5.760  1.2041 -0.8698 -0.5380
 1624TIP3   OH226286   4.835   3.100   0.817 -0.2556 -0.8712 -0.1263
 1624TIP3    H126287   4.873   3.103   0.729  1.9937 -0.7919  0.7958
 1624TIP3    H226288   4.807   3.009   0.829 -0.2090 -0.9722 -0.7587
 1625TIP3   OH226289   3.340   3.150   3.136  0.2129 -0.2519 -0.0380
 1625TIP3    H126290   3.400   3.223   3.121  0.2300 -0.6882 -2.7788
 1625TIP3    H226291   3.395   3.079   3.167  1.0274 -0.3833 -1.6760
 1626TIP3   OH226292   5.349   4.114   6.206  0.0405  0.4340 -0.5878
 1626TIP3    H126293   5.305   4.150   6.129 -0.1777 -0.0852 -0.7123
 1626TIP3    H226294   5.300   4.034   6.226  0.4221  0.2879 -0.2268
 1627TIP3   OH226295   2.311   0.362  16.937 -0.5125  0.5627  0.0421
 1627TIP3    H126296   2.384   0.314  16.977 -0.3652 -0.5192 -1.4477
 1627TIP3    H226297   2.337   0.454  16.941  0.5137  0.2697  0.3591
 1628TIP3   OH226298   5.393   6.126  11.049 -0.7066 -0.1301  0.2036
 1628TIP3    H126299   5.392   6.035  11.080  1.5983 -0.0111  0.7920
 1628TIP3    H226300   5.464   6.167  11.097 -1.5589  1.9649 -0.2227
 1629TIP3   OH226301   4.104   0.952   3.127 -0.3585  0.1151 -0.4076
 1629TIP3    H126302   4.051   0.873   3.122  0.1251 -0.3949  1.7101
 1629TIP3    H226303   4.176   0.930   3.186  0.4172  1.7951 -0.6379
 1630TIP3   OH226304   5.589   3.727  14.967 -0.1201 -0.3135  0.0720
 1630TIP3    H126305   5.632   3.702  15.049  0.1769 -3.2097 -0.8540
 1630TIP3    H226306   5.646   3.692  14.898 -0.8107  1.2851 -1.3974
 1631TIP3   OH226307   2.465   3.601   2.252  0.1902  0.8804  0.7099
 1631TIP3    H126308   2.416   3.683   2.250 -0.3076  0.5817 -0.2990
 1631TIP3    H226309   2.508   3.601   2.337 -1.9914  0.9163  1.8933
 1632TIP3   OH226310   2.438   3.587  16.163 -0.6543 -0.9334  0.2186
 1632TIP3    H126311   2.497   3.512  16.163 -0.1258 -0.5301  0.4706
 1632TIP3    H226312   2.477   3.648  16.099 -2.6936 -2.0820 -2.3003
 1633TIP3   OH226313   0.136   4.461  11.550 -0.0228  0.1059  0.1851
 1633TIP3    H126314   0.102   4.490  11.635  1.3964  1.1634  0.4143
 1633TIP3    H226315   0.100   4.372  11.539 -0.5773  0.1212  1.6817
 1634TIP3   OH226316   2.440   3.427  13.506  0.2514 -0.0110  1.1632
 1634TIP3    H126317   2.389   3.495  13.461 -0.1419 -1.0188  0.0185
 1634TIP3    H226318   2.374   3.374  13.551  0.3823 -0.5701  0.7166
 1635TIP3   OH226319   2.019   6.503  15.295 -0.0305 -0.2209 -0.0670
 1635TIP3    H126320   1.952   6.545  15.349  0.7094  0.8729  0.0326
 1635TIP3    H226321   2.092   6.564  15.295  0.6079 -0.9462 -0.9749
 1636TIP3   OH226322   1.710   3.399   4.704  0.0688 -0.3047  0.2198
 1636TIP3    H126323   1.786   3.343   4.684 -0.4267 -0.6768 -0.6818
 1636TIP3    H226324   1.650   3.341   4.751  0.1862 -0.1044  0.6229
 1637TIP3   OH226325   3.883   4.747  12.148 -0.2859  0.1571  0.4682
 1637TIP3    H126326   3.812   4.683  12.155 -0.0406 -0.3652 -1.2238
 1637TIP3    H226327   3.911   4.762  12.238 -0.7654 -1.6781  0.9727
 1638TIP3   OH226328   4.415   3.676  15.338  0.3474 -0.2912  0.7684
 1638TIP3    H126329   4.379   3.737  15.274  1.3309 -0.6629 -0.1684
 1638TIP3    H226330   4.509   3.695  15.339  0.3479 -0.2336  2.1825
 1639TIP3   OH226331   2.643   0.562  12.132  0.1299 -1.0368 -0.5715
 1639TIP3    H126332   2.619   0.475  12.102 -0.6737 -1.7933  2.0291
 1639TIP3    H226333   2.570   0.618  12.105 -0.3511 -1.5871 -0.4218
 1640TIP3   OH226334   5.125   6.436   2.444 -0.4025  0.8970  0.2966
 1640TIP3    H126335   5.130   6.363   2.506  0.6865  0.8400  0.1655
 1640TIP3    H226336   5.143   6.514   2.496 -1.6484  1.0942  0.4519
 1641TIP3   OH226337   1.996   1.149   0.647  0.0847  0.4633 -0.0836
 1641TIP3    H126338   2.006   1.111   0.735 -2.1928 -1.3809 -0.5323
 1641TIP3    H226339   1.904   1.135   0.625  0.3034  2.0110 -2.2931
 1642TIP3   OH226340   4.175   2.722  13.555 -0.2791  0.1147  0.0847
 1642TIP3    H126341   4.109   2.667  13.513  1.7290 -3.3175  1.0968
 1642TIP3    H226342   4.131   2.760  13.630 -0.9946 -2.8618  1.3003
 1643TIP3   OH226343   6.147   1.787  14.683 -0.3296  0.2715 -0.4764
 1643TIP3    H126344   6.224   1.805  14.737 -0.1468  0.1301 -0.6883
 1643TIP3    H226345   6.085   1.746  14.743  0.5093 -1.4779 -0.7272
 1644TIP3   OH226346   6.496   1.328   5.534  0.5504  0.3473 -0.4827
 1644TIP3    H126347   6.449   1.319   5.616 -0.0223 -2.5360 -1.0264
 1644TIP3    H226348   6.434   1.372   5.475  1.1703  2.9630  0.6653
 1645TIP3   OH226349   4.883   4.402   1.953 -0.3429 -0.0271 -0.5430
 1645TIP3    H126350   4.855   4.439   2.037  1.7089 -1.8237  1.0267
 1645TIP3    H226351   4.822   4.329   1.938 -0.5495  0.1297 -0.4719
 1646TIP3   OH226352   6.041   3.356  15.836  0.4496 -0.4163 -0.1141
 1646TIP3    H126353   6.112   3.410  15.803  0.9114  0.4599  2.1631
 1646TIP3    H226354   5.961   3.401  15.807  0.7741 -0.8378 -1.7783
 1647TIP3   OH226355   2.054   0.550   1.630  0.3951 -0.2754  1.0295
 1647TIP3    H126356   2.135   0.577   1.672  1.7982  0.5049 -1.8897
 1647TIP3    H226357   1.992   0.620   1.650  1.5356  0.9600  0.4137
 1648TIP3   OH226358   5.286   1.401  11.980  0.0780 -0.2263  0.9513
 1648TIP3    H126359   5.354   1.352  11.933 -0.2604  1.6059 -1.6655
 1648TIP3    H226360   5.215   1.337  11.992  0.1531 -0.7953 -1.1812
 1649TIP3   OH226361   4.629   6.138   5.294  0.4990 -0.7164 -0.4963
 1649TIP3    H126362   4.618   6.104   5.205  0.0216 -0.3459 -0.5865
 1649TIP3    H226363   4.663   6.227   5.281  0.3196 -0.6207 -0.3106
 1650TIP3   OH226364   5.065   1.354  11.376 -0.0566  0.5196 -0.0851
 1650TIP3    H126365   5.093   1.351  11.284 -0.9807 -0.1088 -0.3581
 1650TIP3    H226366   4.989   1.296  11.380  0.6849 -0.4153  1.3298
 1651TIP3   OH226367   4.578   1.394  14.440 -0.7906 -0.2195  0.0946
 1651TIP3    H126368   4.495   1.374  14.483 -1.8119  0.9301 -1.2147
 1651TIP3    H226369   4.570   1.352  14.354  1.1672 -2.4216  0.8955
 1652TIP3   OH226370   4.417   3.680   3.444  0.3116  0.1409 -0.8003
 1652TIP3    H126371   4.468   3.641   3.515  2.2133  0.0750 -2.1299
 1652TIP3    H226372   4.367   3.751   3.486  2.5133  1.0861  0.3890
 1653TIP3   OH226373   2.901   6.542   2.579 -0.1183  0.2562 -0.4827
 1653TIP3    H126374   2.840   6.610   2.553 -1.0998 -1.2568 -2.3764
 1653TIP3    H226375   2.868   6.510   2.663  0.3252  1.9861  0.4026
 1654TIP3   OH226376   3.145   4.121  14.558  0.3351 -0.0653 -0.2112
 1654TIP3    H126377   3.230   4.100  14.518  1.4085  0.7021  1.5443
 1654TIP3    H226378   3.166   4.184  14.627 -1.8045  0.8758 -0.3361
 1655TIP3   OH226379   0.207   2.728  13.500  0.7459  0.1458  0.0303
 1655TIP3    H126380   0.122   2.769  13.515  0.6311 -0.6817  1.8640
 1655TIP3    H226381   0.265   2.767  13.565  1.0325 -1.3661  0.7374
 1656TIP3   OH226382   5.146   4.894  12.855 -0.0243  0.6453  0.1759
 1656TIP3    H126383   5.199   4.971  12.834 -2.0578  2.3382  0.8858
 1656TIP3    H226384   5.210   4.824  12.869  1.9484  2.3423  0.1651
 1657TIP3   OH226385   1.324   3.383  13.154 -0.1073 -0.0561  0.1871
 1657TIP3    H126386   1.344   3.419  13.240  0.3476  2.0467 -0.7422
 1657TIP3    H226387   1.230   3.363  13.158 -0.8595  3.0028  0.2377
 1658TIP3   OH226388   1.934   3.355   5.795 -0.5915 -0.2286  0.0202
 1658TIP3    H126389   2.011   3.298   5.796 -1.7300 -1.8978 -1.2200
 1658TIP3    H226390   1.947   3.413   5.870  1.4604 -0.9864  0.3363
 1659TIP3   OH226391   4.289   2.074   4.461 -0.1378  0.2447  0.5021
 1659TIP3    H126392   4.325   2.021   4.533  0.2675  0.8008  0.7151
 1659TIP3    H226393   4.352   2.065   4.390 -0.4634 -0.1829  0.2637
 1660TIP3   OH226394   6.098   1.429   3.172  0.2416  0.3250  0.2723
 1660TIP3    H126395   6.073   1.356   3.229 -2.5656  1.0119  0.0403
 1660TIP3    H226396   6.038   1.423   3.098  2.8970  0.2713 -2.0674
 1661TIP3   OH226397   3.770   2.748   1.207  0.0210 -0.0634  0.0412
 1661TIP3    H126398   3.717   2.734   1.128  1.5575  1.5948 -1.3913
 1661TIP3    H226399   3.795   2.660   1.235  0.2701 -0.6788 -1.9538
 1662TIP3   OH226400   5.782   0.536   3.686  0.5000 -0.4097 -0.6679
 1662TIP3    H126401   5.728   0.579   3.619  2.2259  0.6711 -1.4369
 1662TIP3    H226402   5.837   0.476   3.636  0.3637 -1.1468  0.0508
 1663TIP3   OH226403   0.108   2.772   3.184 -0.4543 -0.1280 -0.1623
 1663TIP3    H126404   0.156   2.710   3.238 -1.1223 -0.9007 -0.4400
 1663TIP3    H226405   0.176   2.821   3.137  0.0863 -0.4265  0.3045
 1664TIP3   OH226406   2.593   4.300  13.750  0.1328 -0.4353  0.2986
 1664TIP3    H126407   2.611   4.372  13.689 -1.2987  2.2475  2.8070
 1664TIP3    H226408   2.502   4.275  13.732  0.4950 -1.3861 -0.2846
 1665TIP3   OH226409   5.974   6.346  14.364 -0.5900  0.0304  0.0300
 1665TIP3    H126410   6.039   6.336  14.295  0.9765  0.9001  1.3235
 1665TIP3    H226411   5.988   6.434  14.399 -0.7916 -0.6541  1.9853
 1666TIP3   OH226412   3.742   6.124   4.198  0.4018 -0.1715 -0.1638
 1666TIP3    H126413   3.672   6.178   4.235  0.9418  0.8310 -0.5456
 1666TIP3    H226414   3.701   6.078   4.125 -0.3194 -1.0879  0.7766
 1667TIP3   OH226415   3.945   5.426   4.214 -0.1861  0.0978 -0.3839
 1667TIP3    H126416   4.000   5.426   4.136  0.7861 -0.1962  0.2793
 1667TIP3    H226417   4.003   5.396   4.284 -0.7727  1.2560  0.6305
 1668TIP3   OH226418   4.963   1.050   1.040 -0.1075  0.1760  0.1842
 1668TIP3    H126419   4.907   0.974   1.025  1.2195 -0.7663 -0.2100
 1668TIP3    H226420   4.935   1.114   0.974 -1.2294  0.0426  0.5137
 1669TIP3   OH226421   2.827   5.565  14.723 -0.5581 -0.7248 -0.0795
 1669TIP3    H126422   2.737   5.534  14.729 -0.2425 -1.8144 -0.7479
 1669TIP3    H226423   2.830   5.641  14.781 -1.9255 -0.6162 -0.1180
 1670TIP3   OH226424   4.738   4.219   1.442  0.2381  0.3585 -0.0750
 1670TIP3    H126425   4.726   4.301   1.394 -1.4164 -0.2978 -0.8617
 1670TIP3    H226426   4.680   4.226   1.517  0.3883  0.0776  0.0673
 1671TIP3   OH226427   5.613   3.022  11.397  0.1354  0.3213  0.6028
 1671TIP3    H126428   5.644   3.017  11.487  0.5200 -1.1426  0.4153
 1671TIP3    H226429   5.519   3.006  11.402  0.1841  0.0776  0.7180
 1672TIP3   OH226430   6.342   2.173  13.228 -0.2356  0.1661 -0.2891
 1672TIP3    H126431   6.265   2.155  13.175 -0.3800  1.4603 -0.5738
 1672TIP3    H226432   6.310   2.174  13.318 -0.8520  1.8941 -0.4823
 1673TIP3   OH226433   0.081   1.716   1.122  0.1966 -0.0824 -0.3734
 1673TIP3    H126434   0.042   1.796   1.089  1.5365  0.8778  0.2947
 1673TIP3    H226435   0.020   1.647   1.095 -2.2010  1.3402  0.9939
 1674TIP3   OH226436   2.391   6.135   2.173  0.2450 -0.5607  0.0206
 1674TIP3    H126437   2.389   6.230   2.165 -2.5087 -0.3225  1.9538
 1674TIP3    H226438   2.358   6.118   2.261  1.5593 -3.3239  0.0792
 1675TIP3   OH226439   4.433   2.723   1.298  0.4934 -0.1997 -0.3219
 1675TIP3    H126440   4.388   2.728   1.214 -1.8408 -1.6094  0.7257
 1675TIP3    H226441   4.433   2.814   1.331  0.2036  0.1371 -1.2362
 1676TIP3   OH226442   2.034   6.695   2.410  0.1285 -0.1205 -0.1736
 1676TIP3    H126443   1.970   6.626   2.426 -1.1366  0.9259 -0.6172
 1676TIP3    H226444   2.017   6.724   2.320  1.8450 -0.4404 -0.6377
 1677TIP3   OH226445   5.992   0.517  11.435  0.2672  0.1507  0.2360
 1677TIP3    H126446   6.029   0.475  11.357 -1.3649  2.7358 -2.0932
 1677TIP3    H226447   5.916   0.464  11.457 -0.1645  0.2635 -0.9309
 1678TIP3   OH226448   1.888   2.821  13.234  0.2380 -0.4721 -0.0286
 1678TIP3    H126449   1.840   2.745  13.200 -0.7044 -0.3396  0.9742
 1678TIP3    H226450   1.897   2.803  13.328  0.5220  0.3844  0.1105
 1679TIP3   OH226451   1.397   0.706   2.558 -0.3218  0.6236  0.1577
 1679TIP3    H126452   1.404   0.769   2.487  0.2232 -0.5863 -0.8895
 1679TIP3    H226453   1.309   0.670   2.550 -1.0329  1.9773  1.4213
 1680TIP3   OH226454   3.479   6.793  12.892  0.0314  0.0405  0.2293
 1680TIP3    H126455   3.545   6.853  12.857 -0.7210 -0.6852 -2.7721
 1680TIP3    H226456   3.528   6.716  12.919  0.7101  0.8525  1.3745
 1681TIP3   OH226457   0.496   0.275   2.821  0.0716  0.0411  0.1627
 1681TIP3    H126458   0.585   0.309   2.835 -0.6971  1.5581  1.8504
 1681TIP3    H226459   0.486   0.273   2.726  0.9805  2.5365 -0.0775
 1682TIP3   OH226460   1.304   4.483  13.420  0.3102 -0.2954  0.5713
 1682TIP3    H126461   1.241   4.446  13.357 -0.8191  1.6709  0.4656
 1682TIP3    H226462   1.366   4.413  13.435 -1.8702 -2.3502  0.6405
 1683TIP3   OH226463   4.217   0.926  15.027  0.4873 -0.9161 -0.2589
 1683TIP3    H126464   4.137   0.900  14.981 -0.1416  0.1433  0.2082
 1683TIP3    H226465   4.188   0.989  15.093  1.5924 -1.2039  0.5372
 1684TIP3   OH226466   4.385   1.949   1.032 -0.0673 -0.2214  0.2132
 1684TIP3    H126467   4.317   1.992   1.083  0.1460 -0.2404  0.5151
 1684TIP3    H226468   4.367   1.855   1.041  0.5705 -0.2658  1.0963
 1685TIP3   OH226469   2.928   0.730  16.605 -0.0401 -0.2926  0.6631
 1685TIP3    H126470   2.977   0.795  16.656 -0.0771 -0.6292  1.1321
 1685TIP3    H226471   2.891   0.780  16.532  0.6063  0.0563  0.5650
 1686TIP3   OH226472   3.584   5.098   1.874 -0.0541 -0.6280  0.5444
 1686TIP3    H126473   3.538   5.080   1.792  0.2621  1.7132 -0.2163
 1686TIP3    H226474   3.660   5.150   1.848  2.1569 -2.9322  1.9432
 1687TIP3   OH226475   0.209   2.103  14.340 -0.0311 -0.1607 -0.0440
 1687TIP3    H126476   0.292   2.090  14.294  0.3310  0.1962  0.4952
 1687TIP3    H226477   0.175   2.015  14.355 -0.8057 -0.2731 -2.1285
 1688TIP3   OH226478   4.487   3.669  14.127  0.1648  0.5615  0.2446
 1688TIP3    H126479   4.529   3.746  14.167  0.0121 -0.4476  2.4939
 1688TIP3    H226480   4.503   3.598  14.189 -0.0436 -1.1624 -1.5869
 1689TIP3   OH226481   5.529   0.390   3.923  0.2448 -0.1275  0.0192
 1689TIP3    H126482   5.533   0.298   3.946  1.5576 -0.5015 -1.5338
 1689TIP3    H226483   5.452   0.398   3.867  0.0946 -0.2625  0.2068
 1690TIP3   OH226484   5.233   5.009  15.437  0.8965 -0.7626  0.3283
 1690TIP3    H126485   5.196   5.001  15.525 -0.1303  0.2321  0.0130
 1690TIP3    H226486   5.288   4.932  15.427 -0.4871 -1.8955  1.1233
 1691TIP3   OH226487   6.483   6.046  14.426  0.2037  0.1978 -0.2145
 1691TIP3    H126488   6.456   6.114  14.364  1.6004  0.6339 -0.3721
 1691TIP3    H226489   6.462   5.964  14.382 -0.3100  0.5054 -0.5640
 1692TIP3   OH226490   1.561   1.726  16.729 -0.1050 -0.7678  0.0396
 1692TIP3    H126491   1.614   1.668  16.784 -0.0522 -1.9094 -1.1669
 1692TIP3    H226492   1.518   1.667  16.667  0.0344  0.5002 -1.2997
 1693TIP3   OH226493   0.299   5.136   2.626  0.1231  0.2880  0.2111
 1693TIP3    H126494   0.242   5.062   2.645  0.3755 -0.2797 -1.1394
 1693TIP3    H226495   0.273   5.165   2.539  0.3928  1.4681  0.4926
 1694TIP3   OH226496   0.340   3.763  13.364 -0.4447 -0.2040 -0.1356
 1694TIP3    H126497   0.313   3.680  13.403 -0.5452 -0.0018  0.2291
 1694TIP3    H226498   0.261   3.796  13.322 -0.9760  0.6887  1.4610
 1695TIP3   OH226499   0.168   5.279  13.941  0.1862  0.1960  0.3278
 1695TIP3    H126500   0.140   5.191  13.917  0.7228  0.3479 -0.9189
 1695TIP3    H226501   0.255   5.288  13.902  1.5074  0.1924  3.0365
 1696TIP3   OH226502   1.589   5.898   0.390 -0.3378 -0.3565 -0.0694
 1696TIP3    H126503   1.660   5.833   0.386 -0.0339 -0.0198 -0.2083
 1696TIP3    H226504   1.514   5.849   0.422 -0.0802 -0.7544 -0.0636
 1697TIP3   OH226505   3.271   1.435   0.219 -0.1342 -0.0478 -0.4802
 1697TIP3    H126506   3.234   1.365   0.273 -1.5352 -0.2975 -1.7217
 1697TIP3    H226507   3.262   1.404   0.129  1.4003  0.7309 -0.9464
 1698TIP3   OH226508   3.750   2.656   5.875 -0.0529  0.2683  0.1689
 1698TIP3    H126509   3.690   2.600   5.826  0.2348 -0.6039  0.7884
 1698TIP3    H226510   3.758   2.613   5.960  1.4791  0.3502  0.0846
 1699TIP3   OH226511   6.608   4.636   1.772  0.1014 -0.2198 -0.1313
 1699TIP3    H126512   6.640   4.726   1.787  0.6997  0.1477 -3.0490
 1699TIP3    H226513   6.515   4.647   1.752 -0.0162 -0.3782  0.3053
 1700TIP3   OH226514   2.522   5.504   5.852  0.1296 -0.4729  0.0693
 1700TIP3    H126515   2.612   5.528   5.830  0.4633  0.6669  2.3499
 1700TIP3    H226516   2.468   5.570   5.808  0.5320 -0.2003 -0.0231
 1701TIP3   OH226517   6.348   5.889  11.541  0.3547 -0.6579  0.4876
 1701TIP3    H126518   6.285   5.884  11.612  0.3164  1.0958  0.6283
 1701TIP3    H226519   6.432   5.907  11.584  1.0072 -2.9847  0.3053
 1702TIP3   OH226520   6.557   3.038   1.783 -0.1725  0.3476 -0.1243
 1702TIP3    H126521   6.552   3.032   1.687  0.3511  0.8872 -0.1881
 1702TIP3    H226522   6.627   2.978   1.808 -0.8507 -0.4086 -0.0025
 1703TIP3   OH226523   3.062   3.583  11.018 -0.1206  0.0143  0.0036
 1703TIP3    H126524   3.108   3.564  11.099  2.4959 -3.7847 -2.0576
 1703TIP3    H226525   3.057   3.679  11.015  1.0224  0.3649  3.8067
 1704TIP3   OH226526   4.251   4.265  11.446 -0.1371  0.0643 -0.4033
 1704TIP3    H126527   4.327   4.273  11.504  2.0894 -0.3927 -3.0501
 1704TIP3    H226528   4.250   4.347  11.396  0.6089 -1.1557 -2.5487
 1705TIP3   OH226529   0.995   5.543   5.194 -0.4651 -0.6412 -0.4930
 1705TIP3    H126530   0.908   5.577   5.173 -0.0544  0.8457  0.1111
 1705TIP3    H226531   0.984   5.499   5.279 -0.6616 -0.6396 -0.5172
 1706TIP3   OH226532   1.806   6.638   3.047 -0.1735 -0.1105  0.4509
 1706TIP3    H126533   1.883   6.616   3.098  0.3812 -0.9495 -0.7112
 1706TIP3    H226534   1.827   6.611   2.958 -1.9917 -0.8167  0.1917
 1707TIP3   OH226535   1.592   1.236   3.345 -0.0621 -0.2656 -0.3096
 1707TIP3    H126536   1.639   1.168   3.394 -1.5249 -0.5270  0.8066
 1707TIP3    H226537   1.540   1.281   3.411 -2.1073 -0.6266 -1.5845
 1708TIP3   OH226538   5.472   2.604  15.054 -0.6889 -0.2882  0.1921
 1708TIP3    H126539   5.384   2.604  15.092 -0.8550 -1.0688 -0.1683
 1708TIP3    H226540   5.530   2.618  15.129 -1.1790  2.1477  0.2027
 1709TIP3   OH226541   4.708   2.747  12.997  0.0911 -0.0893 -0.0819
 1709TIP3    H126542   4.643   2.814  12.978 -1.3320 -0.6673  2.3634
 1709TIP3    H226543   4.690   2.678  12.933 -3.4800 -1.3118  2.0063
 1710TIP3   OH226544   4.475   1.931   2.541  0.1112 -0.6885  0.0768
 1710TIP3    H126545   4.480   1.955   2.634 -3.8562  2.5913 -0.2388
 1710TIP3    H226546   4.536   1.991   2.498  1.6190 -1.9046  0.4442
 1711TIP3   OH226547   0.777   6.580  14.622 -0.5432  0.1665 -0.2932
 1711TIP3    H126548   0.864   6.594  14.584  0.3399 -2.7760  0.3406
 1711TIP3    H226549   0.725   6.543  14.551 -0.8543  0.6299 -0.3071
 1712TIP3   OH226550   1.919   1.989   4.454  0.2029  0.1868  0.3442
 1712TIP3    H126551   1.854   1.966   4.522 -0.0789 -0.5085 -0.1443
 1712TIP3    H226552   1.960   1.906   4.432  0.2335  0.3952 -0.4008
 1713TIP3   OH226553   5.300   6.051  12.327 -0.0082  0.1289  0.1856
 1713TIP3    H126554   5.219   6.101  12.315 -0.3423 -0.3968  0.2361
 1713TIP3    H226555   5.290   5.974  12.271  0.2160 -0.2255  0.6251
 1714TIP3   OH226556   5.173   1.174  13.888 -0.1933 -0.0652  0.1774
 1714TIP3    H126557   5.225   1.242  13.932 -2.2140  1.2666  0.6359
 1714TIP3    H226558   5.228   1.146  13.815  1.1942  1.2155  0.6812
 1715TIP3   OH226559   5.119   1.078   0.226 -0.1179  0.1614 -0.2386
 1715TIP3    H126560   5.145   1.119   0.144  0.2544  0.0609 -0.1757
 1715TIP3    H226561   5.076   1.148   0.276  1.5764  0.8311  0.3648
 1716TIP3   OH226562   4.382   4.352  15.900  0.4713  0.0990  0.1730
 1716TIP3    H126563   4.433   4.272  15.884  0.6951 -0.3822  2.8030
 1716TIP3    H226564   4.438   4.405  15.957 -1.6950 -0.2942  2.8717
 1717TIP3   OH226565   3.771   2.987  14.685 -0.1763  0.0253  0.2541
 1717TIP3    H126566   3.714   3.047  14.734  0.5219  1.7913 -0.9696
 1717TIP3    H226567   3.837   3.044  14.647  0.4532 -1.5481 -1.1064
 1718TIP3   OH226568   3.641   2.737   5.610 -0.7188  0.1199 -0.0119
 1718TIP3    H126569   3.610   2.676   5.677  0.8830  0.2352  0.8651
 1718TIP3    H226570   3.673   2.681   5.539 -2.8760 -0.0043 -0.9703
 1719TIP3   OH226571   3.374   4.351  16.369 -0.1718 -0.3196  0.2643
 1719TIP3    H126572   3.412   4.368  16.283 -2.5608 -1.3185 -1.1025
 1719TIP3    H226573   3.374   4.436  16.413 -1.3686  0.8598 -1.8365
 1720TIP3   OH226574   5.177   4.831   0.568  0.5200 -0.0446 -0.3944
 1720TIP3    H126575   5.126   4.886   0.509 -1.3590 -0.6973  0.5483
 1720TIP3    H226576   5.233   4.779   0.509 -0.0384  0.5420 -1.4788
 1721TIP3   OH226577   5.728   3.202  12.899 -0.7629  0.4300  0.1058
 1721TIP3    H126578   5.753   3.279  12.951  0.4291  2.1052 -2.7599
 1721TIP3    H226579   5.638   3.183  12.927 -0.3146  1.3902  2.4822
 1722TIP3   OH226580   6.461   3.327  15.809 -0.4015  0.2138 -0.8862
 1722TIP3    H126581   6.394   3.395  15.809  1.0613  1.9101  2.4038
 1722TIP3    H226582   6.525   3.356  15.744 -0.3169  1.4413 -0.2748
 1723TIP3   OH226583   0.744   4.140  17.041  0.2605 -0.3347  0.0821
 1723TIP3    H126584   0.811   4.147  17.109 -0.0915 -0.3370  0.4329
 1723TIP3    H226585   0.730   4.231  17.013  0.1341 -0.2891  0.2850
 1724TIP3   OH226586   3.602   5.263  13.334 -1.1656  0.5557 -0.0559
 1724TIP3    H126587   3.672   5.214  13.378 -1.2085  1.0831  0.6316
 1724TIP3    H226588   3.618   5.354  13.360 -0.1616  1.1656 -2.5361
 1725TIP3   OH226589   4.476   4.480   4.308 -0.0704 -0.1793 -0.1389
 1725TIP3    H126590   4.425   4.560   4.293 -0.5517 -0.5812 -0.6916
 1725TIP3    H226591   4.440   4.443   4.388 -0.3854 -0.2551 -0.3154
 1726TIP3   OH226592   1.207   0.064   3.957  0.3382  0.1194  0.0465
 1726TIP3    H126593   1.186   0.089   3.867 -0.7941  1.6776  0.7089
 1726TIP3    H226594   1.303   0.067   3.960  0.3538  1.2618 -0.7949
 1727TIP3   OH226595   5.639   4.803   4.601  0.4140 -0.3007 -0.0245
 1727TIP3    H126596   5.611   4.723   4.558  0.0795 -0.2617  0.1216
 1727TIP3    H226597   5.734   4.795   4.606  0.3934 -0.6275 -0.1293
 1728TIP3   OH226598   6.618   6.699  13.932  0.4875  0.1035 -0.7010
 1728TIP3    H126599   6.523   6.693  13.945  0.5898  0.4269  0.1938
 1728TIP3    H226600   6.636   6.633  13.865 -0.2282 -0.6596 -0.1646
 1729TIP3   OH226601   0.452   3.905   0.328  0.4052  0.0838 -0.3351
 1729TIP3    H126602   0.514   3.952   0.384 -1.1725  0.3151  1.2876
 1729TIP3    H226603   0.422   3.971   0.266  1.1428  0.1799 -0.6021
 1730TIP3   OH226604   2.541   4.444  16.331 -0.0003 -0.1169  0.4651
 1730TIP3    H126605   2.608   4.382  16.302 -0.9361 -1.5067  1.1616
 1730TIP3    H226606   2.503   4.477  16.249  0.4169 -0.5837  0.0759
 1731TIP3   OH226607   3.621   5.781  12.673  0.1009 -0.2746 -0.0298
 1731TIP3    H126608   3.543   5.821  12.711  0.3384  0.5560 -0.3819
 1731TIP3    H226609   3.640   5.707  12.729 -1.3364 -0.9021 -0.3284
 1732TIP3   OH226610   1.168   5.491  13.184 -0.0939  0.0286  0.0577
 1732TIP3    H126611   1.125   5.406  13.178 -2.4924  0.9617  2.4634
 1732TIP3    H226612   1.260   5.470  13.199 -0.5240 -2.1076  0.0066
 1733TIP3   OH226613   0.705   5.075   3.919  0.3975 -0.0546 -0.6066
 1733TIP3    H126614   0.701   4.979   3.927 -1.8969  0.0854  0.9419
 1733TIP3    H226615   0.769   5.102   3.985 -1.1779 -0.4010  1.1403
 1734TIP3   OH226616   3.492   1.018   2.466 -0.6044  0.1726 -0.1555
 1734TIP3    H126617   3.505   0.951   2.399 -0.9303 -0.9027  0.8242
 1734TIP3    H226618   3.579   1.033   2.503 -0.5161  0.3719 -0.4375
 1735TIP3   OH226619   2.251   3.938   1.755  0.0900 -0.0989 -0.8053
 1735TIP3    H126620   2.255   3.862   1.697 -0.1639 -0.0339 -0.9074
 1735TIP3    H226621   2.174   3.922   1.810  1.4430 -1.1820  0.9329
 1736TIP3   OH226622   6.320   3.655   6.207 -0.4667 -0.4463  0.6721
 1736TIP3    H126623   6.301   3.595   6.280 -0.2733 -0.8524  0.3953
 1736TIP3    H226624   6.412   3.676   6.218 -0.7672  0.5798  1.3280
 1737TIP3   OH226625   4.633   2.115  10.626  0.3659  0.6472 -0.0281
 1737TIP3    H126626   4.586   2.167  10.691  0.3446  0.2080  0.3130
 1737TIP3    H226627   4.644   2.174  10.551 -0.0160  1.0085  0.1971
 1738TIP3   OH226628   6.654   4.488   1.997  0.7105  0.1659  0.0289
 1738TIP3    H126629   6.577   4.432   1.987  1.2175 -0.4425 -0.5641
 1738TIP3    H226630   6.655   4.541   1.917  2.2368 -1.5230 -1.1472
 1739TIP3   OH226631   2.874   1.742  13.954 -0.2234 -1.0319 -0.4409
 1739TIP3    H126632   2.925   1.784  13.885 -1.1694 -0.6102 -0.8914
 1739TIP3    H226633   2.846   1.814  14.011  0.1508 -1.3246  0.1247
 1740TIP3   OH226634   5.761   0.190  12.323 -0.1837 -0.0651 -0.3696
 1740TIP3    H126635   5.828   0.232  12.378 -0.2485  2.1826 -1.8622
 1740TIP3    H226636   5.781   0.097  12.329  3.3569  0.5023 -1.0254
 1741TIP3   OH226637   1.314   5.769  16.214 -0.3293 -0.4423  0.6912
 1741TIP3    H126638   1.363   5.848  16.234  1.1864 -1.0921 -0.2374
 1741TIP3    H226639   1.377   5.698  16.227 -1.2319 -1.3758  0.1560
 1742TIP3   OH226640   6.408   5.395  16.369  0.3059  0.4215 -0.0965
 1742TIP3    H126641   6.447   5.472  16.329 -1.5526  0.8326 -1.2383
 1742TIP3    H226642   6.364   5.428  16.447  0.3741  0.3334 -0.0191
 1743TIP3   OH226643   1.345   5.134  11.452  0.6765 -0.1819  0.1685
 1743TIP3    H126644   1.277   5.155  11.387 -0.0884  1.3686  1.4012
 1743TIP3    H226645   1.319   5.049  11.487  0.3308 -0.3939 -0.5785
 1744TIP3   OH226646   6.402   1.910  12.070 -0.2847 -0.1087 -0.1642
 1744TIP3    H126647   6.357   1.834  12.034  0.1650 -0.3561 -0.2159
 1744TIP3    H226648   6.349   1.985  12.043 -1.4620 -0.4885  0.9952
 1745TIP3   OH226649   2.964   1.374  10.946 -0.2246 -0.0265  0.7416
 1745TIP3    H126650   2.883   1.371  10.895 -0.2871 -0.3769  0.8632
 1745TIP3    H226651   3.019   1.437  10.899 -0.6713  0.4313  0.8185
 1746TIP3   OH226652   2.290   1.336   4.363  0.3660  0.4303  0.2244
 1746TIP3    H126653   2.381   1.323   4.390  0.2311 -1.1208  0.0068
 1746TIP3    H226654   2.241   1.336   4.445  0.4272 -0.0076  0.2633
 1747TIP3   OH226655   6.383   6.122  16.924  0.2214  0.4928  0.3308
 1747TIP3    H126656   6.471   6.158  16.920 -0.5080  2.8956  2.8028
 1747TIP3    H226657   6.376   6.086  17.013 -2.0833  3.0010  1.3067
 1748TIP3   OH226658   4.580   4.139  14.413 -0.0058 -0.2462 -0.0771
 1748TIP3    H126659   4.524   4.215  14.427  0.1607  0.1034 -1.2154
 1748TIP3    H226660   4.536   4.089  14.344  0.4025 -0.6461 -0.0532
 1749TIP3   OH226661   2.049   2.296  16.339 -0.1000 -0.2316  0.2896
 1749TIP3    H126662   2.002   2.232  16.394 -1.5006 -0.4450 -1.0764
 1749TIP3    H226663   2.035   2.380  16.383  0.5455 -0.6410  1.3329
 1750TIP3   OH226664   4.759   6.203   2.895  0.5999 -0.5198  0.5983
 1750TIP3    H126665   4.677   6.205   2.845  2.6234  1.1226 -3.0685
 1750TIP3    H226666   4.787   6.112   2.890 -1.1448 -1.2224  2.3631
 1751TIP3   OH226667   4.323   5.431  15.517 -0.1646 -0.2999 -0.4933
 1751TIP3    H126668   4.390   5.467  15.459 -2.3933  2.5810 -1.5315
 1751TIP3    H226669   4.310   5.498  15.584 -2.5088 -0.3755 -0.7942
 1752TIP3   OH226670   4.429   5.339  17.031 -0.5501 -0.4342  0.2575
 1752TIP3    H126671   4.376   5.329  16.951  0.6080  0.4462 -0.6477
 1752TIP3    H226672   4.430   5.433  17.047  0.9726 -0.3882  0.0643
 1753TIP3   OH226673   2.915   3.015   5.872  0.4843  0.1906 -0.0716
 1753TIP3    H126674   3.009   3.028   5.859  0.7303  0.5596  1.7373
 1753TIP3    H226675   2.900   3.040   5.964 -1.4467  0.4821 -0.4208
 1754TIP3   OH226676   3.334   2.237   5.073  0.9374 -0.4742 -0.3929
 1754TIP3    H126677   3.308   2.147   5.094 -2.9735  0.3867 -0.8776
 1754TIP3    H226678   3.309   2.288   5.150  0.0741  0.6412 -1.3829
 1755TIP3   OH226679   3.351   5.599   2.197  0.3864 -0.3358  0.4482
 1755TIP3    H126680   3.374   5.692   2.196 -1.1714  0.0990  1.4309
 1755TIP3    H226681   3.274   5.593   2.141 -0.5537 -0.6960  1.7147
 1756TIP3   OH226682   4.346   4.194  16.251  0.1641  0.2199  0.0036
 1756TIP3    H126683   4.428   4.149  16.228  0.3638  1.4800 -1.9777
 1756TIP3    H226684   4.299   4.131  16.305  1.6306 -1.2613 -0.3475
 1757TIP3   OH226685   5.642   6.565   0.639  0.2451 -0.1196  0.1853
 1757TIP3    H126686   5.580   6.625   0.679 -0.8494 -1.5852  0.7788
 1757TIP3    H226687   5.631   6.577   0.545  2.4625  2.9787  0.1747
 1758TIP3   OH226688   0.293   0.486  14.682  0.2500 -0.0419  0.1440
 1758TIP3    H126689   0.319   0.428  14.753 -0.7127 -1.0894 -0.3298
 1758TIP3    H226690   0.230   0.546  14.722  1.5179  0.9685  0.7218
 1759TIP3   OH226691   0.970   5.920  12.555 -0.7678  0.5674  0.2309
 1759TIP3    H126692   0.916   5.968  12.493 -1.7872 -1.0533 -0.1945
 1759TIP3    H226693   1.009   5.850  12.504  0.1868  0.5517  0.9597
 1760TIP3   OH226694   6.664   1.858  11.178 -0.5089  0.7666  0.9344
 1760TIP3    H126695   6.595   1.923  11.163 -0.9041  0.2932  0.6804
 1760TIP3    H226696   6.676   1.816  11.093  0.2989  1.0440  0.9093
 1761TIP3   OH226697   1.999   4.353   2.440  0.3984  0.8081 -0.3044
 1761TIP3    H126698   2.072   4.314   2.487 -0.3743  0.3760  0.5700
 1761TIP3    H226699   2.027   4.443   2.423 -0.0014  1.6024  2.6778
 1762TIP3   OH226700   4.121   0.739  11.906  0.4447  0.3729  0.2390
 1762TIP3    H126701   4.068   0.740  11.826  1.2811 -0.2244 -0.3431
 1762TIP3    H226702   4.192   0.678  11.886  1.7647  1.7083  0.7121
 1763TIP3   OH226703   2.572   5.365   2.233 -0.5048 -0.3490  0.1922
 1763TIP3    H126704   2.633   5.389   2.303 -0.5748 -1.1315  0.5285
 1763TIP3    H226705   2.589   5.429   2.164  1.5641 -1.2826 -0.2416
 1764TIP3   OH226706   4.302   3.777  11.334  0.0133 -0.1490 -0.2415
 1764TIP3    H126707   4.348   3.857  11.307 -0.2769 -0.5445 -2.0132
 1764TIP3    H226708   4.371   3.718  11.364  0.4116  0.1198 -0.6226
 1765TIP3   OH226709   2.740   4.483  13.228 -0.0438  0.3113  0.3587
 1765TIP3    H126710   2.824   4.501  13.272 -1.0699  1.2637  2.0592
 1765TIP3    H226711   2.721   4.563  13.180  1.5859 -1.0947 -2.9161
 1766TIP3   OH226712   4.267   0.974  11.955  0.2585  0.6030 -0.1164
 1766TIP3    H126713   4.187   0.925  11.970 -0.0552  1.5577  1.5674
 1766TIP3    H226714   4.337   0.918  11.989  0.4646 -0.5903 -2.3304
 1767TIP3   OH226715   0.278   3.296  12.378 -0.1394  0.0230 -0.8562
 1767TIP3    H126716   0.341   3.229  12.351 -0.1477 -1.2274  1.8583
 1767TIP3    H226717   0.193   3.255  12.364 -0.1356 -1.0011  1.5498
 1768TIP3   OH226718   1.617   3.731  15.287  0.4181 -0.1457 -0.2922
 1768TIP3    H126719   1.622   3.664  15.356  0.0457  0.0225 -0.0998
 1768TIP3    H226720   1.686   3.793  15.309  0.0746  0.0910  0.1298
 1769TIP3   OH226721   4.172   0.844   0.386  0.2235  0.1196  0.1263
 1769TIP3    H126722   4.244   0.868   0.445 -0.2016 -0.3201  0.8433
 1769TIP3    H226723   4.102   0.813   0.445 -0.9436  1.4967 -0.4692
 1770TIP3   OH226724   0.582   3.864  11.977  0.0151  0.0658  0.8196
 1770TIP3    H126725   0.643   3.798  11.943  0.5356  0.1632  1.5335
 1770TIP3    H226726   0.531   3.891  11.901  0.5929 -0.3107  0.2882
 1771TIP3   OH226727   1.361   0.534  12.088 -0.1478 -0.1505 -0.1525
 1771TIP3    H126728   1.380   0.462  12.028  2.3001  0.1816  0.1448
 1771TIP3    H226729   1.381   0.613  12.039 -0.8022  0.2563  0.2140
 1772TIP3   OH226730   6.238   2.268   0.619 -0.2562  0.0199  1.0040
 1772TIP3    H126731   6.223   2.226   0.703 -1.0789 -0.6597  0.5292
 1772TIP3    H226732   6.235   2.197   0.555  1.5960  0.3466  0.5061
 1773TIP3   OH226733   3.554   4.727  15.019 -0.4306 -0.2702  0.2803
 1773TIP3    H126734   3.504   4.803  14.989 -0.3299 -0.0967  0.5494
 1773TIP3    H226735   3.616   4.710  14.947 -0.8878 -0.5012 -0.0609
 1774TIP3   OH226736   0.833   1.369   1.612 -0.1664 -0.0160 -0.8399
 1774TIP3    H126737   0.832   1.404   1.523 -1.5130 -0.9372 -1.2331
 1774TIP3    H226738   0.811   1.276   1.601 -3.6027  0.4551  0.6198
 1775TIP3   OH226739   0.373   2.817  12.951 -0.3833  0.4132 -0.1324
 1775TIP3    H126740   0.457   2.826  12.996  0.0130 -1.0950 -0.5142
 1775TIP3    H226741   0.371   2.889  12.888  0.9554  0.0777 -0.5931
 1776TIP3   OH226742   5.281   4.078  14.838 -0.2623 -0.2763 -0.7859
 1776TIP3    H126743   5.338   4.004  14.816 -0.6946 -0.8263 -0.0877
 1776TIP3    H226744   5.229   4.048  14.912 -1.3753  0.2654 -1.3184
 1777TIP3   OH226745   2.589   3.975   3.336 -0.3903  0.0799  0.1589
 1777TIP3    H126746   2.645   3.903   3.366 -2.1265 -1.4715 -0.1273
 1777TIP3    H226747   2.630   4.005   3.255  1.3537  0.6613  1.2147
 1778TIP3   OH226748   4.008   5.161  14.044  0.4644 -0.1999 -0.4327
 1778TIP3    H126749   3.967   5.083  14.005 -0.9460  0.2912  0.0142
 1778TIP3    H226750   3.934   5.217  14.069  1.4572  1.5767 -1.3054
 1779TIP3   OH226751   2.108   1.218   1.145  0.2055 -0.3519 -0.5368
 1779TIP3    H126752   2.058   1.179   1.074 -0.8301 -1.2787  0.6554
 1779TIP3    H226753   2.173   1.152   1.168  0.1394 -0.3104 -0.2257
 1780TIP3   OH226754   2.974   4.013  10.423 -0.1720  0.5324 -0.4704
 1780TIP3    H126755   3.051   4.011  10.366  0.8678 -2.3542  0.8848
 1780TIP3    H226756   3.003   4.058  10.502  0.7863 -2.0296  0.7432
 1781TIP3   OH226757   4.466   5.760   2.686 -0.1190  0.0126 -0.6003
 1781TIP3    H126758   4.515   5.709   2.621 -2.1862 -1.5327 -1.0732
 1781TIP3    H226759   4.461   5.848   2.649 -0.3123 -0.5723 -2.0266
 1782TIP3   OH226760   6.627   3.706   4.436 -0.0379  0.5759  1.0727
 1782TIP3    H126761   6.601   3.787   4.481 -0.3303  0.8871  0.3673
 1782TIP3    H226762   6.720   3.696   4.456 -0.1116  0.8229  1.5580
 1783TIP3   OH226763   4.110   1.149  15.526  0.4440 -0.2231 -0.4988
 1783TIP3    H126764   4.026   1.146  15.481  1.4430  1.1500 -2.6415
 1783TIP3    H226765   4.116   1.066  15.572 -2.3284 -0.0928  0.2612
 1784TIP3   OH226766   4.222   2.936  11.387  0.0073 -0.5703 -0.1166
 1784TIP3    H126767   4.252   3.022  11.355 -0.2699 -0.6407 -0.5739
 1784TIP3    H226768   4.162   2.957  11.459  2.4609 -0.4531  2.0521
 1785TIP3   OH226769   1.925   0.266  13.500  0.0864  0.2464 -0.1528
 1785TIP3    H126770   1.998   0.324  13.524 -1.1897  1.5385  0.7720
 1785TIP3    H226771   1.873   0.317  13.437  0.9472 -1.3977 -2.3474
 1786TIP3   OH226772   5.916   3.239  10.517 -0.4762  0.0742 -0.0268
 1786TIP3    H126773   5.828   3.239  10.555  0.1308  0.4973  1.4618
 1786TIP3    H226774   5.945   3.329  10.525  0.9749 -0.4801  1.7446
 1787TIP3   OH226775   0.421   0.918   4.227  0.4657  0.5727  0.4083
 1787TIP3    H126776   0.412   0.869   4.309  2.0172  0.0224  0.2784
 1787TIP3    H226777   0.333   0.920   4.191 -0.5157  1.8249  2.6422
 1788TIP3   OH226778   1.210   5.197  12.898  0.0749 -0.1943 -0.3820
 1788TIP3    H126779   1.203   5.180  12.992 -3.2622 -0.7274 -0.6381
 1788TIP3    H226780   1.129   5.163  12.860  0.9198  0.7774 -3.3722
 1789TIP3   OH226781   0.640   3.507  16.928  0.0413  0.4193  0.0804
 1789TIP3    H126782   0.554   3.544  16.908 -0.8375 -0.4374  2.0083
 1789TIP3    H226783   0.623   3.444  16.998  2.0032 -1.0264 -0.6462
 1790TIP3   OH226784   0.796   5.055  13.513 -0.0922  0.4923 -0.5670
 1790TIP3    H126785   0.714   5.089  13.477 -0.2930  0.2727 -0.3179
 1790TIP3    H226786   0.787   4.960  13.507 -0.4197  0.4318  0.7126
 1791TIP3   OH226787   5.932   2.975   4.161 -0.9521 -0.0215 -0.0002
 1791TIP3    H126788   5.838   2.971   4.144 -1.1326 -1.7162  1.1719
 1791TIP3    H226789   5.947   2.906   4.225  1.0672  0.3817 -0.0003
 1792TIP3   OH226790   6.045   1.379   4.851  0.1549  0.0886 -0.2665
 1792TIP3    H126791   5.982   1.322   4.807  1.6867 -2.7235  0.8752
 1792TIP3    H226792   5.995   1.419   4.922 -0.5156 -1.8661  0.4523
 1793TIP3   OH226793   4.813   3.006  12.367 -0.1066 -0.1355  0.2308
 1793TIP3    H126794   4.879   2.936  12.367 -0.1821 -0.2412  1.4319
 1793TIP3    H226795   4.798   3.023  12.460 -1.9085 -0.2233 -0.0197
 1794TIP3   OH226796   4.290   1.329   0.910  0.5239  0.7906 -0.4281
 1794TIP3    H126797   4.297   1.337   0.815  1.8361  1.8982 -0.2622
 1794TIP3    H226798   4.361   1.269   0.934  1.1942  1.7275 -0.0122
 1795TIP3   OH226799   3.641   6.573  12.918 -0.1255  0.4009  0.2995
 1795TIP3    H126800   3.690   6.553  12.997 -0.1742  0.8546  0.4453
 1795TIP3    H226801   3.696   6.538  12.847  1.9300  3.4723  0.1999
 1796TIP3   OH226802   1.559   6.181  10.953 -0.2356 -0.1057  0.4609
 1796TIP3    H126803   1.580   6.243  10.882  1.0294 -0.2278  0.7039
 1796TIP3    H226804   1.629   6.116  10.949  0.1091  0.1207  2.0844
 1797TIP3   OH226805   4.157   0.128   5.029  0.2327 -0.0708  0.0347
 1797TIP3    H126806   4.167   0.108   4.936 -0.2364  2.1711 -0.5685
 1797TIP3    H226807   4.124   0.218   5.030 -0.8069 -0.4174  2.3569
 1798TIP3   OH226808   2.732   4.467   0.829  0.2665 -0.0623  0.0397
 1798TIP3    H126809   2.682   4.528   0.883 -1.4033 -1.1513 -0.2186
 1798TIP3    H226810   2.673   4.444   0.757  1.7702 -0.0759 -1.2639
 1799TIP3   OH226811   3.250   5.087  14.610 -0.4214  0.2614 -0.5712
 1799TIP3    H126812   3.314   5.064  14.543 -0.0591  0.4909 -0.3031
 1799TIP3    H226813   3.165   5.069  14.569 -0.1803 -0.4430 -0.7815
 1800TIP3   OH226814   4.328   3.165  15.301  0.3858 -0.3784  0.2533
 1800TIP3    H126815   4.389   3.238  15.312  1.4002 -0.9978 -0.9190
 1800TIP3    H226816   4.276   3.188  15.224 -0.2757 -0.2598  0.7235
 1801TIP3   OH226817   0.525   6.025   5.715 -0.5205  0.9976  0.3614
 1801TIP3    H126818   0.507   6.119   5.715 -2.0877  0.7230 -0.8195
 1801TIP3    H226819   0.621   6.020   5.712 -0.3843  2.5334  0.9594
 1802TIP3   OH226820   2.922   4.132   4.852 -0.5416  0.8372 -0.2342
 1802TIP3    H126821   2.834   4.158   4.877 -0.2340 -0.4094  2.5281
 1802TIP3    H226822   2.911   4.046   4.812 -0.7114  1.4439 -1.5395
 1803TIP3   OH226823   0.425   2.855   0.816  0.4248 -0.7545 -0.2437
 1803TIP3    H126824   0.363   2.903   0.761  1.2701  0.0527 -0.5356
 1803TIP3    H226825   0.381   2.773   0.836 -0.2530 -0.7047 -1.4181
 1804TIP3   OH226826   3.487   2.512  13.394 -0.0376  0.2439 -0.4291
 1804TIP3    H126827   3.481   2.478  13.483  0.9224 -0.5484 -0.6528
 1804TIP3    H226828   3.421   2.581  13.390  0.7246  1.1162  1.2679
 1805TIP3   OH226829   0.322   2.130   4.857  0.1920 -0.1611  0.0944
 1805TIP3    H126830   0.292   2.039   4.865  1.9764 -0.7659  0.3140
 1805TIP3    H226831   0.342   2.156   4.947 -1.2847  0.8433  0.1728
 1806TIP3   OH226832   3.907   1.564   1.494 -0.0414  0.5920 -0.0800
 1806TIP3    H126833   3.832   1.586   1.439 -0.2130 -2.2026 -1.1502
 1806TIP3    H226834   3.913   1.636   1.557 -4.1221  0.5573  0.6075
 1807TIP3   OH226835   5.439   5.099   5.003  0.1499 -0.5443 -0.3378
 1807TIP3    H126836   5.431   5.104   5.098 -1.7446 -0.0415 -0.4823
 1807TIP3    H226837   5.364   5.149   4.970  0.6810 -0.8437 -2.0961
 1808TIP3   OH226838   6.656   5.484  12.191 -0.3708 -0.1541 -0.1191
 1808TIP3    H126839   6.697   5.496  12.106 -0.4429 -2.0335 -0.4542
 1808TIP3    H226840   6.728   5.487  12.254 -0.4465  2.5364 -0.0350
 1809TIP3   OH226841   3.569   1.936   3.770 -0.0006 -0.2055 -0.1065
 1809TIP3    H126842   3.554   2.028   3.745 -0.4854 -0.3905 -0.5077
 1809TIP3    H226843   3.565   1.888   3.688 -1.9982 -0.8767  0.3268
 1810TIP3   OH226844   0.136   4.309  12.199 -0.3185 -0.3228 -0.1024
 1810TIP3    H126845   0.075   4.292  12.272 -0.5730 -0.3220 -0.3132
 1810TIP3    H226846   0.222   4.306  12.239 -0.4010 -1.2228  0.0423
 1811TIP3   OH226847   0.607   6.036   2.286 -0.4810  0.1576 -0.2591
 1811TIP3    H126848   0.638   5.988   2.209 -1.8158  2.2673 -2.2211
 1811TIP3    H226849   0.639   6.125   2.274 -3.3471  1.3033 -0.0499
 1812TIP3   OH226850   0.655   5.732  11.469 -0.6210  0.1619 -0.3476
 1812TIP3    H126851   0.689   5.648  11.501 -1.1345  1.0846  3.0171
 1812TIP3    H226852   0.728   5.770  11.421  0.6469 -1.0015  0.5502
 1813TIP3   OH226853   0.830   3.706  16.164  0.6371  1.2039  0.1156
 1813TIP3    H126854   0.923   3.726  16.174  0.1778  3.0783  1.1741
 1813TIP3    H226855   0.786   3.765  16.225 -1.2067 -0.3187  0.3547
 1814TIP3   OH226856   0.425   5.232   3.986  0.2420  0.7220 -0.0185
 1814TIP3    H126857   0.447   5.179   4.063 -3.8123 -1.5215 -0.0861
 1814TIP3    H226858   0.418   5.321   4.020  0.9373  0.1866  1.6483
 1815TIP3   OH226859   5.944   4.184   2.822  0.6224 -0.7727 -0.4190
 1815TIP3    H126860   5.868   4.234   2.795 -0.0631 -0.9607  1.0410
 1815TIP3    H226861   6.001   4.181   2.745 -0.5955 -0.1656 -1.3618
 1816TIP3   OH226862   1.873   1.921   4.883  0.1673 -0.9614  0.0050
 1816TIP3    H126863   1.932   1.855   4.847  1.7081  0.7131 -0.6784
 1816TIP3    H226864   1.892   1.921   4.977  1.5443 -0.2227 -0.2450
 1817TIP3   OH226865   4.956   3.888   0.959 -0.0977 -0.0206  0.3103
 1817TIP3    H126866   4.862   3.907   0.964 -0.1607 -0.0688 -0.5966
 1817TIP3    H226867   4.967   3.841   0.877  0.2654 -2.7709  1.8102
 1818TIP3   OH226868   4.196   6.312  15.173 -0.2024 -0.0165  0.1969
 1818TIP3    H126869   4.240   6.331  15.090  1.3573 -2.5475  0.3344
 1818TIP3    H226870   4.143   6.234  15.155  0.7265 -1.0582  1.6982
 1819TIP3   OH226871   1.519   4.828  14.636 -0.0598  0.1749  0.5008
 1819TIP3    H126872   1.435   4.815  14.591 -0.6700  1.5476  1.1693
 1819TIP3    H226873   1.496   4.836  14.729  0.9546 -0.6154  0.8350
 1820TIP3   OH226874   0.696   4.187   0.973  0.2695 -0.3697  0.2598
 1820TIP3    H126875   0.743   4.205   1.054 -0.0563  0.6490  0.2329
 1820TIP3    H226876   0.765   4.178   0.907  0.6275 -2.4345  0.8179
 1821TIP3   OH226877   2.810   1.946   3.192  0.6920  0.3198  0.5567
 1821TIP3    H126878   2.832   1.853   3.192 -3.1314 -0.7799 -0.6373
 1821TIP3    H226879   2.828   1.975   3.102 -0.3979  0.0484  0.2422
 1822TIP3   OH226880   5.752   6.017  13.190  0.0192 -0.4003  0.0998
 1822TIP3    H126881   5.804   6.025  13.110  0.4142  1.3112  0.4898
 1822TIP3    H226882   5.667   6.055  13.167 -0.8819 -2.5079 -0.3094
 1823TIP3   OH226883   2.126   4.798  16.353 -0.4007  0.2250  0.3642
 1823TIP3    H126884   2.219   4.785  16.335 -0.3847  1.1550 -0.3254
 1823TIP3    H226885   2.081   4.744  16.288 -0.3258  1.4175 -0.7371
 1824TIP3   OH226886   4.427   1.738  11.286 -0.1301 -0.1297  0.0727
 1824TIP3    H126887   4.512   1.716  11.248 -0.3854 -2.9112  0.8433
 1824TIP3    H226888   4.390   1.653  11.311 -3.2334  0.9388 -0.4074
 1825TIP3   OH226889   3.987   2.767  11.504  0.4795  0.5636  0.3911
 1825TIP3    H126890   3.928   2.840  11.522 -1.2462 -0.6571 -0.1176
 1825TIP3    H226891   4.038   2.757  11.585  1.8277  3.2114 -0.0107
 1826TIP3   OH226892   0.208   6.385   1.837 -0.0977  0.5227 -0.1977
 1826TIP3    H126893   0.179   6.425   1.754 -0.6511 -0.6730 -0.6092
 1826TIP3    H226894   0.223   6.293   1.815  0.1481  0.2752  0.9485
 1827TIP3   OH226895   2.587   0.568   6.484 -0.6148  0.0432  0.6126
 1827TIP3    H126896   2.655   0.540   6.423  1.9564 -0.7855  3.6575
 1827TIP3    H226897   2.573   0.661   6.463  1.1399  0.1234 -0.4056
 1828TIP3   OH226898   1.155   4.603  16.410  0.5614  0.3446 -1.1073
 1828TIP3    H126899   1.089   4.535  16.397  1.0906 -0.8122  1.5728
 1828TIP3    H226900   1.121   4.657  16.481  0.7236  2.2157 -2.3704
 1829TIP3   OH226901   5.764   1.918   5.550 -0.0912  0.0055 -0.2521
 1829TIP3    H126902   5.801   1.971   5.479 -1.3901  0.5624 -0.5345
 1829TIP3    H226903   5.789   1.963   5.630 -1.2256  1.1137 -0.4923
 1830TIP3   OH226904   3.338   3.181   4.735 -0.4746  0.5945  0.3998
 1830TIP3    H126905   3.317   3.249   4.800 -2.6139  1.3410 -0.9555
 1830TIP3    H226906   3.432   3.191   4.718 -0.4973  2.3766  1.1640
 1831TIP3   OH226907   5.233   1.693  12.470 -0.4291 -0.2366  0.6880
 1831TIP3    H126908   5.291   1.663  12.400 -0.7235  0.3732  0.1758
 1831TIP3    H226909   5.249   1.787  12.475 -2.2467  0.1607 -0.2829
 1832TIP3   OH226910   2.137   1.868   2.814  0.0090  0.2538  0.5823
 1832TIP3    H126911   2.118   1.834   2.901  1.8801 -1.9349  0.2125
 1832TIP3    H226912   2.054   1.858   2.766 -0.4435 -0.5399  1.4933
 1833TIP3   OH226913   0.935   0.201   3.587  0.0534 -0.8757  0.2392
 1833TIP3    H126914   0.988   0.153   3.523 -1.0318  1.2597 -2.4847
 1833TIP3    H226915   0.999   0.244   3.644  1.1147 -1.7348 -0.2572
 1834TIP3   OH226916   3.767   6.216   1.466  0.1019  0.0901 -0.0333
 1834TIP3    H126917   3.744   6.242   1.377  1.5821 -2.0841 -1.1473
 1834TIP3    H226918   3.684   6.211   1.512 -0.7951  0.3601 -1.5614
 1835TIP3   OH226919   6.469   0.464  16.929  0.2350  0.4712 -0.1728
 1835TIP3    H126920   6.435   0.406  16.860  0.8630  0.7003 -0.6894
 1835TIP3    H226921   6.564   0.465  16.915  0.3567  0.6299  0.6213
 1836TIP3   OH226922   2.944   1.964  10.412  0.0200  0.1028 -0.3879
 1836TIP3    H126923   2.893   2.038  10.444  0.9638  0.3143  0.7431
 1836TIP3    H226924   2.908   1.889  10.457 -0.4565 -0.0238 -0.9718
 1837TIP3   OH226925   0.847   5.381  15.311  0.0927 -0.4301  0.0304
 1837TIP3    H126926   0.839   5.469  15.348  1.6130 -0.8018  1.3894
 1837TIP3    H226927   0.827   5.392  15.218 -0.3712  1.2297  0.2938
 1838TIP3   OH226928   1.119   6.393   3.566  0.0708  0.0335 -0.0695
 1838TIP3    H126929   1.032   6.352   3.570  0.6013 -1.1705 -0.3747
 1838TIP3    H226930   1.134   6.426   3.654 -0.4980 -0.1852  0.1150
 1839TIP3   OH226931   3.168   4.228  13.854 -0.1930 -0.4059  0.0361
 1839TIP3    H126932   3.094   4.174  13.828  0.9865 -1.5916 -1.0040
 1839TIP3    H226933   3.167   4.227  13.950 -0.9456 -1.1975  0.0285
 1840TIP3   OH226934   5.910   5.372  16.866  0.1379 -0.9591  0.2812
 1840TIP3    H126935   5.904   5.465  16.844  0.2028 -0.8445  0.7476
 1840TIP3    H226936   5.822   5.347  16.893  0.0621 -1.0981 -0.0752
 1841TIP3   OH226937   1.620   1.574  10.978 -0.1300  0.4125  0.0717
 1841TIP3    H126938   1.714   1.559  10.964 -0.2037 -0.6141  0.6246
 1841TIP3    H226939   1.617   1.654  11.031  0.4546  0.2617  0.3420
 1842TIP3   OH226940   0.545   5.181   2.048  0.2469 -0.3460  0.2015
 1842TIP3    H126941   0.464   5.137   2.024  0.0596  1.3124 -2.6935
 1842TIP3    H226942   0.517   5.259   2.096  0.1051  0.0937 -0.5773
 1843TIP3   OH226943   0.097   3.628   4.388  0.0368  0.2250 -0.0528
 1843TIP3    H126944   0.139   3.573   4.322  1.2297 -1.7971  2.2186
 1843TIP3    H226945   0.155   3.704   4.397 -0.0843  0.4728 -1.1947
 1844TIP3   OH226946   2.558   1.559   2.029 -0.4576  0.0480 -0.1980
 1844TIP3    H126947   2.573   1.641   2.076 -3.2233  0.8098 -0.4251
 1844TIP3    H226948   2.570   1.582   1.937  0.2732 -0.2056 -0.1670
 1845TIP3   OH226949   2.490   3.999  15.340 -0.2253  0.4203  0.1529
 1845TIP3    H126950   2.575   4.000  15.296 -0.7190 -0.8478 -0.8868
 1845TIP3    H226951   2.509   3.967  15.428  0.3471 -0.1067 -0.1577
 1846TIP3   OH226952   1.471   5.286  13.575  0.7308  0.3974  0.1096
 1846TIP3    H126953   1.538   5.230  13.614  0.3520 -0.2252 -0.1190
 1846TIP3    H226954   1.411   5.306  13.646  2.0390  2.3579  0.7410
 1847TIP3   OH226955   0.221   2.267   1.648  0.0896  0.0157 -0.3650
 1847TIP3    H126956   0.263   2.268   1.562 -0.0560 -0.1078 -0.4373
 1847TIP3    H226957   0.160   2.193   1.645  0.4105 -0.2702  0.0025
 1848TIP3   OH226958   5.807   3.604  14.011  0.3704 -0.0985 -0.6810
 1848TIP3    H126959   5.732   3.650  14.049 -0.6432 -2.3596  0.2263
 1848TIP3    H226960   5.860   3.673  13.972 -1.3454  1.7515  0.0899
 1849TIP3   OH226961   6.162   0.109  11.166 -0.2047 -0.4468  0.5333
 1849TIP3    H126962   6.103   0.116  11.092 -0.1274 -2.3420  0.2481
 1849TIP3    H226963   6.235   0.056  11.134  0.5831 -0.0123  1.5293
 1850TIP3   OH226964   2.516   4.598  15.694 -0.2300  0.2415 -0.1138
 1850TIP3    H126965   2.577   4.538  15.652  0.5212  1.4104 -0.7557
 1850TIP3    H226966   2.431   4.553  15.691  0.4988 -1.2241  0.4066
 1851TIP3   OH226967   2.700   5.088  16.179  0.2003  0.7791 -0.0620
 1851TIP3    H126968   2.628   5.105  16.239 -0.4124  2.2142 -1.1528
 1851TIP3    H226969   2.671   5.012  16.128  0.8265 -0.5978  1.5489
 1852TIP3   OH226970   5.688   0.753  10.710  0.2916  0.2910 -0.4398
 1852TIP3    H126971   5.666   0.806  10.786 -1.2354  0.5989 -1.0616
 1852TIP3    H226972   5.770   0.709  10.734  0.0515  0.6798  1.2089
 1853TIP3   OH226973   5.735   3.906   1.914 -0.0055 -0.1452 -0.0659
 1853TIP3    H126974   5.707   3.844   1.847 -0.5753 -0.9648  0.9186
 1853TIP3    H226975   5.668   3.975   1.912  0.4811  0.3264 -0.9645
 1854TIP3   OH226976   6.518   1.195  15.128 -0.1891 -0.2652 -0.4919
 1854TIP3    H126977   6.578   1.121  15.142 -0.7569 -1.0874 -2.1167
 1854TIP3    H226978   6.443   1.157  15.083 -1.4686  0.9509  0.5033
 1855TIP3   OH226979   2.479   1.809   5.007  0.1158 -0.1513  0.1238
 1855TIP3    H126980   2.419   1.883   4.997 -0.0836 -0.2767  0.3770
 1855TIP3    H226981   2.488   1.798   5.102  0.4509 -0.2069  0.0881
 1856TIP3   OH226982   6.232   3.992  14.780 -0.6400 -0.4165  0.4254
 1856TIP3    H126983   6.243   3.956  14.693  1.8083  0.5141  0.2648
 1856TIP3    H226984   6.186   3.924  14.829 -3.3351 -0.4252 -1.8601
 1857TIP3   OH226985   4.061   5.685  11.187 -0.7562  0.1174 -0.2952
 1857TIP3    H126986   4.027   5.747  11.251 -0.8597 -1.0530  0.8250
 1857TIP3    H226987   4.150   5.666  11.217 -0.9122 -0.6719 -0.3153
 1858TIP3   OH226988   1.435   4.409  15.956  0.8628  0.3930 -0.1790
 1858TIP3    H126989   1.467   4.454  16.034  0.5238 -0.0875  0.2443
 1858TIP3    H226990   1.353   4.454  15.934  0.8407  0.3787 -0.1240
 1859TIP3   OH226991   0.318   3.058  15.352 -0.0699  0.3873  0.6339
 1859TIP3    H126992   0.360   3.114  15.286  0.0259 -2.6574 -2.1136
 1859TIP3    H226993   0.231   3.041  15.318 -0.4516 -0.3799  1.9095
 1860TIP3   OH226994   4.409   0.090   1.549  0.0924 -0.1264  0.1255
 1860TIP3    H126995   4.332   0.132   1.511  0.9432 -0.5342 -2.2233
 1860TIP3    H226996   4.447   0.156   1.608  0.9927  2.2623 -2.8774
 1861TIP3   OH226997   6.341   2.347   4.063  0.2630  0.0620  0.4936
 1861TIP3    H126998   6.435   2.362   4.072  0.1055  0.4107  1.7382
 1861TIP3    H226999   6.334   2.265   4.014  1.1997  0.4219 -0.2723
 1862TIP3   OH227000   3.356   4.600   2.494  0.3202  0.6400  0.1058
 1862TIP3    H127001   3.378   4.548   2.417 -0.3890 -1.5949  1.3130
 1862TIP3    H227002   3.290   4.662   2.464  0.5046  0.2281 -1.2082
 1863TIP3   OH227003   1.343   4.533   1.831  0.3413  0.0548 -0.1751
 1863TIP3    H127004   1.330   4.459   1.771 -0.8508  1.5230 -1.8441
 1863TIP3    H227005   1.368   4.606   1.774  1.3049  1.0132  1.4006
 1864TIP3   OH227006   0.789   1.879   0.389  0.5080  0.4598 -1.0863
 1864TIP3    H127007   0.829   1.807   0.437 -1.0886  1.9433  2.8738
 1864TIP3    H227008   0.848   1.953   0.403  0.5548  0.7203 -2.4590
 1865TIP3   OH227009   3.528   3.891  11.561  0.0361  0.0132 -0.4047
 1865TIP3    H127010   3.495   3.933  11.481 -1.5050  0.5804  0.4966
 1865TIP3    H227011   3.486   3.938  11.632  2.2290  0.2602  0.8311
 1866TIP3   OH227012   6.641   0.153  15.362 -0.4008 -0.4429 -0.0821
 1866TIP3    H127013   6.662   0.062  15.383 -3.0337 -1.0845  0.0418
 1866TIP3    H227014   6.640   0.198  15.447 -1.9353 -0.9796  0.2098
 1867TIP3   OH227015   2.555   3.912  16.379 -0.5728 -0.0666 -0.2665
 1867TIP3    H127016   2.561   3.882  16.288  1.0738 -0.6196 -0.0208
 1867TIP3    H227017   2.645   3.907  16.411 -1.1182  0.1701  1.3913
 1868TIP3   OH227018   3.368   5.426  15.881  0.2012  0.4170  0.0121
 1868TIP3    H127019   3.416   5.501  15.917 -0.1647 -0.5122  2.6555
 1868TIP3    H227020   3.341   5.376  15.958 -2.2818 -0.7761 -1.5114
 1869TIP3   OH227021   2.853   6.698  14.834 -0.8783  0.1776  0.3383
 1869TIP3    H127022   2.820   6.608  14.827 -3.3357  1.0920 -1.3673
 1869TIP3    H227023   2.844   6.734  14.746  0.3182  2.0408  0.9077
 1870TIP3   OH227024   2.831   3.416  13.745  0.2566 -0.2967  0.3063
 1870TIP3    H127025   2.827   3.472  13.823  1.0581  0.6264 -0.2863
 1870TIP3    H227026   2.848   3.329  13.779  1.1599  0.1828  1.1473
 1871TIP3   OH227027   0.619   1.066   1.614 -0.4216  0.6690 -0.3969
 1871TIP3    H127028   0.696   1.058   1.671  0.2351  1.3257 -1.1751
 1871TIP3    H227029   0.570   1.140   1.652  0.2063  1.3497 -0.8862
 1872TIP3   OH227030   2.728   1.766  13.162 -0.2074  0.3918  0.6143
 1872TIP3    H127031   2.648   1.766  13.110  0.0354  1.1535  0.2271
 1872TIP3    H227032   2.719   1.842  13.220  1.1016  1.7186 -0.8230
 1873TIP3   OH227033   3.303   4.676  14.336  0.1971  0.1284  0.2429
 1873TIP3    H127034   3.366   4.654  14.268  0.6567  1.5903  0.1536
 1873TIP3    H227035   3.227   4.622  14.316  1.0201 -0.8973 -0.2688
 1874TIP3   OH227036   2.181   3.304   0.300 -0.0280  0.7619  0.5073
 1874TIP3    H127037   2.150   3.321   0.211 -0.6300 -0.5254  0.4418
 1874TIP3    H227038   2.218   3.216   0.296 -0.9781  0.2727  1.7346
 1875TIP3   OH227039   4.917   3.453   5.223 -0.2497  0.0741  0.4781
 1875TIP3    H127040   4.905   3.381   5.285  0.2881 -0.0561  0.4356
 1875TIP3    H227041   4.851   3.517   5.248 -1.8630 -1.1246 -0.5328
 1876TIP3   OH227042   0.605   1.458   3.559 -0.1587  0.0044 -0.1314
 1876TIP3    H127043   0.534   1.457   3.623  1.7164 -0.7499  2.0669
 1876TIP3    H227044   0.616   1.366   3.535 -0.1285  0.1595 -0.7224
 1877TIP3   OH227045   1.972   4.818  12.786  0.5132  0.4649 -0.5125
 1877TIP3    H127046   2.023   4.880  12.838  1.0084  0.6269 -1.1790
 1877TIP3    H227047   1.883   4.852  12.789  0.4687  0.2682  0.5244
 1878TIP3   OH227048   2.627   4.435   5.301 -0.6032 -0.1801 -0.1709
 1878TIP3    H127049   2.706   4.394   5.264  0.0700  0.9430 -0.0483
 1878TIP3    H227050   2.591   4.369   5.360  1.2824 -0.1129  1.1772
 1879TIP3   OH227051   5.656   1.926   3.428 -0.7578 -0.0283 -0.0984
 1879TIP3    H127052   5.672   1.885   3.343  2.1655 -0.3726  0.5123
 1879TIP3    H227053   5.608   2.006   3.407 -1.6729 -0.9822 -1.8703
 1880TIP3   OH227054   2.390   4.434  11.992  0.2192  0.0297  0.2737
 1880TIP3    H127055   2.398   4.421  12.087 -2.1783  1.7733  0.8059
 1880TIP3    H227056   2.336   4.362  11.962  1.9312 -1.1816 -0.0298
 1881TIP3   OH227057   3.864   2.071  12.756 -0.1667 -0.5170  0.2695
 1881TIP3    H127058   3.953   2.036  12.761  0.3520  0.7191  0.0966
 1881TIP3    H227059   3.809   1.994  12.742  1.0497 -1.1567 -1.4259
 1882TIP3   OH227060   2.951   3.725   1.467  0.2037  0.2564  0.0251
 1882TIP3    H127061   3.024   3.735   1.529 -0.0265  0.9566  0.1884
 1882TIP3    H227062   2.877   3.769   1.509 -0.3081 -0.4051 -0.1618
 1883TIP3   OH227063   6.779   3.774   0.621  0.1426  0.1691 -1.1586
 1883TIP3    H127064   6.775   3.697   0.563  0.2904 -0.8781  0.1869
 1883TIP3    H227065   6.808   3.739   0.705 -1.7121  1.3919  0.0326
 1884TIP3   OH227066   1.642   6.748   0.754  0.0140 -0.1649 -0.3993
 1884TIP3    H127067   1.546   6.753   0.761  0.0134  1.1975 -1.0584
 1884TIP3    H227068   1.674   6.812   0.818  0.6136 -2.2609  1.5585
 1885TIP3   OH227069   1.218   2.449   5.360  0.0829 -0.8726  0.1571
 1885TIP3    H127070   1.175   2.371   5.394 -1.2462 -0.1987  0.0621
 1885TIP3    H227071   1.167   2.523   5.394  1.3961 -0.0200  0.3685
 1886TIP3   OH227072   3.392   5.509  15.601 -0.0414  0.3307  0.5986
 1886TIP3    H127073   3.445   5.577  15.559  1.2051 -1.0180 -0.0975
 1886TIP3    H227074   3.390   5.535  15.694 -0.8758  2.0902  0.1360
 1887TIP3   OH227075   5.771   4.887  15.632  0.3240  0.0942 -0.0447
 1887TIP3    H127076   5.818   4.895  15.549  0.4589 -1.0861 -0.0903
 1887TIP3    H227077   5.695   4.944  15.622  0.4680  0.1498 -0.8867
 1888TIP3   OH227078   5.166   0.589  11.450  0.0395  0.7479  0.1179
 1888TIP3    H127079   5.081   0.560  11.484  0.1489  0.0598 -0.1878
 1888TIP3    H227080   5.158   0.685  11.443 -0.2911  0.8163  1.2373
 1889TIP3   OH227081   0.163   1.255   0.592 -0.3430  0.3673  0.0339
 1889TIP3    H127082   0.167   1.347   0.565 -2.4767  0.9644  1.4568
 1889TIP3    H227083   0.069   1.238   0.602  0.0949 -1.3400  1.7902
 1890TIP3   OH227084   1.525   1.550  15.193 -0.1531  1.2766 -0.0360
 1890TIP3    H127085   1.602   1.548  15.249  0.7065 -1.3524 -1.1052
 1890TIP3    H227086   1.543   1.620  15.130  1.5167  0.5798 -0.4009
 1891TIP3   OH227087   2.896   2.228   2.926 -0.0447 -0.1018 -0.3463
 1891TIP3    H127088   2.982   2.188   2.919  1.2400  2.7191 -2.6195
 1891TIP3    H227089   2.912   2.314   2.966 -1.3431  1.4028 -2.7880
 1892TIP3   OH227090   0.101   6.132  12.659  0.9401  0.1969  0.4668
 1892TIP3    H127091   0.095   6.041  12.688  1.0611  0.0048 -0.0940
 1892TIP3    H227092   0.097   6.184  12.739 -0.8507 -0.2146  0.6970
 1893TIP3   OH227093   6.241   1.284  12.224  0.1052  0.5903 -0.2656
 1893TIP3    H127094   6.333   1.302  12.208  0.3661 -1.7070 -1.9359
 1893TIP3    H227095   6.214   1.229  12.150 -2.1093 -0.3286  1.1154
 1894TIP3   OH227096   5.171   1.769   5.705  0.3941 -0.0060  0.2112
 1894TIP3    H127097   5.236   1.755   5.773  0.4134 -1.6859 -0.1188
 1894TIP3    H227098   5.177   1.691   5.649 -0.7973  0.5418 -0.7311
 1895TIP3   OH227099   1.608   2.417  12.016 -0.3533  0.1885  0.1446
 1895TIP3    H127100   1.677   2.351  12.015  0.0611  0.4869  2.3347
 1895TIP3    H227101   1.589   2.434  11.924  1.0409 -1.3922 -0.4906
 1896TIP3   OH227102   0.620   1.547  13.453 -0.2380  0.5581 -0.1364
 1896TIP3    H127103   0.571   1.473  13.416  2.3096 -0.6918 -1.2840
 1896TIP3    H227104   0.558   1.589  13.513 -2.2501 -1.6613 -0.4898
 1897TIP3   OH227105   5.072   0.144   1.109  0.2297  0.5493  0.3359
 1897TIP3    H127106   5.071   0.141   1.205  0.4269  0.9065  0.3497
 1897TIP3    H227107   5.155   0.102   1.085 -0.1853 -0.2681  0.2894
 1898TIP3   OH227108   5.922   0.254  16.840 -0.0373  0.1043 -0.2391
 1898TIP3    H127109   5.862   0.234  16.768  2.7707 -0.1980 -2.6572
 1898TIP3    H227110   5.975   0.327  16.808  0.7447  0.5664  1.9229
 1899TIP3   OH227111   4.019   4.019  12.313  0.3832  0.1007 -0.0767
 1899TIP3    H127112   3.965   4.011  12.392  0.1383 -1.3118 -0.3622
 1899TIP3    H227113   3.999   4.106  12.279 -1.5122 -0.2593 -0.0146
 1900TIP3   OH227114   3.609   1.417   3.753  0.0879 -0.3667 -0.1419
 1900TIP3    H127115   3.594   1.502   3.794  0.7140  0.4245 -1.4984
 1900TIP3    H227116   3.523   1.391   3.720  0.1996  0.5648 -1.2223
 1901TIP3   OH227117   2.443   5.538   4.888  0.4005  0.0911  0.1615
 1901TIP3    H127118   2.417   5.523   4.797  0.2043  2.1277 -0.1690
 1901TIP3    H227119   2.457   5.451   4.924 -0.4843 -0.7961 -1.5390
 1902TIP3   OH227120   5.386   3.660  14.641  0.0578 -0.3140  0.1147
 1902TIP3    H127121   5.329   3.615  14.703  1.4413 -2.4950 -0.0601
 1902TIP3    H227122   5.420   3.735  14.689 -0.8220 -0.5493  1.1400
 1903TIP3   OH227123   4.555   4.475   0.069  0.2972  0.1550  0.2386
 1903TIP3    H127124   4.531   4.542   0.005 -0.3360  0.1896  0.5074
 1903TIP3    H227125   4.487   4.409   0.061  0.7093 -0.2759  0.2503
 1904TIP3   OH227126   0.405   0.798   2.779 -0.3668  0.1082 -0.5962
 1904TIP3    H127127   0.492   0.760   2.790 -0.0096  0.2183 -2.7624
 1904TIP3    H227128   0.350   0.750   2.841  1.3253  0.4957  1.2865
 1905TIP3   OH227129   0.952   4.972  15.833 -0.5940 -0.0344 -0.2178
 1905TIP3    H127130   0.948   4.911  15.760 -0.6146 -0.9573  0.5467
 1905TIP3    H227131   1.037   5.015  15.824  0.0266 -1.1838  0.0402
 1906TIP3   OH227132   3.997   3.557  14.054 -0.1726  0.5601  0.0179
 1906TIP3    H127133   3.936   3.615  14.100 -0.8173  0.2305 -0.3933
 1906TIP3    H227134   3.950   3.533  13.973  0.0151 -0.6347  0.2498
 1907TIP3   OH227135   4.346   6.698  14.934 -0.0706  0.2088  0.3563
 1907TIP3    H127136   4.362   6.769  14.996 -2.0101  1.9884 -0.9966
 1907TIP3    H227137   4.410   6.713  14.864  1.8310 -1.5411  1.6329
 1908TIP3   OH227138   6.459   5.166  16.521  1.2939  0.4311 -0.2566
 1908TIP3    H127139   6.467   5.214  16.438  0.7824 -0.0694 -0.6017
 1908TIP3    H227140   6.382   5.205  16.563 -0.7611 -1.7375 -1.7084
 1909TIP3   OH227141   3.087   3.751   0.974 -0.3132 -0.1120 -0.4809
 1909TIP3    H127142   3.009   3.719   1.020  0.0704  0.1956  0.4194
 1909TIP3    H227143   3.159   3.726   1.031  0.1990  0.1232 -1.0237
 1910TIP3   OH227144   2.442   1.813  16.713 -0.1954  0.1623 -0.1881
 1910TIP3    H127145   2.455   1.857  16.629  2.7894  2.0378  1.0969
 1910TIP3    H227146   2.416   1.883  16.773  0.6805 -0.5660  1.0836
 1911TIP3   OH227147   0.728   3.232  13.548  0.3779  0.3256  0.4809
 1911TIP3    H127148   0.725   3.139  13.568 -1.1222  0.0672 -0.6979
 1911TIP3    H227149   0.799   3.241  13.485  0.4806 -0.0336  0.5435
 1912TIP3   OH227150   5.983   4.935   1.481 -0.5316  0.1103  0.5395
 1912TIP3    H127151   6.036   4.876   1.534 -1.1650 -0.1472  0.8959
 1912TIP3    H227152   5.933   4.986   1.544  0.0492  1.0803  0.2371
 1913TIP3   OH227153   0.807   0.619  14.595 -0.4511 -0.0879 -0.2787
 1913TIP3    H127154   0.779   0.527  14.590  0.6273 -0.4184 -0.5997
 1913TIP3    H227155   0.863   0.622  14.673  1.9064 -0.4325 -1.8239
 1914TIP3   OH227156   5.463   4.510   4.934  0.7185 -0.1210 -0.5010
 1914TIP3    H127157   5.381   4.466   4.956  0.0497  0.2933 -2.0267
 1914TIP3    H227158   5.531   4.451   4.964 -0.1379 -2.1954 -2.3699
 1915TIP3   OH227159   1.950   1.317  12.967  0.5498 -0.4300  0.3045
 1915TIP3    H127160   1.929   1.227  12.943  0.7659 -0.9870  2.0836
 1915TIP3    H227161   2.029   1.338  12.918  0.1830 -1.0080 -0.5452
 1916TIP3   OH227162   5.524   6.276   2.440 -0.5587 -0.0747  0.7828
 1916TIP3    H127163   5.501   6.297   2.349 -3.5347  2.1220  1.8553
 1916TIP3    H227164   5.617   6.298   2.447 -0.1819 -0.4976 -1.7328
 1917TIP3   OH227165   5.280   3.951   3.633  0.1623 -0.1013 -0.4465
 1917TIP3    H127166   5.252   4.043   3.629  0.9619  0.1143 -1.3458
 1917TIP3    H227167   5.355   3.951   3.692 -0.0299 -0.2347 -0.1996
 1918TIP3   OH227168   2.560   3.710  13.126  0.0026 -0.3551 -0.4127
 1918TIP3    H127169   2.627   3.662  13.077  0.0600 -1.2377  0.4895
 1918TIP3    H227170   2.576   3.686  13.217  0.4456  1.9179  0.1661
 1919TIP3   OH227171   5.656   0.884   4.581  0.2568  0.2492 -0.4773
 1919TIP3    H127172   5.656   0.824   4.506  1.1901  0.9252 -1.0407
 1919TIP3    H227173   5.663   0.827   4.657  1.0841 -0.3696 -1.0029
 1920TIP3   OH227174   4.124   5.846  10.719  0.5682 -0.1446  0.3400
 1920TIP3    H127175   4.177   5.798  10.781 -0.0375  0.7036  1.5462
 1920TIP3    H227176   4.184   5.909  10.679  0.5412  0.6730  1.5447
 1921TIP3   OH227177   6.802   2.276   1.252 -0.0933 -0.0226 -0.3444
 1921TIP3    H127178   6.748   2.281   1.331 -0.9235 -1.1124 -0.8196
 1921TIP3    H227179   6.740   2.281   1.180  0.6505  0.8609 -0.9354
 1922TIP3   OH227180   6.508   1.687   2.726  0.2194 -0.6141  0.1723
 1922TIP3    H127181   6.597   1.720   2.736 -0.2255  0.5300  0.4262
 1922TIP3    H227182   6.460   1.723   2.801 -0.4831 -1.1541 -0.0031
 1923TIP3   OH227183   3.569   5.610  14.327 -0.3536  0.6512 -0.4495
 1923TIP3    H127184   3.536   5.523  14.302  1.7648 -0.3292 -0.1295
 1923TIP3    H227185   3.604   5.647  14.245  1.2036 -0.0164 -0.1293
 1924TIP3   OH227186   1.968   6.092  13.859 -0.1426 -0.0681  0.3592
 1924TIP3    H127187   1.896   6.122  13.915 -0.8141  1.5435 -1.2527
 1924TIP3    H227188   1.976   5.999  13.877 -0.7317  0.2676  2.6352
 1925TIP3   OH227189   3.743   1.033  15.576 -0.4679 -0.3686 -0.1718
 1925TIP3    H127190   3.691   0.989  15.644 -1.7663 -0.4499 -1.1906
 1925TIP3    H227191   3.818   0.974  15.563 -0.7744 -0.9088  0.4119
 1926TIP3   OH227192   4.828   1.205   1.403  0.7290  0.3280 -0.1668
 1926TIP3    H127193   4.920   1.227   1.384  1.1547  0.5055  1.9275
 1926TIP3    H227194   4.780   1.286   1.385  1.0749  0.4470 -0.5825
 1927TIP3   OH227195   5.706   5.969   4.210 -0.5853 -0.1341  0.3927
 1927TIP3    H127196   5.773   6.015   4.260  0.5889 -0.5391 -0.7527
 1927TIP3    H227197   5.624   6.006   4.240  0.1715  0.7226  1.4901
 1928TIP3   OH227198   2.187   5.127   4.699 -0.1591 -0.3988 -0.3848
 1928TIP3    H127199   2.151   5.051   4.744  1.5667 -1.5907 -0.9139
 1928TIP3    H227200   2.172   5.200   4.760 -0.1477 -1.5071  0.9950
 1929TIP3   OH227201   1.520   0.387   5.732  0.3547 -0.3870 -0.5619
 1929TIP3    H127202   1.428   0.387   5.757  0.7502 -0.2295  1.0053
 1929TIP3    H227203   1.535   0.474   5.694 -0.2588 -0.6229 -1.3717
 1930TIP3   OH227204   3.790   0.195   2.990  0.0671 -0.2043  0.1619
 1930TIP3    H127205   3.814   0.105   2.970 -0.4255 -0.4111  0.5074
 1930TIP3    H227206   3.780   0.237   2.904  0.9235 -0.3036  0.0016
 1931TIP3   OH227207   3.853   5.913   1.828  0.6151 -0.4432  0.3270
 1931TIP3    H127208   3.892   5.865   1.902 -0.3456 -0.3899  0.8781
 1931TIP3    H227209   3.812   5.989   1.868 -0.7773 -0.9199 -0.1181
 1932TIP3   OH227210   4.809   6.241  12.640  0.1424 -0.1804  0.0454
 1932TIP3    H127211   4.757   6.268  12.565 -1.8105  1.1236  1.7439
 1932TIP3    H227212   4.899   6.250  12.611 -0.4943  2.2255 -1.5475
 1933TIP3   OH227213   0.622   3.354   2.098  0.7552  0.2239  0.2722
 1933TIP3    H127214   0.545   3.324   2.147 -0.9134 -1.5119 -3.0129
 1933TIP3    H227215   0.676   3.276   2.088  0.4113  0.1845 -1.6012
 1934TIP3   OH227216   0.101   1.575   6.004  0.9813 -0.3043 -0.6039
 1934TIP3    H127217   0.115   1.669   6.011  0.4084 -0.2821  0.4582
 1934TIP3    H227218   0.144   1.538   6.081 -0.5776 -0.6893  0.1324
 1935TIP3   OH227219   0.413   5.747  11.679  0.5226  0.1645  0.1115
 1935TIP3    H127220   0.471   5.699  11.620  0.2606  1.1421 -0.9797
 1935TIP3    H227221   0.408   5.834  11.641 -1.9771  0.0015 -0.0545
 1936TIP3   OH227222   3.390   5.264   4.943  0.3676 -0.3278  0.1026
 1936TIP3    H127223   3.402   5.236   5.033  0.4667  0.2317  0.2684
 1936TIP3    H227224   3.360   5.355   4.949  2.3178  0.4133 -0.4455
 1937TIP3   OH227225   3.737   1.790  15.345  0.3157  1.1365  0.2186
 1937TIP3    H127226   3.744   1.793  15.249  0.3123  2.5025  0.2428
 1937TIP3    H227227   3.826   1.799  15.376  0.2878  0.9605  0.3491
 1938TIP3   OH227228   5.907   3.329   0.662 -0.0438  0.2787  0.6405
 1938TIP3    H127229   5.925   3.238   0.640 -0.6199  0.0356  1.1576
 1938TIP3    H227230   5.882   3.327   0.755 -0.7671  0.8595  0.4686
 1939TIP3   OH227231   0.531   6.562   5.110 -0.0355  0.0328  0.0852
 1939TIP3    H127232   0.540   6.472   5.079 -1.0261  0.3807 -1.3403
 1939TIP3    H227233   0.439   6.568   5.138 -0.1125  0.7090 -0.2865
 1940TIP3   OH227234   5.284   0.409   5.549 -0.7989  0.1048  0.0470
 1940TIP3    H127235   5.313   0.453   5.629  0.0196  0.4435 -0.4188
 1940TIP3    H227236   5.294   0.475   5.481  0.8168 -0.8807 -0.7317
 1941TIP3   OH227237   1.052   5.419  12.019 -0.4456 -0.1873 -0.2977
 1941TIP3    H127238   1.043   5.394  12.111 -0.2101  0.7612 -0.0064
 1941TIP3    H227239   0.968   5.395  11.980 -0.7447 -0.1161  0.2823
 1942TIP3   OH227240   6.002   1.461   0.236  0.1707  0.4838  0.1290
 1942TIP3    H127241   5.953   1.514   0.298 -1.3440 -0.1520 -0.4646
 1942TIP3    H227242   6.093   1.487   0.248 -0.1410  0.7946  2.1891
 1943TIP3   OH227243   0.175   2.644  15.575  0.0709  0.1293 -0.5306
 1943TIP3    H127244   0.213   2.638  15.662 -0.1583  0.9462 -0.3707
 1943TIP3    H227245   0.118   2.567  15.568 -0.7445  0.6262  0.4513
 1944TIP3   OH227246   4.131   5.679   1.238 -0.0994 -0.5233 -0.6937
 1944TIP3    H127247   4.082   5.632   1.306 -0.1087  0.0049 -0.3259
 1944TIP3    H227248   4.175   5.750   1.285 -1.5960  1.0167 -1.4995
 1945TIP3   OH227249   6.783   5.303  16.878 -0.0978  0.4282 -0.9495
 1945TIP3    H127250   6.692   5.277  16.860 -0.4416  1.5919 -1.0289
 1945TIP3    H227251   6.776   5.357  16.957  0.6417 -0.0907 -0.5238
 1946TIP3   OH227252   1.002   0.985  11.471  0.1533  0.3587  0.4344
 1946TIP3    H127253   1.074   0.978  11.533  0.8585  1.0966 -0.2801
 1946TIP3    H227254   0.930   0.937  11.512  1.5034 -1.7742  0.4834
 1947TIP3   OH227255   6.241   2.797  14.595  0.1986 -0.4782  0.5572
 1947TIP3    H127256   6.268   2.887  14.615 -0.5257 -0.0849 -0.1721
 1947TIP3    H227257   6.308   2.765  14.535  0.4839 -0.4457  0.8544
 1948TIP3   OH227258   2.564   4.470  11.215 -0.7927  0.0886 -0.0627
 1948TIP3    H127259   2.644   4.470  11.267 -0.8323  0.8486  0.0179
 1948TIP3    H227260   2.581   4.530  11.143 -1.3911  0.5233  0.1394
 1949TIP3   OH227261   1.914   5.185  12.148 -0.1835  0.0356  0.2647
 1949TIP3    H127262   1.855   5.132  12.200 -1.8503  0.8011 -0.7519
 1949TIP3    H227263   1.858   5.223  12.079  1.7613 -0.4274 -1.6934
 1950TIP3   OH227264   0.179   3.250   2.429 -0.1786  0.0424 -0.2820
 1950TIP3    H127265   0.205   3.337   2.399 -0.8872 -0.2013 -1.6584
 1950TIP3    H227266   0.107   3.225   2.371 -1.7570 -0.3730  1.7336
 1951TIP3   OH227267   2.102   2.070  13.877 -0.0778  0.3118 -0.5088
 1951TIP3    H127268   2.025   2.125  13.891 -0.2305  0.8391 -3.0791
 1951TIP3    H227269   2.177   2.130  13.887 -0.1715  0.6023 -1.4466
 1952TIP3   OH227270   5.480   1.535  12.807 -0.2296  0.5642  0.3479
 1952TIP3    H127271   5.411   1.513  12.869 -0.0921 -0.7721  0.0462
 1952TIP3    H227272   5.498   1.453  12.761 -0.0702  1.4409 -1.2058
 1953TIP3   OH227273   1.778   2.531   2.654 -0.0166 -0.3768 -0.2559
 1953TIP3    H127274   1.857   2.493   2.616 -0.3594 -3.7721  1.9163
 1953TIP3    H227275   1.809   2.587   2.725  0.4982 -1.0297  0.0445
 1954TIP3   OH227276   6.507   6.122  13.655 -0.1716  0.3716  0.2469
 1954TIP3    H127277   6.588   6.114  13.704 -0.1239 -1.2003 -0.0141
 1954TIP3    H227278   6.493   6.034  13.618 -0.1672  1.4534 -2.6169
 1955TIP3   OH227279   6.639   5.292  13.812  0.0398  0.4158  0.3154
 1955TIP3    H127280   6.565   5.272  13.754  0.2862  0.3452  0.0245
 1955TIP3    H227281   6.716   5.289  13.755  0.2150  0.9856  0.5089
 1956TIP3   OH227282   0.397   2.714   0.239 -0.4264 -0.2608  0.2110
 1956TIP3    H127283   0.422   2.642   0.297 -1.1091  0.4004  1.3733
 1956TIP3    H227284   0.480   2.756   0.215 -0.1035 -0.7821  0.4111
 1957TIP3   OH227285   6.374   1.917  12.359 -0.3334  0.6352 -0.2201
 1957TIP3    H127286   6.410   1.898  12.273 -0.8646 -1.5632 -0.0174
 1957TIP3    H227287   6.396   2.009  12.374  1.5297  0.5345 -1.8332
 1958TIP3   OH227288   5.669   4.161  15.696  0.1244 -0.4798  0.2419
 1958TIP3    H127289   5.763   4.158  15.680  0.1610  1.7481 -0.3170
 1958TIP3    H227290   5.637   4.233  15.641 -1.5339  0.2555  2.0310
 1959TIP3   OH227291   5.160   0.540   6.052  0.6786 -0.6269 -0.3015
 1959TIP3    H127292   5.177   0.623   6.006  0.1912 -1.0086 -1.2010
 1959TIP3    H227293   5.073   0.551   6.090  0.3288 -0.9444 -0.9766
 1960TIP3   OH227294   1.039   1.972   0.678  0.1863 -0.0989  0.0277
 1960TIP3    H127295   1.113   1.963   0.618 -0.4220 -1.2457 -0.5975
 1960TIP3    H227296   0.981   1.899   0.654 -0.8338  0.4015  0.9299
 1961TIP3   OH227297   3.882   5.318  15.302 -0.2435 -0.3300  0.2133
 1961TIP3    H127298   3.821   5.381  15.264 -0.9497 -2.3337 -2.3121
 1961TIP3    H227299   3.862   5.318  15.396 -1.9102  1.3441 -0.0906
 1962TIP3   OH227300   3.941   0.417   2.536  0.3265 -0.1155 -0.6197
 1962TIP3    H127301   3.941   0.323   2.555  3.6439 -0.1585 -0.2927
 1962TIP3    H227302   3.975   0.424   2.447  1.1346  0.7869 -0.2646
 1963TIP3   OH227303   3.074   1.954  12.706  0.3891 -0.0657  0.3636
 1963TIP3    H127304   3.086   2.007  12.627 -0.6321 -0.5371 -0.1275
 1963TIP3    H227305   3.162   1.921  12.726  0.6371 -0.0595 -0.6581
 1964TIP3   OH227306   0.261   6.397  12.288  0.3370 -0.3096 -0.2434
 1964TIP3    H127307   0.203   6.341  12.339  1.1265 -2.1760 -1.2949
 1964TIP3    H227308   0.265   6.479  12.338 -1.2258 -0.9982  1.1116
 1965TIP3   OH227309   2.011   0.279  14.342 -0.3798 -0.1877  0.3603
 1965TIP3    H127310   1.936   0.223  14.361 -0.1447 -0.5473  0.2453
 1965TIP3    H227311   1.977   0.368  14.348 -0.6341 -0.3298  1.0742
 1966TIP3   OH227312   1.355   5.028  13.794  0.0136 -0.4841  0.3629
 1966TIP3    H127313   1.344   5.116  13.829 -0.6470 -1.8375  3.9570
 1966TIP3    H227314   1.266   4.994  13.788  0.3103 -1.1506 -0.3840
 1967TIP3   OH227315   3.024   5.942  13.766  0.6493 -0.7646  0.2307
 1967TIP3    H127316   2.933   5.926  13.741  0.4426  0.0793  0.4169
 1967TIP3    H227317   3.071   5.950  13.683 -0.0130  1.9009  0.0234
 1968TIP3   OH227318   3.205   5.780  15.172 -0.1175  0.1678  0.4368
 1968TIP3    H127319   3.219   5.853  15.112  0.9149 -0.3356  0.0361
 1968TIP3    H227320   3.241   5.704  15.126  1.0187 -0.1719  1.8081
 1969TIP3   OH227321   5.952   4.054   1.800  0.6211 -0.3828  0.0317
 1969TIP3    H127322   6.027   4.006   1.834  1.1614 -0.6322 -1.4153
 1969TIP3    H227323   5.875   4.003   1.828  1.1761 -2.3134 -1.6725
 1970TIP3   OH227324   5.269   1.572  13.004 -0.3912  0.0909 -0.1063
 1970TIP3    H127325   5.241   1.494  13.052  0.5249  0.5593  1.2449
 1970TIP3    H227326   5.313   1.626  13.069 -0.9487  1.7273 -1.0263
 1971TIP3   OH227327   3.298   0.940  16.568 -0.5134  0.2829  0.0582
 1971TIP3    H127328   3.377   0.894  16.538 -0.0015  1.6097 -0.7003
 1971TIP3    H227329   3.331   1.006  16.629 -1.3253 -0.8515  1.8365
 1972TIP3   OH227330   4.014   5.484  13.914  0.4281 -0.0100 -0.0538
 1972TIP3    H127331   4.053   5.505  13.829  0.4944 -3.1136 -0.9233
 1972TIP3    H227332   3.923   5.462  13.893  0.1753  0.1673  0.8485
 1973TIP3   OH227333   2.243   2.882   0.901  0.6851 -0.0427  0.6747
 1973TIP3    H127334   2.237   2.977   0.892 -2.7569  0.0344  2.0652
 1973TIP3    H227335   2.161   2.850   0.862  1.3368 -2.3532  1.1090
 1974TIP3   OH227336   4.814   0.736  12.863  0.5225  0.2574 -0.5409
 1974TIP3    H127337   4.839   0.826  12.844  1.8918  0.2873  1.0874
 1974TIP3    H227338   4.889   0.683  12.834  0.9611 -0.0385  0.9867
 1975TIP3   OH227339   1.993   0.174   4.807  0.3006 -0.6402  0.1667
 1975TIP3    H127340   2.041   0.225   4.741 -0.6387  0.5665  0.3812
 1975TIP3    H227341   2.035   0.088   4.805  1.0180 -0.3012 -1.2177
 1976TIP3   OH227342   0.783   4.628  12.442 -0.2027  0.1874  0.5448
 1976TIP3    H127343   0.866   4.581  12.445 -1.0548 -1.3862  0.2434
 1976TIP3    H227344   0.797   4.703  12.501  0.7432 -1.1950  2.1753
 1977TIP3   OH227345   1.264   0.375   5.793 -0.2885  0.0232  0.3277
 1977TIP3    H127346   1.256   0.368   5.697  3.0100 -2.1737  0.0272
 1977TIP3    H227347   1.223   0.295   5.826  0.5235 -0.3372  0.5039
 1978TIP3   OH227348   4.602   3.714   5.458 -0.2378 -0.0332  0.2734
 1978TIP3    H127349   4.619   3.799   5.498 -0.1139  0.1261 -0.1177
 1978TIP3    H227350   4.559   3.734   5.375 -1.5917 -0.4002  0.8644
 1979TIP3   OH227351   6.806   5.815   1.157  0.3054  0.2390 -0.2781
 1979TIP3    H127352   6.714   5.793   1.170 -0.1299  2.1962  0.3482
 1979TIP3    H227353   6.837   5.844   1.243  0.3886  3.1637 -1.1550
 1980TIP3   OH227354   3.665   3.007  11.961  0.2436  0.1317 -0.2034
 1980TIP3    H127355   3.647   2.917  11.932  1.3310 -0.1430 -0.0695
 1980TIP3    H227356   3.638   3.008  12.053 -1.2958  0.4241 -0.6287
 1981TIP3   OH227357   1.141   1.524   4.510 -0.2184  0.0573  0.0453
 1981TIP3    H127358   1.231   1.538   4.540  0.1631 -0.1625 -0.9664
 1981TIP3    H227359   1.147   1.450   4.449 -1.3829 -1.2086  1.3706
 1982TIP3   OH227360   0.987   4.678   3.099  0.2111 -0.0510 -0.5630
 1982TIP3    H127361   0.920   4.674   3.031 -1.6525  0.3655  1.1432
 1982TIP3    H227362   0.957   4.747   3.158  2.0133 -0.0509  0.4106
 1983TIP3   OH227363   6.347   3.375   2.838 -0.4617  0.3903 -0.0655
 1983TIP3    H127364   6.394   3.386   2.921  1.4631 -0.1556 -1.0207
 1983TIP3    H227365   6.355   3.460   2.795 -2.2099  0.9516  0.6083
 1984TIP3   OH227366   0.031   3.751   4.744  0.2040 -0.5367  0.0480
 1984TIP3    H127367  -0.061   3.775   4.733 -0.2295 -0.6862  2.6575
 1984TIP3    H227368   0.070   3.824   4.792  1.2635 -0.8187 -0.3550
 1985TIP3   OH227369   6.764   1.860  12.815  0.8315  0.3126  0.1776
 1985TIP3    H127370   6.672   1.878  12.795  0.8138  0.1481  0.1038
 1985TIP3    H227371   6.791   1.930  12.874  0.4946  0.0551  0.6469
 1986TIP3   OH227372   3.277   4.432  12.511  0.0065 -0.2180 -0.1808
 1986TIP3    H127373   3.239   4.489  12.577  0.6238  0.9510 -0.8050
 1986TIP3    H227374   3.359   4.401  12.550  1.5291  2.2634 -1.1692
 1987TIP3   OH227375   1.009   0.908   0.902 -0.1152 -0.4709 -0.5340
 1987TIP3    H127376   1.042   0.874   0.819 -1.4302  0.7867 -1.6484
 1987TIP3    H227377   0.933   0.854   0.922  0.4728 -1.0691  0.1120
 1988TIP3   OH227378   2.520   5.196   1.997 -0.7230 -0.0314 -0.0019
 1988TIP3    H127379   2.610   5.221   1.977 -1.1036 -0.0294 -1.8487
 1988TIP3    H227380   2.502   5.120   1.942 -1.8685 -0.0328  0.3270
 1989TIP3   OH227381   6.058   6.271   3.562  0.2426 -0.1657  0.4061
 1989TIP3    H127382   6.151   6.264   3.580  0.1442 -3.7571  0.1595
 1989TIP3    H227383   6.044   6.217   3.484 -2.1212 -0.1705  0.7646
 1990TIP3   OH227384   4.575   5.826  15.518 -0.4608 -0.0054 -0.3155
 1990TIP3    H127385   4.587   5.869  15.434  1.2018  0.0251 -0.0951
 1990TIP3    H227386   4.489   5.854  15.548 -0.7868  0.5142 -1.6919
 1991TIP3   OH227387   4.098   6.618  12.325  0.1028  0.1804 -0.2487
 1991TIP3    H127388   4.095   6.703  12.368 -0.1726  0.5883 -1.0704
 1991TIP3    H227389   4.091   6.555  12.397 -0.3572  0.8534  0.3074
 1992TIP3   OH227390   2.075   0.640  16.166  0.0641  0.2002 -0.7998
 1992TIP3    H127391   2.074   0.545  16.154 -1.7161  0.3071 -1.7903
 1992TIP3    H227392   2.026   0.655  16.247  1.0984  0.2532 -0.1621
 1993TIP3   OH227393   0.538   5.190  14.467  0.5921 -0.0162 -0.1464
 1993TIP3    H127394   0.601   5.247  14.423  0.3795  0.1458 -0.2413
 1993TIP3    H227395   0.511   5.128  14.399 -1.1511  1.3793 -0.8071
 1994TIP3   OH227396   1.720   1.148   0.617  0.1270 -0.4583 -0.3648
 1994TIP3    H127397   1.714   1.141   0.713  0.1768  0.4169 -0.2922
 1994TIP3    H227398   1.634   1.181   0.590  0.9935  2.0660 -0.3204
 1995TIP3   OH227399   3.440   3.932  12.757 -0.5030  0.3000 -0.2499
 1995TIP3    H127400   3.405   3.855  12.801  0.5682  0.6963  1.3994
 1995TIP3    H227401   3.396   4.006  12.800 -1.9849  0.6378 -2.2360
 1996TIP3   OH227402   5.064   1.897  14.170 -0.4285  0.5659 -0.6606
 1996TIP3    H127403   4.995   1.868  14.111 -1.3129 -1.0088  1.0371
 1996TIP3    H227404   5.017   1.935  14.245  0.6042  0.8505 -0.1359
 1997TIP3   OH227405   3.377   3.810  14.526 -0.1257 -0.1089 -0.0744
 1997TIP3    H127406   3.348   3.771  14.443  0.4509 -1.2799  0.2629
 1997TIP3    H227407   3.305   3.795  14.586  0.1042 -0.6936  0.0612
 1998TIP3   OH227408   4.217   6.502   4.949  0.0413 -0.3402  0.4651
 1998TIP3    H127409   4.274   6.565   4.905 -0.8314  0.4865  0.4877
 1998TIP3    H227410   4.176   6.453   4.878  1.2747 -1.4044  0.4642
 1999TIP3   OH227411   4.962   5.081   3.503  0.2932 -0.7194 -0.5531
 1999TIP3    H127412   4.995   5.143   3.568 -1.1413 -0.4117 -0.0782
 1999TIP3    H227413   4.929   5.008   3.554 -0.2038 -0.7960 -0.9717
 2000TIP3   OH227414   3.784   2.818   4.795 -0.4152  0.2705 -0.1150
 2000TIP3    H127415   3.793   2.909   4.767 -1.4110  1.0077  1.7600
 2000TIP3    H227416   3.790   2.822   4.891 -0.8831 -1.5955  0.0271
 2001TIP3   OH227417   1.612   0.070  16.305  0.0126  0.0261  0.2284
 2001TIP3    H127418   1.557   0.065  16.383 -0.5502 -0.4913 -0.1841
 2001TIP3    H227419   1.568   0.135  16.249 -2.3962 -2.9869 -1.7182
 2002TIP3   OH227420   5.259   5.268   0.480  0.0732  0.1017  0.4979
 2002TIP3    H127421   5.302   5.329   0.420  0.6240 -1.5764 -0.9021
 2002TIP3    H227422   5.177   5.312   0.504  0.8533  1.7634  0.3055
 2003TIP3   OH227423   2.518   3.093   1.128  0.1334  0.4856 -0.2865
 2003TIP3    H127424   2.473   3.164   1.082  0.8877  0.8018 -0.5538
 2003TIP3    H227425   2.532   3.126   1.217  1.8014  1.2958 -0.8048
 2004TIP3   OH227426   1.720   2.297  15.337 -0.6103  0.2887  0.0873
 2004TIP3    H127427   1.763   2.290  15.252  1.3899  0.2018  1.0547
 2004TIP3    H227428   1.752   2.379  15.374 -1.7246  0.5047  0.6401
 2005TIP3   OH227429   6.698   0.465   0.781 -0.1302  0.6290 -0.1726
 2005TIP3    H127430   6.612   0.445   0.743 -0.4670  0.4801  0.6650
 2005TIP3    H227431   6.703   0.412   0.860  0.7126  0.6874 -0.1787
 2006TIP3   OH227432   5.100   1.519   3.045  0.0365  0.2298 -0.1886
 2006TIP3    H127433   5.053   1.436   3.035 -0.0078 -0.0728  2.0468
 2006TIP3    H227434   5.188   1.494   3.074  0.2106  0.9358 -0.0933
 2007TIP3   OH227435   6.435   3.376   5.895 -0.0097  0.1010 -0.2178
 2007TIP3    H127436   6.503   3.331   5.844  1.2631 -0.5116  1.8669
 2007TIP3    H227437   6.356   3.326   5.880  0.7137 -1.0386 -0.3242
 2008TIP3   OH227438   1.515   3.236  13.365  0.1837  0.0081  0.0650
 2008TIP3    H127439   1.475   3.312  13.407  1.0190  0.4290  0.1101
 2008TIP3    H227440   1.573   3.198  13.431 -1.7517 -1.9399  0.7875
 2009TIP3   OH227441   2.298   2.270  16.418  0.8407  0.5639 -0.0870
 2009TIP3    H127442   2.358   2.282  16.344  0.7193  0.1916 -0.2481
 2009TIP3    H227443   2.214   2.249  16.377  1.1701 -1.4369  0.1809
 2010TIP3   OH227444   2.123   4.728  13.986 -0.0217 -0.4907 -0.2156
 2010TIP3    H127445   2.186   4.799  13.968  0.7871 -0.8912  0.9344
 2010TIP3    H227446   2.083   4.751  14.070 -2.4983  0.4781 -1.5559
 2011TIP3   OH227447   3.743   4.950   3.248  0.5564 -0.3686 -0.2112
 2011TIP3    H127448   3.681   5.014   3.215 -0.2862 -0.2149  1.5375
 2011TIP3    H227449   3.812   5.002   3.288  0.5318 -0.5327  0.0489
 2012TIP3   OH227450   5.303   6.314  16.743 -0.0001  0.0375 -0.2766
 2012TIP3    H127451   5.275   6.246  16.805  2.1482 -1.0252 -0.3565
 2012TIP3    H227452   5.290   6.276  16.657 -1.6073  0.9439 -0.4619
 2013TIP3   OH227453   1.490   3.183  16.014  0.4151 -0.3931 -0.3387
 2013TIP3    H127454   1.509   3.202  16.106  0.2836 -0.2059 -0.3490
 2013TIP3    H227455   1.432   3.107  16.016  1.1033 -0.9260 -0.3016
 2014TIP3   OH227456   4.150   5.488  12.647 -0.2876  0.2356  0.1117
 2014TIP3    H127457   4.122   5.544  12.720  0.3174  1.5569 -0.6310
 2014TIP3    H227458   4.181   5.550  12.580  1.6175 -1.0348 -0.2523
 2015TIP3   OH227459   0.006   2.198  14.485 -0.8807 -0.0623 -0.3375
 2015TIP3    H127460  -0.027   2.273  14.436  0.6873  0.6819 -0.3398
 2015TIP3    H227461   0.097   2.189  14.456 -0.7381 -1.3343  0.4164
 2016TIP3   OH227462   3.978   1.862  12.586 -0.1427 -0.0009 -0.4551
 2016TIP3    H127463   4.064   1.832  12.558  0.5460 -0.4335  1.8721
 2016TIP3    H227464   3.991   1.894  12.676 -2.6851 -1.6156  0.6194
 2017TIP3   OH227465   6.727   5.216   3.520 -0.2337 -0.4415  0.1123
 2017TIP3    H127466   6.675   5.227   3.599 -0.0322 -0.0343  0.1889
 2017TIP3    H227467   6.793   5.285   3.524  0.1771 -0.8094 -0.0937
 2018TIP3   OH227468   1.380   0.995  16.218 -1.2053 -0.3532  0.3212
 2018TIP3    H127469   1.452   0.983  16.279 -0.6775 -0.5922 -0.3337
 2018TIP3    H227470   1.360   1.088  16.221 -1.3336 -0.3976  1.0118
 2019TIP3   OH227471   5.009   4.034  13.166 -0.0093  0.3377 -0.5322
 2019TIP3    H127472   4.919   4.001  13.169  0.0426  0.2041 -0.4980
 2019TIP3    H227473   5.000   4.128  13.185  0.1849 -0.2280  2.7851
 2020TIP3   OH227474   5.580   4.836   3.709  0.7433  0.2247 -0.0023
 2020TIP3    H127475   5.499   4.795   3.681  2.0722 -2.2439 -0.5379
 2020TIP3    H227476   5.553   4.908   3.766 -1.7763 -0.7450  0.1282
 2021TIP3   OH227477   5.412   3.884   2.954  0.5009  0.1581 -0.2486
 2021TIP3    H127478   5.402   3.800   2.999  0.8966  0.0826 -0.2912
 2021TIP3    H227479   5.327   3.928   2.963  1.0824  0.9428  2.2022
 2022TIP3   OH227480   3.114   5.886   4.654 -0.3942  0.0909  0.2900
 2022TIP3    H127481   3.124   5.949   4.584  1.4513 -0.8472 -0.3588
 2022TIP3    H227482   3.076   5.808   4.612  0.9533 -0.5656  0.2387
 2023TIP3   OH227483   2.961   2.331   0.193  0.3584  0.2109 -0.2374
 2023TIP3    H127484   2.909   2.325   0.113 -0.0783 -1.0458  0.1218
 2023TIP3    H227485   3.013   2.251   0.193 -0.0829 -0.0930  1.0274
 2024TIP3   OH227486   0.015   5.107   1.085 -0.1045 -0.5508 -0.3802
 2024TIP3    H127487  -0.019   5.021   1.112 -0.2298 -0.1257  0.8650
 2024TIP3    H227488   0.081   5.128   1.150  0.3646  0.0371 -1.0337
 2025TIP3   OH227489   6.380   6.090   5.280 -0.3845 -0.4971  0.0135
 2025TIP3    H127490   6.405   6.019   5.220 -0.5225 -1.0591  0.6075
 2025TIP3    H227491   6.392   6.053   5.367 -2.8477 -0.6868  0.3620
 2026TIP3   OH227492   1.667   0.259  11.652 -0.2672 -0.9379 -1.3032
 2026TIP3    H127493   1.688   0.211  11.732 -1.9670  1.5582  0.8023
 2026TIP3    H227494   1.736   0.325  11.645 -1.0949  0.0095 -0.8037
 2027TIP3   OH227495   2.597   6.512  14.092 -0.5717  0.3580 -0.0187
 2027TIP3    H127496   2.680   6.561  14.089 -0.2306 -0.0382  1.6156
 2027TIP3    H227497   2.621   6.429  14.133 -1.6678 -0.0234 -0.1365
 2028TIP3   OH227498   2.988   3.996  13.835  1.0633  0.2969 -0.2074
 2028TIP3    H127499   2.989   3.931  13.905  1.6314  1.2470  0.6984
 2028TIP3    H227500   2.899   4.032  13.837  1.2123  0.6408  0.3402
 2029TIP3   OH227501   4.112   2.309  12.662  0.3403  0.1634 -0.1493
 2029TIP3    H127502   4.205   2.330  12.647  0.4874 -0.1997  0.2210
 2029TIP3    H227503   4.092   2.243  12.596  1.0167 -1.5153  1.2412
 2030TIP3   OH227504   5.194   2.815   5.259 -0.5524  0.3125  0.2313
 2030TIP3    H127505   5.137   2.892   5.251  0.9350  1.5347  0.8405
 2030TIP3    H227506   5.135   2.743   5.281 -1.7999  1.6423  1.4098
 2031TIP3   OH227507   3.941   3.601  12.332 -0.0257  0.7306  0.0525
 2031TIP3    H127508   3.984   3.589  12.417  0.9318  0.4228 -0.4528
 2031TIP3    H227509   4.009   3.640  12.276  0.3650 -1.8169 -1.4163
 2032TIP3   OH227510   2.533   5.912   5.636 -0.3167  0.1178  0.4114
 2032TIP3    H127511   2.500   5.911   5.726 -0.8916  1.6168  0.2499
 2032TIP3    H227512   2.493   5.835   5.595 -0.7350 -0.0932  1.1987
 2033TIP3   OH227513   6.690   0.260   5.590  0.5268  0.1165 -0.1520
 2033TIP3    H127514   6.678   0.223   5.502  1.7269 -0.3405 -0.1369
 2033TIP3    H227515   6.773   0.223   5.621  0.4215  0.7483  0.9359
 2034TIP3   OH227516   2.624   6.023  15.732 -0.8110 -0.5148 -0.3644
 2034TIP3    H127517   2.555   6.052  15.792  0.5499  0.2321  0.9108
 2034TIP3    H227518   2.590   6.043  15.645 -1.6934  1.0453  0.2917
 2035TIP3   OH227519   4.779   5.281  16.432  0.3943  0.1739 -0.3076
 2035TIP3    H127520   4.867   5.268  16.465  0.5231 -0.3866 -0.8509
 2035TIP3    H227521   4.777   5.233  16.349  0.1857  1.8182 -1.2956
 2036TIP3   OH227522   5.582   3.380   2.766 -0.0619 -0.1867  0.1310
 2036TIP3    H127523   5.602   3.465   2.805 -1.6990  0.4643 -0.3288
 2036TIP3    H227524   5.667   3.337   2.753  0.8287  1.5862 -0.1011
 2037TIP3   OH227525   4.718   5.270  15.349 -0.0619  0.2019 -0.3143
 2037TIP3    H127526   4.645   5.219  15.316  1.2802 -0.9654 -1.6446
 2037TIP3    H227527   4.678   5.350  15.383 -1.8142  0.6701 -3.0964
 2038TIP3   OH227528   3.585   4.005  12.003  0.0109  0.4453  0.1330
 2038TIP3    H127529   3.654   3.948  11.968  0.6701  0.9700  0.5372
 2038TIP3    H227530   3.535   4.033  11.927  0.4840  0.3679 -0.2103
 2039TIP3   OH227531   2.231   6.567   3.902  0.1196 -0.6041  0.5210
 2039TIP3    H127532   2.239   6.658   3.872 -1.6432 -0.4722  0.3371
 2039TIP3    H227533   2.206   6.518   3.824 -0.0341 -1.0530  0.8492
 2040TIP3   OH227534   2.672   2.775  15.154 -0.3815  0.4545 -0.1472
 2040TIP3    H127535   2.599   2.828  15.185 -0.1496  0.0087  1.2577
 2040TIP3    H227536   2.691   2.808  15.067 -0.8135  2.0857  0.3374
 2041TIP3   OH227537   5.818   5.857  14.531  0.6119  0.6150  0.0544
 2041TIP3    H127538   5.726   5.881  14.519  0.4314 -0.1576 -0.1301
 2041TIP3    H227539   5.857   5.865  14.444  0.4023 -0.3747 -0.1353
 2042TIP3   OH227540   2.136   5.702  12.210 -0.1985 -0.5350  0.5709
 2042TIP3    H127541   2.209   5.750  12.249  2.5059 -2.9391 -1.0998
 2042TIP3    H227542   2.091   5.661  12.284  0.7663  0.1731  1.5845
 2043TIP3   OH227543   4.617   4.716  12.766  0.1321  0.2954  0.4396
 2043TIP3    H127544   4.613   4.758  12.681  0.4703  0.0259  0.2867
 2043TIP3    H227545   4.696   4.750  12.807  0.0045  0.3771  0.6216
 2044TIP3   OH227546   6.266   2.707  15.406  0.2308 -0.1324  0.2375
 2044TIP3    H127547   6.215   2.712  15.325  0.0537  0.0601  0.3592
 2044TIP3    H227548   6.356   2.724  15.379  0.0468  0.8457  0.2118
 2045TIP3   OH227549   5.341   0.659   0.327 -0.0004 -0.1776 -0.4406
 2045TIP3    H127550   5.400   0.622   0.392 -0.9010 -0.5902  0.1635
 2045TIP3    H227551   5.253   0.646   0.363 -0.5471 -0.6859 -1.8733
 2046TIP3   OH227552   4.278   4.767   3.465  0.3039  0.3903 -0.0150
 2046TIP3    H127553   4.323   4.835   3.514  0.5496 -0.5330  1.0626
 2046TIP3    H227554   4.235   4.815   3.393  1.0497  1.5766  0.2947
 2047TIP3   OH227555   2.674   1.113   1.208  0.0198 -0.3940 -0.2129
 2047TIP3    H127556   2.673   1.203   1.241  0.1262 -0.3215 -0.4030
 2047TIP3    H227557   2.645   1.121   1.117 -0.3571 -0.6009 -0.1106
 2048TIP3   OH227558   6.224   2.641  16.307 -0.5323  0.4300 -0.4624
 2048TIP3    H127559   6.204   2.550  16.328  0.1078 -0.1837 -2.2632
 2048TIP3    H227560   6.320   2.644  16.305 -0.5588  0.8925 -1.3323
 2049TIP3   OH227561   4.636   1.199   0.442  0.8244  0.0057  0.2503
 2049TIP3    H127562   4.615   1.254   0.517  0.6863 -0.0132  0.2269
 2049TIP3    H227563   4.557   1.200   0.388 -0.0843 -2.0823  1.3999
 2050TIP3   OH227564   1.653   2.395  14.161 -0.3901 -0.2897  0.8265
 2050TIP3    H127565   1.557   2.399  14.162 -0.5404 -0.7563  4.8194
 2050TIP3    H227566   1.673   2.301  14.168  0.3685 -0.1790  0.2288
 2051TIP3   OH227567   1.034   2.541   1.282  0.1230 -0.5206  0.4042
 2051TIP3    H127568   0.996   2.454   1.286 -0.1073 -0.5262 -1.2098
 2051TIP3    H227569   1.125   2.526   1.255  0.1844 -0.2915  0.4841
 2052TIP3   OH227570   4.364   0.405  10.723  0.0022  0.5050  0.4436
 2052TIP3    H127571   4.281   0.454  10.725 -1.1080 -1.2116 -0.9164
 2052TIP3    H227572   4.362   0.352  10.803 -1.2527 -1.0593 -0.5643
 2053TIP3   OH227573   3.754   0.221   1.018  0.1728 -0.2658 -0.2659
 2053TIP3    H127574   3.683   0.272   1.055 -0.3224 -0.3629 -1.0587
 2053TIP3    H227575   3.802   0.188   1.094 -0.2012  0.3907  0.2621
 2054TIP3   OH227576   3.212   2.779   2.521 -0.2239 -0.0042 -0.5122
 2054TIP3    H127577   3.209   2.842   2.448 -2.4917  0.3265 -0.2048
 2054TIP3    H227578   3.184   2.696   2.482  1.3468 -0.5340 -0.5915
 2055TIP3   OH227579   0.694   0.852   3.767 -0.5635 -1.0651  0.0378
 2055TIP3    H127580   0.620   0.911   3.777 -0.3043 -0.9158  1.2576
 2055TIP3    H227581   0.655   0.769   3.740 -1.0874 -0.7582 -0.1608
 2056TIP3   OH227582   4.176   3.695   1.433 -0.1877  0.2508 -0.0109
 2056TIP3    H127583   4.143   3.758   1.496 -0.3587 -0.6450  0.8222
 2056TIP3    H227584   4.235   3.639   1.484 -3.0025 -2.7511  0.3229
 2057TIP3   OH227585   4.729   3.157   4.958  0.3608  0.1740 -0.2812
 2057TIP3    H127586   4.660   3.105   4.915  0.1740  0.3548 -0.2007
 2057TIP3    H227587   4.775   3.200   4.886  1.6181 -1.4256 -0.5026
 2058TIP3   OH227588   3.003   5.641  14.158 -0.3387 -0.0399  0.1975
 2058TIP3    H127589   2.927   5.649  14.100 -0.2014  0.5801  0.0999
 2058TIP3    H227590   2.965   5.632  14.246 -0.5188  1.5686  0.3049
 2059TIP3   OH227591   5.565   6.767   4.882  0.1517 -0.5948 -0.0246
 2059TIP3    H127592   5.578   6.739   4.792  0.8814 -0.8887  0.1674
 2059TIP3    H227593   5.604   6.697   4.935  0.6465  0.0708  0.4977
 2060TIP3   OH227594   0.810   2.989   0.441 -0.8514 -0.0925  0.3614
 2060TIP3    H127595   0.790   2.992   0.535  2.1092  0.1791  1.1003
 2060TIP3    H227596   0.824   3.080   0.416  1.5822 -0.3259  0.5690
 2061TIP3   OH227597   1.370   5.067   3.954 -0.4583 -0.1793  0.1635
 2061TIP3    H127598   1.335   5.080   4.042  0.2742 -0.0029  0.4341
 2061TIP3    H227599   1.412   5.150   3.932  0.0814 -0.4915 -0.0091
 2062TIP3   OH227600   0.599   5.696  15.158  0.1509  0.0102  0.3065
 2062TIP3    H127601   0.613   5.788  15.133  0.4469  0.0328  0.5458
 2062TIP3    H227602   0.515   5.673  15.120 -2.3110  1.7867  4.0857
 2063TIP3   OH227603   5.900   4.780  13.381  0.6891  0.3716  0.2273
 2063TIP3    H127604   5.830   4.717  13.366  1.1482  0.3817 -2.3598
 2063TIP3    H227605   5.893   4.802  13.474 -2.3441 -0.0703  0.1969
 2064TIP3   OH227606   2.046   2.027  14.768  0.1545  0.7067 -0.3788
 2064TIP3    H127607   2.110   2.091  14.799  0.8296  0.4771 -1.2809
 2064TIP3    H227608   2.023   1.977  14.847  1.4712  0.4528 -0.1394
 2065TIP3   OH227609   3.676   2.936   4.387 -0.2602  0.2053 -0.1913
 2065TIP3    H127610   3.763   2.897   4.385  0.1962  1.1819 -0.5496
 2065TIP3    H227611   3.659   2.961   4.296 -0.7196  0.4315 -0.0494
 2066TIP3   OH227612   0.175   2.967  16.663  0.0877  0.3462  0.2150
 2066TIP3    H127613   0.121   2.889  16.646 -1.8525  0.7849  3.4371
 2066TIP3    H227614   0.167   3.019  16.583 -3.6990 -0.0580  0.1097
 2067TIP3   OH227615   2.827   3.278   4.333  0.3503 -0.2893  0.7938
 2067TIP3    H127616   2.733   3.266   4.325  0.5045 -1.0909 -0.1974
 2067TIP3    H227617   2.841   3.305   4.423 -0.9535  1.3147  0.5494
 2068TIP3   OH227618   3.947   2.997   3.672  0.3050 -0.6811  0.0470
 2068TIP3    H127619   4.007   2.943   3.723 -0.7416 -1.2622  0.7009
 2068TIP3    H227620   3.993   3.012   3.589  1.1566 -1.4842  0.3552
 2069TIP3   OH227621   6.591   3.867   0.070  0.7863  0.1545  0.8816
 2069TIP3    H127622   6.630   3.806   0.007 -2.5620 -0.6026 -0.7419
 2069TIP3    H227623   6.615   3.832   0.156  0.5492 -2.4549 -0.0131
 2070TIP3   OH227624   3.801   2.291   2.047 -0.4438  0.5296 -0.3834
 2070TIP3    H127625   3.831   2.201   2.049 -1.1147  0.3025 -0.3277
 2070TIP3    H227626   3.785   2.310   1.954 -1.4491  0.1954 -0.2898
 2071TIP3   OH227627   4.661   6.412   0.901 -0.5815 -0.5169 -0.3754
 2071TIP3    H127628   4.666   6.342   0.966  0.3730 -1.2103 -1.1708
 2071TIP3    H227629   4.728   6.475   0.928 -1.4038  0.1093  0.3092
 2072TIP3   OH227630   3.932   5.774   0.713 -0.0820 -0.4740  0.2240
 2072TIP3    H127631   3.944   5.868   0.696  1.2865 -0.4494  1.1397
 2072TIP3    H227632   4.021   5.740   0.720 -0.5652 -1.8652 -0.1054
 2073TIP3   OH227633   1.495   5.715   5.528  0.0289  0.6108  0.0571
 2073TIP3    H127634   1.463   5.644   5.584  1.9794  0.1357  0.6524
 2073TIP3    H227635   1.417   5.749   5.485 -1.0275 -1.5769  0.1229
 2074TIP3   OH227636   3.387   5.792   1.243  0.5382  0.1093 -0.1729
 2074TIP3    H127637   3.334   5.718   1.273  0.0453  0.4170 -0.2865
 2074TIP3    H227638   3.458   5.799   1.307  0.6129 -0.4864 -0.1818
 2075TIP3   OH227639   2.576   5.221   0.023 -0.0279  0.2259  0.0988
 2075TIP3    H127640   2.578   5.155  -0.046 -0.9958  0.0328  0.2417
 2075TIP3    H227641   2.496   5.202   0.072  0.4818  0.5554  1.0857
 2076TIP3   OH227642   4.314   3.110  14.549 -0.0370 -0.1938 -0.2265
 2076TIP3    H127643   4.321   3.025  14.592 -1.5643  0.0474  0.5796
 2076TIP3    H227644   4.372   3.104  14.473  1.7821 -1.0879  1.1540
 2077TIP3   OH227645   1.659   5.150   2.129  0.2043  0.0408  0.7135
 2077TIP3    H127646   1.617   5.223   2.175  0.9923  0.0546  1.4572
 2077TIP3    H227647   1.740   5.136   2.178  0.9858 -0.0809 -0.5803
 2078TIP3   OH227648   5.772   3.025   1.913 -0.0022 -0.0435  0.4310
 2078TIP3    H127649   5.855   2.985   1.884  0.1382 -0.4629  1.3631
 2078TIP3    H227650   5.771   3.111   1.871 -0.6997 -1.2926 -2.2940
 2079TIP3   OH227651   4.867   4.151   4.101 -0.0441  0.0609 -0.3182
 2079TIP3    H127652   4.796   4.143   4.165  0.6468 -0.0803  0.4447
 2079TIP3    H227653   4.943   4.113   4.144  0.3918 -0.2520 -1.3170
 2080TIP3   OH227654   1.315   4.330  11.607 -0.4195 -0.2924 -0.2272
 2080TIP3    H127655   1.336   4.350  11.698 -1.8295 -2.8486  0.7621
 2080TIP3    H227656   1.252   4.397  11.582 -1.3371 -0.5354  1.2904
 2081TIP3   OH227657   4.540   3.475  14.631  0.5670  0.4635  0.1622
 2081TIP3    H127658   4.576   3.563  14.622 -1.0280  1.2244  0.7896
 2081TIP3    H227659   4.450   3.483  14.602 -0.2849 -0.3994  2.3637
 2082TIP3   OH227660   3.598   1.181   6.530  0.0077  0.2909 -0.1652
 2082TIP3    H127661   3.635   1.267   6.513  0.3890  0.2808  0.5550
 2082TIP3    H227662   3.640   1.153   6.612 -2.0252  0.5348  1.0372
 2083TIP3   OH227663   5.835   6.060  16.762  0.1851  0.2557  0.6405
 2083TIP3    H127664   5.776   6.090  16.831  2.1275  1.6008  1.8269
 2083TIP3    H227665   5.777   6.025  16.694 -1.8563  0.0133  2.4076
 2084TIP3   OH227666   1.475   5.505   5.733  0.1921 -0.0998  0.3907
 2084TIP3    H127667   1.516   5.434   5.684 -2.7471 -0.6946 -1.5118
 2084TIP3    H227668   1.398   5.465   5.774 -1.2311  1.7659 -0.2664
 2085TIP3   OH227669   4.969   4.371  15.298  0.2385  0.2127 -0.7209
 2085TIP3    H127670   4.959   4.421  15.217  0.8931 -0.8819 -1.4983
 2085TIP3    H227671   5.018   4.293  15.273  2.3940  0.8506  1.1153
 2086TIP3   OH227672   2.835   4.825  15.135  0.4247  0.1141  0.3293
 2086TIP3    H127673   2.797   4.783  15.212  0.4324  1.5887  1.1748
 2086TIP3    H227674   2.833   4.919  15.155  0.8275  0.5067 -1.2860
 2087TIP3   OH227675   6.668   3.065  15.302 -0.0483 -0.3528 -0.0711
 2087TIP3    H127676   6.705   3.065  15.214  0.8886 -2.1309  0.3006
 2087TIP3    H227677   6.728   3.119  15.353 -0.7919  0.9922 -0.5593
 2088TIP3   OH227678   2.779   5.508  10.853  0.2085 -0.3065  0.2875
 2088TIP3    H127679   2.729   5.587  10.875 -0.8140 -0.6681 -0.6472
 2088TIP3    H227680   2.840   5.537  10.785 -0.7397 -0.4850 -0.6583
 2089TIP3   OH227681   1.393   2.330   5.755  0.2549  0.3485  0.2931
 2089TIP3    H127682   1.381   2.410   5.806 -0.2254  0.5750 -0.1729
 2089TIP3    H227683   1.459   2.280   5.804  2.0964  1.9285 -0.4528
 2090TIP3   OH227684   1.226   5.501   4.799 -0.7099  0.2295 -0.0118
 2090TIP3    H127685   1.293   5.551   4.752 -0.7372 -2.0494 -2.7188
 2090TIP3    H227686   1.275   5.436   4.849 -0.8283  0.2600  0.1453
 2091TIP3   OH227687   6.035   4.725  13.799  0.7117 -0.2292 -0.3555
 2091TIP3    H127688   5.956   4.730  13.853  1.1669  0.7809  0.2492
 2091TIP3    H227689   6.019   4.786  13.727 -0.0960 -1.9309 -1.6907
 2092TIP3   OH227690   4.703   3.756  15.634  0.0235  0.4257  0.0176
 2092TIP3    H127691   4.646   3.824  15.599 -3.6255 -1.8293  1.0191
 2092TIP3    H227692   4.676   3.747  15.725  1.6188 -1.1768  0.3914
 2093TIP3   OH227693   1.030   4.307  16.786 -0.1939  0.2410 -0.5139
 2093TIP3    H127694   1.099   4.276  16.727 -0.2291  0.5482 -0.7211
 2093TIP3    H227695   0.949   4.270  16.749 -0.0402 -0.9816  0.3188
 2094TIP3   OH227696   4.470   1.633  12.689  0.6317 -0.3561 -0.3133
 2094TIP3    H127697   4.556   1.674  12.685  0.4356  0.0453 -0.5365
 2094TIP3    H227698   4.486   1.546  12.726  0.8130  0.5847  2.0033
 2095TIP3   OH227699   4.911   2.441   3.106  0.0036  0.5585  0.3463
 2095TIP3    H127700   4.982   2.464   3.165  0.9983  1.3208 -1.0909
 2095TIP3    H227701   4.838   2.495   3.134  1.2828  3.0443 -0.7952
 2096TIP3   OH227702   0.588   3.941   3.634 -0.3417 -0.1365  0.0092
 2096TIP3    H127703   0.565   3.880   3.564  2.0283 -0.0930 -0.8954
 2096TIP3    H227704   0.594   4.026   3.591 -0.7536  0.2268  0.6613
 2097TIP3   OH227705   1.750   5.895   1.332 -0.0441 -0.2514  0.1568
 2097TIP3    H127706   1.788   5.978   1.361  0.1434 -0.4430  0.4698
 2097TIP3    H227707   1.658   5.900   1.359  0.0831 -0.3457  0.6111
 2098TIP3   OH227708   4.213   4.654  14.253 -0.1829 -0.6068  0.2655
 2098TIP3    H127709   4.175   4.710  14.185 -0.2412  0.2217  0.9565
 2098TIP3    H227710   4.300   4.691  14.268 -0.6346  0.0403  1.5204
 2099TIP3   OH227711   1.802   0.354   6.911  0.1406  0.2100  0.1128
 2099TIP3    H127712   1.722   0.312   6.878  0.1675  0.2442  0.0056
 2099TIP3    H227713   1.852   0.282   6.951 -0.0330  0.2227  0.3537
 2100TIP3   OH227714   3.839   4.210   0.292 -0.3951 -0.4224  0.0239
 2100TIP3    H127715   3.897   4.194   0.367 -0.8956  0.2875  0.5701
 2100TIP3    H227716   3.761   4.159   0.311 -0.7482  0.2004  0.2638
 2101TIP3   OH227717   3.715   3.605  11.182 -0.1452  0.2280 -0.3029
 2101TIP3    H127718   3.664   3.668  11.233 -2.4451 -0.3762 -1.6937
 2101TIP3    H227719   3.792   3.589  11.236 -1.1021  1.6658  1.6773
 2102TIP3   OH227720   0.670   0.090   4.764 -0.0705 -0.4417 -0.5569
 2102TIP3    H127721   0.676   0.054   4.852 -0.5727 -0.1022 -0.3833
 2102TIP3    H227722   0.592   0.050   4.726 -0.2438 -0.0674 -0.6039
 2103TIP3   OH227723   5.711   1.269   4.404  0.5475 -0.3331  0.3018
 2103TIP3    H127724   5.776   1.251   4.472 -0.0455 -1.2047  0.6559
 2103TIP3    H227725   5.756   1.329   4.344  1.0444  0.5532  1.5025
 2104TIP3   OH227726   2.476   2.055  11.880  0.2976  0.6789  0.3047
 2104TIP3    H127727   2.502   1.966  11.857  0.0828  1.0932 -1.7348
 2104TIP3    H227728   2.520   2.110  11.815 -1.4431  1.8453  0.0689
 2105TIP3   OH227729   6.514   5.161   1.190  0.2332 -0.2298  0.2413
 2105TIP3    H127730   6.470   5.076   1.202 -2.0975  0.9584  0.7554
 2105TIP3    H227731   6.507   5.177   1.096 -0.4687 -0.0755  0.3087
 2106TIP3   OH227732   5.248   4.189  15.533  0.1491  0.1259 -0.4296
 2106TIP3    H127733   5.292   4.228  15.457  2.1043  1.4069  1.2626
 2106TIP3    H227734   5.314   4.132  15.572 -0.1760  0.8700  1.3040
 2107TIP3   OH227735   3.801   5.123   0.612 -0.0805 -0.0604 -0.0532
 2107TIP3    H127736   3.810   5.217   0.598  0.9104 -0.2137 -0.5196
 2107TIP3    H227737   3.806   5.084   0.524 -2.6320 -0.4334 -0.1315
 2108TIP3   OH227738   1.086   0.539  12.749  0.2372 -0.2065  0.2879
 2108TIP3    H127739   0.994   0.523  12.766  0.2750 -1.0142 -0.1942
 2108TIP3    H227740   1.105   0.486  12.671  1.0398  0.1507  0.2333
 2109TIP3   OH227741   0.455   5.838  11.336 -0.4836  0.0332 -0.2456
 2109TIP3    H127742   0.530   5.802  11.383 -0.7306 -2.8023 -1.7838
 2109TIP3    H227743   0.481   5.927  11.315  2.5698 -0.8778 -0.8490
 2110TIP3   OH227744   1.655   1.165   1.656  0.3331  0.1106  0.4421
 2110TIP3    H127745   1.734   1.218   1.663  0.7227  0.0365 -2.2079
 2110TIP3    H227746   1.681   1.089   1.603 -0.9795 -1.1045  1.4483
 2111TIP3   OH227747   4.013   1.441  16.326 -0.2434 -0.3673  0.0473
 2111TIP3    H127748   4.029   1.516  16.384 -2.0826 -0.8317  1.2320
 2111TIP3    H227749   4.057   1.463  16.245  1.6757  0.7302  1.3048
 2112TIP3   OH227750   0.824   1.506   2.259 -0.8040  0.0249  0.5215
 2112TIP3    H127751   0.833   1.489   2.353 -1.4495 -2.1064  0.2366
 2112TIP3    H227752   0.836   1.601   2.252  0.3720  0.1126  2.6054
 2113TIP3   OH227753   5.289   3.088   1.133 -0.6111  0.1410  0.5677
 2113TIP3    H127754   5.218   3.109   1.073  0.4251 -1.1142 -1.1719
 2113TIP3    H227755   5.365   3.136   1.100 -0.3714  0.6772  1.8115
 2114TIP3   OH227756   2.592   3.336  16.181  1.0408  0.0325  0.1333
 2114TIP3    H127757   2.556   3.252  16.151  2.9166 -0.5091 -0.8060
 2114TIP3    H227758   2.582   3.334  16.276 -1.1390 -0.1439 -0.0588
 2115TIP3   OH227759   3.204   3.363   0.394  0.1202 -0.1537 -0.4798
 2115TIP3    H127760   3.245   3.385   0.478  1.0273  0.9628 -1.2011
 2115TIP3    H227761   3.167   3.275   0.409  1.9475 -0.8160  0.4913
 2116TIP3   OH227762   0.592   5.636  13.733 -0.9150 -0.0620  0.3110
 2116TIP3    H127763   0.567   5.681  13.652 -1.3626 -0.4395  0.2342
 2116TIP3    H227764   0.684   5.659  13.746 -0.6841 -0.4290 -0.5915
 2117TIP3   OH227765   6.305   5.793  13.504 -0.4134  0.1090  0.1772
 2117TIP3    H127766   6.281   5.825  13.417 -1.7277 -0.8764  0.1436
 2117TIP3    H227767   6.246   5.839  13.564 -0.1815  0.0538  0.4521
 2118TIP3   OH227768   5.669   0.334   3.432  0.0151 -0.0278 -0.1117
 2118TIP3    H127769   5.585   0.295   3.453  0.2013  0.6216  1.9910
 2118TIP3    H227770   5.654   0.428   3.434  0.7228  0.0919  0.0146
 2119TIP3   OH227771   2.921   2.145   6.446 -0.2532 -0.0469 -0.1152
 2119TIP3    H127772   2.877   2.072   6.490  0.1856 -1.0262 -1.2502
 2119TIP3    H227773   2.854   2.214   6.442 -0.0888  0.4229  2.7199
 2120TIP3   OH227774   1.609   2.081   2.818  0.0008 -0.1426 -0.7338
 2120TIP3    H127775   1.631   2.174   2.818  0.5993 -0.2747 -0.0283
 2120TIP3    H227776   1.694   2.037   2.812 -0.1838 -0.6464  0.1166
 2121TIP3   OH227777   6.169   0.022   3.153 -0.4030 -0.2641 -0.3595
 2121TIP3    H127778   6.082   0.022   3.114 -0.2609 -0.6826 -0.6881
 2121TIP3    H227779   6.155   0.046   3.245 -1.0945 -2.2602  0.0921
 2122TIP3   OH227780   1.163   5.738   1.313 -0.2173  0.2177  0.1726
 2122TIP3    H127781   1.144   5.668   1.376  1.9909 -1.5641 -1.0152
 2122TIP3    H227782   1.119   5.710   1.232  0.2535  0.4666 -0.1706
 2123TIP3   OH227783   2.046   4.269   5.637  0.2798  0.4765 -0.0889
 2123TIP3    H127784   2.105   4.313   5.699 -0.8060 -0.3802  1.6181
 2123TIP3    H227785   2.031   4.183   5.676 -2.7394  0.9467  0.0115
 2124TIP3   OH227786   4.915   6.342   3.074  0.2146 -0.4386 -0.1190
 2124TIP3    H127787   4.913   6.435   3.051  0.2523 -0.5853 -0.7278
 2124TIP3    H227788   4.844   6.303   3.023 -1.3731 -0.3566  1.9430
 2125TIP3   OH227789   2.727   0.977   1.937  0.1910  0.0781  0.1634
 2125TIP3    H127790   2.660   0.910   1.923 -0.0961  0.3498  0.2186
 2125TIP3    H227791   2.766   0.953   2.022 -0.4786  0.4492  0.5880
 2126TIP3   OH227792   5.934   5.690  14.111  0.3007  0.7068 -0.1095
 2126TIP3    H127793   5.903   5.683  14.021  1.1436  1.3140 -0.4643
 2126TIP3    H227794   5.880   5.629  14.161  0.2642 -0.1141 -1.1349
 2127TIP3   OH227795   2.425   5.518   4.593 -0.4391  0.4004 -0.3788
 2127TIP3    H127796   2.337   5.548   4.573  0.4418  2.7495 -1.0626
 2127TIP3    H227797   2.475   5.534   4.513  0.8441  0.1061  0.3254
 2128TIP3   OH227798   4.106   6.253  14.316 -0.3937  0.3797 -0.1948
 2128TIP3    H127799   4.162   6.274  14.391 -0.4408  2.5588 -0.7018
 2128TIP3    H227800   4.138   6.310  14.246  0.2441 -2.1987 -2.1661
 2129TIP3   OH227801   6.690   6.715   4.219  0.1761  0.7366 -0.4598
 2129TIP3    H127802   6.738   6.797   4.232  0.1243  0.6796  0.1122
 2129TIP3    H227803   6.735   6.652   4.274  0.5545  0.2371 -1.3234
 2130TIP3   OH227804   2.313   4.443   2.780  0.3118 -0.3808  0.0656
 2130TIP3    H127805   2.318   4.439   2.685 -1.5732 -0.2356 -0.0688
 2130TIP3    H227806   2.402   4.464   2.808  0.5477  1.2353 -1.7404
 2131TIP3   OH227807   2.270   5.216  16.816 -0.0625  0.1113  0.0755
 2131TIP3    H127808   2.325   5.155  16.866  1.6357  1.6295  0.1285
 2131TIP3    H227809   2.254   5.289  16.876  0.2213  0.9784 -0.8849
 2132TIP3   OH227810   2.493   4.406   1.197 -0.4364 -1.1890  0.0834
 2132TIP3    H127811   2.449   4.466   1.136 -1.0377 -1.0550  0.6399
 2132TIP3    H227812   2.520   4.462   1.270 -3.3473 -1.9506  1.8909
 2133TIP3   OH227813   2.064   2.519   1.906 -0.5048 -0.5694  0.1317
 2133TIP3    H127814   2.034   2.437   1.945 -1.2639 -1.6393 -2.5202
 2133TIP3    H227815   2.145   2.496   1.859  0.7622  0.8260  1.4805
 2134TIP3   OH227816   3.837   0.057  13.132  0.5680 -0.7514  0.5588
 2134TIP3    H127817   3.877   0.099  13.056  0.9993 -1.6369  0.2837
 2134TIP3    H227818   3.853   0.119  13.204  3.3683 -1.4580  0.6877
 2135TIP3   OH227819   2.032   5.435  13.588  0.0775 -0.1572  0.1601
 2135TIP3    H127820   2.091   5.377  13.540  0.9290 -0.0848  1.0677
 2135TIP3    H227821   1.991   5.490  13.521  2.1850  0.8202 -0.4206
 2136TIP3   OH227822   1.359   0.735   5.638 -0.3127 -0.6162  0.9270
 2136TIP3    H127823   1.332   0.787   5.563 -1.3150 -2.3863 -0.0127
 2136TIP3    H227824   1.280   0.726   5.691 -0.4256 -1.9795  0.5580
 2137TIP3   OH227825   0.282   1.524  13.821 -0.0301  0.2739 -0.1225
 2137TIP3    H127826   0.338   1.581  13.874  3.0566 -2.1281 -0.5542
 2137TIP3    H227827   0.243   1.463  13.884 -1.5162  1.3348  0.0487
 2138TIP3   OH227828   3.090   3.793  12.443  0.3387  1.0229 -0.1583
 2138TIP3    H127829   3.111   3.851  12.369  0.8996  2.0169  0.7381
 2138TIP3    H227830   3.096   3.850  12.520  1.4352 -0.3369  0.8210
 2139TIP3   OH227831   4.648   5.280   2.666  0.4798 -0.0310  0.4086
 2139TIP3    H127832   4.581   5.213   2.680  1.0358 -0.8421 -0.6760
 2139TIP3    H227833   4.676   5.268   2.575 -0.5255  2.7337 -0.3612
 2140TIP3   OH227834   2.937   3.669  13.139  0.6698 -0.5770 -0.1614
 2140TIP3    H127835   3.015   3.667  13.195 -0.4593  2.3530  1.7317
 2140TIP3    H227836   2.867   3.698  13.197 -1.2209 -0.2640 -2.4747
 2141TIP3   OH227837   5.028   0.053  11.072  0.1910 -0.0435  0.1784
 2141TIP3    H127838   5.007   0.044  10.979  0.5898 -0.8591  0.1624
 2141TIP3    H227839   5.074   0.136  11.078 -0.9940  0.6736 -0.1396
 2142TIP3   OH227840   0.078   4.660   5.647  0.0344  0.6938 -0.1021
 2142TIP3    H127841  -0.009   4.640   5.612  0.7814 -0.4056 -1.3923
 2142TIP3    H227842   0.061   4.689   5.737 -1.5777 -0.5291  0.0277
 2143TIP3   OH227843   3.791   0.071   0.543  0.6796 -0.1788 -0.3363
 2143TIP3    H127844   3.833   0.110   0.619  0.9087  1.6814 -1.3596
 2143TIP3    H227845   3.859   0.068   0.476 -0.4586  1.8985 -1.6878
 2144TIP3   OH227846   4.877   1.784   1.345 -0.1536 -0.3841 -0.2738
 2144TIP3    H127847   4.910   1.802   1.433 -1.3393 -2.4901  0.7002
 2144TIP3    H227848   4.956   1.776   1.291  0.8368 -2.0378  1.2789
 2145TIP3   OH227849   5.915   4.433  15.067 -0.6619 -0.3931  0.8229
 2145TIP3    H127850   6.010   4.418  15.058 -0.8616 -3.2791  2.3281
 2145TIP3    H227851   5.879   4.405  14.983 -0.2530 -0.1125  0.5517
 2146TIP3   OH227852   6.459   0.438   4.575 -0.3111 -0.2640 -0.1083
 2146TIP3    H127853   6.411   0.387   4.640 -1.1864 -0.0225 -0.5454
 2146TIP3    H227854   6.550   0.436   4.604 -0.8600  0.9540  1.8536
 2147TIP3   OH227855   4.467   2.935   0.176  0.6973  0.5887  0.0323
 2147TIP3    H127856   4.544   2.879   0.177  0.3806  0.1483  0.7894
 2147TIP3    H227857   4.407   2.894   0.114 -0.5189 -1.3375  2.2927
 2148TIP3   OH227858   3.215   5.975  16.157 -0.1602  0.0313 -0.0907
 2148TIP3    H127859   3.242   5.893  16.116 -0.6937 -0.5840  0.7420
 2148TIP3    H227860   3.123   5.984  16.132 -0.2908  0.0133  0.3627
 2149TIP3   OH227861   1.382   4.274   2.847  0.1609  0.2044 -0.5635
 2149TIP3    H127862   1.432   4.193   2.854  1.1843  0.7535 -1.3432
 2149TIP3    H227863   1.311   4.264   2.911  0.9618 -0.7987  0.1913
 2150TIP3   OH227864   2.965   0.957  13.246 -1.0265  1.0479 -0.1343
 2150TIP3    H127865   2.974   0.950  13.341 -0.6785 -0.8444 -0.2834
 2150TIP3    H227866   2.877   0.994  13.233 -1.3101  0.7769  0.9106
 2151TIP3   OH227867   3.824   4.005  14.209  0.3203  0.1470  0.5512
 2151TIP3    H127868   3.857   4.034  14.294  0.1908  1.9860  0.0349
 2151TIP3    H227869   3.731   3.988  14.224  0.6150 -1.0647  1.1017
 2152TIP3   OH227870   3.795   1.476  14.647 -0.0875  0.2830 -0.2723
 2152TIP3    H127871   3.835   1.495  14.562 -0.6835  0.4128 -0.5259
 2152TIP3    H227872   3.766   1.385  14.641  0.7591 -0.0287  0.1526
 2153TIP3   OH227873   5.037   6.406  10.682  0.1901  0.1742 -0.7008
 2153TIP3    H127874   5.114   6.350  10.694 -0.1032 -0.0141  0.4385
 2153TIP3    H227875   5.072   6.487  10.646  0.8607 -0.0732 -0.6285
 2154TIP3   OH227876   1.029   0.929  15.498 -0.8510 -0.2407 -0.1209
 2154TIP3    H127877   0.995   0.844  15.524 -0.2908 -0.4717 -0.1317
 2154TIP3    H227878   1.030   0.981  15.578  1.5209 -1.1621  0.5308
 2155TIP3   OH227879   1.777   0.792   0.477 -0.2469 -0.6205 -0.1242
 2155TIP3    H127880   1.734   0.820   0.559  1.9838  0.7022  0.6950
 2155TIP3    H227881   1.842   0.728   0.505  0.8539  0.1817 -0.7507
 2156TIP3   OH227882   2.668   5.587  13.209  0.1689  0.2637 -0.1687
 2156TIP3    H127883   2.599   5.624  13.264 -0.7963 -1.0759 -0.4104
 2156TIP3    H227884   2.679   5.498  13.242  0.6462 -0.0634 -1.1676
 2157TIP3   OH227885   2.692   3.588   4.411 -0.4969 -0.1168  0.4702
 2157TIP3    H127886   2.681   3.542   4.494 -0.1895 -0.9430  0.0686
 2157TIP3    H227887   2.602   3.602   4.380 -0.5873 -1.0226  0.2983
 2158TIP3   OH227888   4.427   6.132  14.163 -0.6681 -0.2374 -0.0285
 2158TIP3    H127889   4.470   6.114  14.246  0.1849  0.1091 -0.3774
 2158TIP3    H227890   4.494   6.175  14.110 -1.9565  1.9586 -0.0043
 2159TIP3   OH227891   4.700   5.491   1.564  0.4250  0.0736 -0.2736
 2159TIP3    H127892   4.606   5.488   1.547  0.3383  1.5175 -0.1924
 2159TIP3    H227893   4.733   5.558   1.504  0.8349  1.9641  1.8998
 2160TIP3   OH227894   2.717   5.764  12.124 -0.1002  0.3534 -0.3135
 2160TIP3    H127895   2.747   5.674  12.114  0.4032  0.5043 -0.1589
 2160TIP3    H227896   2.717   5.799  12.035  0.2144  0.3636 -0.3098
 2161TIP3   OH227897   4.642   0.941   1.094 -0.5539  0.0707 -0.0049
 2161TIP3    H127898   4.572   0.900   1.044 -1.5157  0.3061  1.1242
 2161TIP3    H227899   4.717   0.883   1.083 -1.4239 -1.1188  0.2207
 2162TIP3   OH227900   4.904   4.586   4.103  0.2224 -0.2158  0.5852
 2162TIP3    H127901   4.840   4.599   4.033  0.7923  1.5847  0.3408
 2162TIP3    H227902   4.982   4.553   4.058  0.8198  1.5876  0.1876
 2163TIP3   OH227903   6.437   5.979   3.914  0.3449  0.1604  0.1226
 2163TIP3    H127904   6.526   5.986   3.879  0.0256  0.2420 -0.6903
 2163TIP3    H227905   6.386   5.938   3.844  0.0005 -1.0548  1.0563
 2164TIP3   OH227906   6.309   6.242  10.903 -0.0974 -0.1553 -0.3553
 2164TIP3    H127907   6.344   6.331  10.913  0.4206 -0.3083 -0.7418
 2164TIP3    H227908   6.367   6.201  10.839 -1.3017 -0.2580 -1.4384
 2165TIP3   OH227909   5.374   6.179  13.805 -0.0831 -0.1694  0.1276
 2165TIP3    H127910   5.428   6.102  13.787 -0.4442 -0.1146 -1.3411
 2165TIP3    H227911   5.284   6.150  13.786 -0.3024  0.4216  0.2419
 2166TIP3   OH227912   4.403   0.938  10.701 -0.2062  0.4156 -0.0535
 2166TIP3    H127913   4.431   0.873  10.637 -0.9499  0.1129 -0.0808
 2166TIP3    H227914   4.411   1.022  10.654 -0.3376  0.2354 -0.4068
 2167TIP3   OH227915   4.428   5.408  14.036 -0.5385  0.6299 -0.1753
 2167TIP3    H127916   4.379   5.467  13.979 -0.2850 -0.4664 -1.5846
 2167TIP3    H227917   4.500   5.377  13.982  0.2513  0.2460  1.0514
 2168TIP3   OH227918   0.882   6.624   2.876  0.0880 -0.2785  0.1884
 2168TIP3    H127919   0.836   6.551   2.836 -0.6089  0.8559 -1.1656
 2168TIP3    H227920   0.966   6.628   2.830 -0.3727  0.5045 -0.6174
 2169TIP3   OH227921   6.443   0.629  14.215  0.0640 -0.4954 -0.2484
 2169TIP3    H127922   6.499   0.686  14.163  0.6558 -0.3013  0.5726
 2169TIP3    H227923   6.431   0.677  14.297  0.8945 -1.7051  0.6176
 2170TIP3   OH227924   0.242   0.687   0.300  0.3057  0.3888 -0.2708
 2170TIP3    H127925   0.304   0.730   0.358 -0.3183  1.3726 -0.3195
 2170TIP3    H227926   0.205   0.758   0.247 -0.6516 -0.2223 -0.4349
 2171TIP3   OH227927   6.553   1.897   3.106 -0.1475  0.1881 -0.4820
 2171TIP3    H127928   6.613   1.957   3.151 -2.4462  2.0794  0.2391
 2171TIP3    H227929   6.510   1.849   3.177 -0.0547 -0.6053 -0.9554
 2172TIP3   OH227930   1.053   6.230  16.090  0.2312 -0.2506  0.1929
 2172TIP3    H127931   1.147   6.220  16.078  0.0139  0.3235 -3.0876
 2172TIP3    H227932   1.015   6.153  16.048 -0.7969 -0.4798  1.4703
 2173TIP3   OH227933   4.770   1.013  15.896  0.1512  0.1151  0.2692
 2173TIP3    H127934   4.844   1.071  15.912 -0.2113 -0.1116  3.2666
 2173TIP3    H227935   4.794   0.932  15.940  0.0414 -1.6725 -2.6597
 2174TIP3   OH227936   4.245   5.915  16.676 -0.4159  0.1056 -0.2420
 2174TIP3    H127937   4.327   5.878  16.643  0.2985  2.4473 -1.2876
 2174TIP3    H227938   4.182   5.844  16.667  1.5168 -1.8802  0.9063
 2175TIP3   OH227939   3.652   3.537   2.573 -0.4949  0.3770  0.1247
 2175TIP3    H127940   3.622   3.610   2.628 -1.5805  0.1660 -0.1628
 2175TIP3    H227941   3.579   3.475   2.574  1.0926 -1.6045  1.8730
 2176TIP3   OH227942   6.526   0.900  16.033 -0.1463  0.6109  0.4485
 2176TIP3    H127943   6.597   0.846  15.999 -0.0742  0.9153  0.1045
 2176TIP3    H227944   6.564   0.987  16.043 -0.6466  0.9581 -0.4386
 2177TIP3   OH227945   4.225   0.058   4.777  0.0672 -0.1173  0.0959
 2177TIP3    H127946   4.295   0.122   4.771  0.0773  0.1892  2.5897
 2177TIP3    H227947   4.270  -0.027   4.778  0.1134 -0.1838 -2.0035
 2178TIP3   OH227948   5.195   5.727   1.695  0.5284 -0.1926  0.5413
 2178TIP3    H127949   5.199   5.766   1.608  0.2770 -2.0740 -0.3411
 2178TIP3    H227950   5.104   5.701   1.706  0.0064  2.0395  2.3440
 2179TIP3   OH227951   1.938   5.898  12.731  0.0026  0.1344 -0.5786
 2179TIP3    H127952   2.015   5.868  12.683  0.2705 -0.9808  0.4853
 2179TIP3    H227953   1.943   5.852  12.815 -0.6611  1.7188  0.3705
 2180TIP3   OH227954   3.785   3.259  13.684 -0.0113  0.0565  0.1171
 2180TIP3    H127955   3.795   3.305  13.601  0.9869 -3.4604 -1.9483
 2180TIP3    H227956   3.690   3.252  13.696 -0.1739  1.7398  0.0326
 2181TIP3   OH227957   5.071   2.898  16.619 -0.0781  0.0126  0.2975
 2181TIP3    H127958   5.111   2.982  16.595 -0.4551  0.0390 -0.2660
 2181TIP3    H227959   5.128   2.832  16.581  0.6295 -0.0129  1.3809
 2182TIP3   OH227960   5.482   3.023   5.016 -1.0049 -0.1788 -0.1148
 2182TIP3    H127961   5.386   3.027   5.010 -1.1552 -1.5664  0.8863
 2182TIP3    H227962   5.499   2.950   5.076  0.6398  1.4287  1.4576
 2183TIP3   OH227963   4.973   5.702   2.304  0.1477 -0.6315 -0.3523
 2183TIP3    H127964   5.049   5.673   2.355  0.5708  0.6239 -0.2350
 2183TIP3    H227965   4.910   5.630   2.313 -0.2645 -0.0341  2.9124
 2184TIP3   OH227966   6.335   3.968   1.908 -0.0574  1.3791 -0.0156
 2184TIP3    H127967   6.298   3.896   1.959 -1.7761  0.7341 -2.0253
 2184TIP3    H227968   6.389   3.925   1.841  0.6097  2.0994  0.0400
 2185TIP3   OH227969   4.776   4.447   1.285  0.0721  0.0087  0.2639
 2185TIP3    H127970   4.839   4.491   1.228 -0.2624  0.1835  0.0290
 2185TIP3    H227971   4.704   4.510   1.294 -0.0522 -0.1763  0.5603
 2186TIP3   OH227972   0.526   6.233  13.069 -0.3822  0.1273 -0.6321
 2186TIP3    H127973   0.495   6.320  13.044 -0.4421  1.2562  2.8527
 2186TIP3    H227974   0.622   6.240  13.069 -0.3983  0.4802  0.4227
 2187TIP3   OH227975   5.940   6.291  15.697  0.6481  0.4542  0.2032
 2187TIP3    H127976   6.011   6.269  15.758  0.4274 -0.1184  0.2509
 2187TIP3    H227977   5.974   6.368  15.649  0.0949  2.1120  2.3084
 2188TIP3   OH227978   6.757   1.751   2.384  0.2828  0.0941  0.3085
 2188TIP3    H127979   6.764   1.669   2.432 -0.7769  1.1231  2.3361
 2188TIP3    H227980   6.848   1.782   2.377  0.5737 -0.6743  0.5277
 2189TIP3   OH227981   5.631   4.111   6.166  0.0246 -0.1518 -0.4595
 2189TIP3    H127982   5.634   4.176   6.096 -0.4803 -0.9535 -1.2410
 2189TIP3    H227983   5.538   4.090   6.176  0.0588  0.1278  0.6337
 2190TIP3   OH227984   3.784   5.443  13.768  0.4089  0.7497 -0.2874
 2190TIP3    H127985   3.718   5.491  13.819  1.2108 -0.2906  1.8447
 2190TIP3    H227986   3.757   5.352  13.775 -0.1131  0.6521 -2.8079
 2191TIP3   OH227987   5.223   2.236  14.240  0.0485  0.2062  0.2286
 2191TIP3    H127988   5.280   2.175  14.286  1.8553  0.9081 -0.9549
 2191TIP3    H227989   5.192   2.296  14.308 -0.7412 -1.2501  1.1818
 2192TIP3   OH227990   6.211   1.031  13.504  0.6134 -0.3550  0.5808
 2192TIP3    H127991   6.237   0.943  13.531  1.2481  0.1499  1.6956
 2192TIP3    H227992   6.216   1.083  13.584  0.5835  0.7667 -0.1244
 2193TIP3   OH227993   5.903   6.436   5.782  0.3683  0.1863  0.0444
 2193TIP3    H127994   5.995   6.411   5.790  0.2496  0.1983  1.8755
 2193TIP3    H227995   5.872   6.441   5.872 -1.8036 -1.1492 -0.5806
 2194TIP3   OH227996   1.817   2.468   3.245 -0.2944 -0.9440 -0.1224
 2194TIP3    H127997   1.824   2.436   3.335  0.5651 -1.4806 -0.3607
 2194TIP3    H227998   1.727   2.498   3.236 -0.0190  0.3789  1.3249
 2195TIP3   OH227999   1.401   3.774   5.679  0.8371  0.0504 -0.1608
 2195TIP3    H128000   1.426   3.793   5.769 -0.9539 -2.9470  1.1105
 2195TIP3    H228001   1.306   3.760   5.682  1.0505 -2.6678 -1.9214
 2196TIP3   OH228002   1.952   2.019  17.054 -0.6312  0.9360  0.3074
 2196TIP3    H128003   1.879   2.082  17.054  0.0613  1.7501  0.7658
 2196TIP3    H228004   1.928   1.955  17.121 -2.0954 -0.2178 -1.2204
 2197TIP3   OH228005   5.075   4.446   2.272  0.1495  0.3013 -0.3479
 2197TIP3    H128006   5.063   4.530   2.227  0.6765  0.3629 -0.3863
 2197TIP3    H228007   5.105   4.470   2.359  0.4195  0.1517 -0.3986
 2198TIP3   OH228008   4.139   1.748   0.545 -0.6487  0.3101 -0.2684
 2198TIP3    H128009   4.106   1.775   0.459  0.1491  0.9208 -0.3959
 2198TIP3    H228010   4.094   1.666   0.564 -0.3039 -0.2038 -1.5929
 2199TIP3   OH228011   0.386   3.949  16.872  0.2946 -0.1295 -0.0303
 2199TIP3    H128012   0.419   4.037  16.852 -0.9132  0.5045  0.6265
 2199TIP3    H228013   0.395   3.941  16.967 -0.8835 -0.1427  0.1017
 2200TIP3   OH228014   4.303   0.786  15.304 -0.7794 -0.1770 -0.5128
 2200TIP3    H128015   4.298   0.875  15.269 -1.8690 -0.0834 -0.1707
 2200TIP3    H228016   4.347   0.736  15.236  0.3969  0.7345 -0.4588
 2201TIP3   OH228017   4.716   2.635   3.266 -0.3090  0.4815 -0.6323
 2201TIP3    H128018   4.705   2.726   3.293 -0.8855  0.7580 -1.7494
 2201TIP3    H228019   4.631   2.610   3.230 -0.1549 -0.5037 -0.3453
 2202TIP3   OH228020   0.972   5.618  14.723  0.6350  0.1521 -0.2875
 2202TIP3    H128021   1.008   5.579  14.803 -0.9508  0.8077  0.8016
 2202TIP3    H228022   0.996   5.557  14.654  1.6414 -0.6874  0.7586
 2203TIP3   OH228023   4.723   5.384   1.794  0.0187  0.4792  0.2387
 2203TIP3    H128024   4.717   5.467   1.841 -0.3274 -0.4649  1.9490
 2203TIP3    H228025   4.724   5.408   1.702  0.9782  2.4234  0.7194
 2204TIP3   OH228026   2.768   4.670   5.315 -0.2830 -0.7588 -0.2110
 2204TIP3    H128027   2.703   4.602   5.296  0.8620 -1.7092 -0.8278
 2204TIP3    H228028   2.831   4.664   5.244 -0.2129  1.0654 -0.3538
 2205TIP3   OH228029   3.783   0.301  14.897 -0.7774 -0.4940  0.8595
 2205TIP3    H128030   3.756   0.331  14.984 -0.4922 -0.3651  0.9025
 2205TIP3    H228031   3.870   0.264  14.910 -0.5041  0.0284  0.5230
 2206TIP3   OH228032   1.973   1.951  15.053 -1.0792  0.0681  0.4542
 2206TIP3    H128033   2.001   1.964  15.144  0.7522 -0.5123  0.0083
 2206TIP3    H228034   1.924   1.869  15.054 -1.9085  0.5523  1.0657
 2207TIP3   OH228035   6.802   3.424   4.571  0.0716 -0.8757  0.1830
 2207TIP3    H128036   6.839   3.433   4.659  0.9731 -0.4249 -0.2353
 2207TIP3    H228037   6.846   3.491   4.519  1.3233 -2.6979 -1.2011
 2208TIP3   OH228038   1.868   2.272  12.349 -0.5405  0.1310  0.6115
 2208TIP3    H128039   1.777   2.256  12.373 -1.6761  1.3619 -2.3713
 2208TIP3    H228040   1.871   2.257  12.254  2.6908 -1.0901  0.7781
 2209TIP3   OH228041   5.174   5.904  11.387 -0.2157 -0.4407 -0.1608
 2209TIP3    H128042   5.131   5.851  11.320  0.5639  0.6330 -1.5534
 2209TIP3    H228043   5.102   5.942  11.437 -0.7952 -2.3747  0.5668
 2210TIP3   OH228044   5.290   0.039  16.005  0.3204  0.2268  0.2986
 2210TIP3    H128045   5.222   0.092  16.046  0.4641  0.4455  0.2596
 2210TIP3    H228046   5.356   0.027  16.074  0.9856  1.3483 -0.1132
 2211TIP3   OH228047   3.804   6.755   1.140  0.9092 -0.1248 -0.4043
 2211TIP3    H128048   3.767   6.741   1.227 -0.7791  2.8382 -0.4975
 2211TIP3    H228049   3.791   6.672   1.094  1.6363 -1.6930  2.0172
 2212TIP3   OH228050   5.107   3.003   2.006 -0.1069  0.4071  0.3035
 2212TIP3    H128051   5.167   2.969   2.071  0.5509  0.0954 -0.4518
 2212TIP3    H228052   5.050   3.063   2.054  0.7221  0.6073  1.0446
 2213TIP3   OH228053   5.283   2.138   0.899  0.3308 -0.5126  0.4084
 2213TIP3    H128054   5.365   2.187   0.903  1.2359 -2.0538  2.1878
 2213TIP3    H228055   5.221   2.198   0.857  2.1653  0.9556 -0.3164
 2214TIP3   OH228056   5.336   4.923  16.506 -0.6962 -0.2087  0.3628
 2214TIP3    H128057   5.284   4.885  16.436 -1.0218  2.0515 -0.7451
 2214TIP3    H228058   5.319   5.017  16.499  0.8737  0.2694  2.1761
 2215TIP3   OH228059   6.457   0.287  12.104  0.1202  0.2295 -0.1469
 2215TIP3    H128060   6.447   0.361  12.044  0.3715  0.4528  0.0819
 2215TIP3    H228061   6.396   0.305  12.175  0.3020  0.3008 -0.0091
 2216TIP3   OH228062   4.557   4.401  13.750  0.0504  0.1689  1.4501
 2216TIP3    H128063   4.642   4.436  13.774  0.4838 -0.6493  1.1432
 2216TIP3    H228064   4.575   4.312  13.720 -0.8429  0.1715  0.8614
 2217TIP3   OH228065   4.673   6.114  11.824 -0.2393 -0.5751 -0.3514
 2217TIP3    H128066   4.669   6.038  11.766 -0.9802 -1.1771  0.4660
 2217TIP3    H228067   4.642   6.187  11.770  0.1482 -0.9156 -1.0409
 2218TIP3   OH228068   5.219   5.473  15.068  0.0419  0.0883  0.3522
 2218TIP3    H128069   5.181   5.414  15.133  1.4859 -1.8276 -0.4605
 2218TIP3    H228070   5.279   5.418  15.017  0.4103  1.9536 -1.3616
 2219TIP3   OH228071   5.870   0.821   1.519 -0.9090 -0.0386  0.6425
 2219TIP3    H128072   5.914   0.882   1.459 -1.4514 -0.0853  0.1838
 2219TIP3    H228073   5.791   0.795   1.472  0.4311 -2.9729 -0.2668
 2220TIP3   OH228074   4.896   3.604   3.980 -0.1741  0.1514 -0.0795
 2220TIP3    H128075   4.844   3.670   4.027 -1.2961  0.1105 -1.2190
 2220TIP3    H228076   4.893   3.527   4.036  0.8934  0.9390  1.1251
 2221TIP3   OH228077   0.901   5.501  15.715 -0.3636 -0.4476 -0.4011
 2221TIP3    H128078   0.972   5.446  15.681  0.6975  0.4021  0.3832
 2221TIP3    H228079   0.846   5.520  15.638  1.4447  0.6351 -1.4799
 2222TIP3   OH228080   0.639   0.377   1.867 -0.3729 -0.2524 -0.3668
 2222TIP3    H128081   0.633   0.354   1.960 -1.1738 -0.0564 -0.3620
 2222TIP3    H228082   0.725   0.345   1.840 -1.2869 -3.0881 -0.3013
 2223TIP3   OH228083   2.732   2.107  16.906 -0.2618  0.2084  0.3588
 2223TIP3    H128084   2.803   2.109  16.842  0.6479 -4.1577  0.8897
 2223TIP3    H228085   2.654   2.087  16.855 -0.3698  1.0299  0.1942
 2224TIP3   OH228086   5.629   4.094  15.319  0.1453  0.3021  0.0920
 2224TIP3    H128087   5.700   4.157  15.328  0.7756 -0.5181  0.9739
 2224TIP3    H228088   5.670   4.009  15.333 -0.3990 -0.4811 -2.4792
 2225TIP3   OH228089   3.794   1.524   4.341  0.0470 -0.0710 -0.8799
 2225TIP3    H128090   3.874   1.552   4.386  0.6795 -2.1802 -0.5715
 2225TIP3    H228091   3.727   1.585   4.371  0.7703 -0.4685  1.8455
 2226TIP3   OH228092   4.401   4.565  15.207 -0.7388  0.4576 -0.3906
 2226TIP3    H128093   4.445   4.640  15.247 -0.6430  1.9745 -3.1437
 2226TIP3    H228094   4.327   4.546  15.265  1.2333  0.3086  2.2658
 2227TIP3   OH228095   1.614   1.534   3.599 -0.8988 -0.0432  0.6746
 2227TIP3    H128096   1.586   1.444   3.616  1.2698 -0.4908  2.1958
 2227TIP3    H228097   1.703   1.538   3.633 -0.4956  2.3505 -0.5163
 2228TIP3   OH228098   4.876   4.175   2.513  0.0941  0.4928  0.4933
 2228TIP3    H128099   4.832   4.091   2.505  1.1977 -0.1765  1.2273
 2228TIP3    H228100   4.865   4.216   2.426 -1.5807  0.1995  0.5349
 2229TIP3   OH228101   3.785   4.874   4.363  0.6074  0.3784  0.5465
 2229TIP3    H128102   3.784   4.839   4.452  0.9194  1.7807  1.1189
 2229TIP3    H228103   3.834   4.956   4.370 -0.1848  0.9860 -0.7254
 2230TIP3   OH228104   4.618   3.219  14.610  0.1109  0.1198 -0.2357
 2230TIP3    H128105   4.660   3.192  14.691  2.0321  1.4235 -0.7299
 2230TIP3    H228106   4.598   3.312  14.623  0.9575  0.4941 -1.4279
 2231TIP3   OH228107   3.519   1.489   2.324 -0.1688 -0.1119 -0.1206
 2231TIP3    H128108   3.471   1.468   2.404 -0.6281 -2.3990 -0.9081
 2231TIP3    H228109   3.510   1.410   2.270  1.0872  0.9363 -1.9567
 2232TIP3   OH228110   1.385   5.276  14.272 -0.2830 -0.3985  0.0854
 2232TIP3    H128111   1.377   5.368  14.297  0.5660 -0.1405 -0.5433
 2232TIP3    H228112   1.307   5.234  14.310 -0.3971  0.4643  0.8482
 2233TIP3   OH228113   3.310   4.214  15.356 -0.1783 -0.1811 -0.0823
 2233TIP3    H128114   3.285   4.188  15.444  0.7222  0.2257  0.3141
 2233TIP3    H228115   3.400   4.181  15.346 -0.3302 -0.3619 -0.9023
 2234TIP3   OH228116   4.681   6.745   3.943 -0.2341  0.7106 -0.1402
 2234TIP3    H128117   4.696   6.800   4.020  0.5561  0.0639  0.1750
 2234TIP3    H228118   4.723   6.662   3.964  1.9278  1.1985 -2.1236
 2235TIP3   OH228119   4.729   6.759   1.533  0.1996 -0.3207  0.6837
 2235TIP3    H128120   4.761   6.834   1.583  0.4922 -0.5204  0.7912
 2235TIP3    H228121   4.643   6.788   1.500  0.8503  0.5437 -0.3290
 2236TIP3   OH228122   0.993   2.089  14.407 -0.5975  0.0137 -0.2511
 2236TIP3    H128123   0.938   2.100  14.484 -2.8578 -0.2435 -1.7352
 2236TIP3    H228124   1.073   2.050  14.440 -1.8722 -1.0110  1.8262
 2237TIP3   OH228125   4.231   5.560   0.544 -0.1015 -0.4149  0.3292
 2237TIP3    H128126   4.248   5.652   0.526  1.6063 -0.5104  1.2507
 2237TIP3    H228127   4.151   5.559   0.596  1.0957  0.7972  2.3330
 2238TIP3   OH228128   6.275   2.800   1.515  0.6659  0.3370  0.1987
 2238TIP3    H128129   6.285   2.711   1.550  1.4291  1.1946  2.2398
 2238TIP3    H228130   6.182   2.820   1.528  0.4370 -0.2169 -0.4846
 2239TIP3   OH228131   4.381   1.219   0.310 -0.3484 -0.3111  0.4503
 2239TIP3    H128132   4.374   1.195   0.218  1.8897  0.1325  0.1098
 2239TIP3    H228133   4.344   1.307   0.315  0.6160  0.1650 -0.3083
 2240TIP3   OH228134   6.147   3.965   5.632  0.0696 -0.4103 -0.2500
 2240TIP3    H128135   6.108   4.028   5.693  0.7957 -0.1935 -0.0051
 2240TIP3    H228136   6.079   3.898   5.620 -0.3019 -0.1442  0.3331
 2241TIP3   OH228137   1.420   3.982   0.175 -0.0667 -0.4103  0.2934
 2241TIP3    H128138   1.367   3.935   0.239 -0.7048  0.6034  0.5335
 2241TIP3    H228139   1.435   4.068   0.215 -1.2453  0.5767 -1.2779
 2242TIP3   OH228140   4.678   0.920  16.573  0.3335  0.1777 -0.5322
 2242TIP3    H128141   4.747   0.974  16.535 -0.5402  0.4106 -1.8447
 2242TIP3    H228142   4.608   0.983  16.593  0.3900 -0.0900  0.5555
 2243TIP3   OH228143   2.755   5.631   5.791 -0.0248 -0.0873 -0.9472
 2243TIP3    H128144   2.811   5.586   5.855 -1.6214 -0.8112  0.0046
 2243TIP3    H228145   2.815   5.684   5.740  1.5260 -0.8104  0.0464
 2244TIP3   OH228146   4.098   2.209  11.478  0.0675 -0.0864  0.0374
 2244TIP3    H128147   4.036   2.219  11.406  0.4338 -2.8546 -0.7705
 2244TIP3    H228148   4.179   2.248  11.445  0.2469 -1.3573 -1.1544
 2245TIP3   OH228149   5.789   6.743   3.589 -0.4809  0.4105 -0.0040
 2245TIP3    H128150   5.838   6.662   3.607 -0.5388  0.6287  1.2457
 2245TIP3    H228151   5.833   6.809   3.643 -1.2721  0.9120  0.0301
 2246TIP3   OH228152   5.013   5.318   1.728  0.0680  0.1186  0.0890
 2246TIP3    H128153   4.924   5.312   1.763 -0.5839 -3.0542 -1.7134
 2246TIP3    H228154   5.066   5.265   1.788  1.0297  2.6514  1.6222
 2247TIP3   OH228155   0.931   4.702   0.219 -0.1867 -0.0543 -0.3595
 2247TIP3    H128156   1.021   4.726   0.198  0.3999 -2.6931 -1.2850
 2247TIP3    H228157   0.929   4.697   0.315  0.7464 -0.2693 -0.3408
 2248TIP3   OH228158   4.177   6.415   5.950  0.0450  0.4450  0.0126
 2248TIP3    H128159   4.233   6.476   5.999 -0.3339  1.0081 -0.2388
 2248TIP3    H228160   4.209   6.328   5.974  1.3968  0.7632 -0.5723
 2249TIP3   OH228161   0.435   6.586  12.461 -0.1914  0.1118  0.1359
 2249TIP3    H128162   0.467   6.596  12.372  2.0723  2.7558  1.1093
 2249TIP3    H228163   0.453   6.495  12.483  0.1550 -0.3052 -1.7449
 2250TIP3   OH228164   0.486   4.403   1.115  0.5089  0.3057 -0.1609
 2250TIP3    H128165   0.408   4.448   1.080 -0.1885 -1.5343 -1.1026
 2250TIP3    H228166   0.481   4.315   1.078  2.3586 -0.2581  0.8356
 2251TIP3   OH228167   0.881   2.681   5.821 -0.1072  0.3087 -0.5092
 2251TIP3    H128168   0.787   2.697   5.834 -0.6378 -1.3798 -1.8784
 2251TIP3    H228169   0.900   2.720   5.736 -0.2762 -1.7328 -1.5482
 2252TIP3   OH228170   5.465   2.794   0.960  0.2827 -0.3939 -0.4127
 2252TIP3    H128171   5.481   2.808   1.054 -1.3911  0.0066 -0.1527
 2252TIP3    H228172   5.389   2.736   0.958  0.8320 -1.1021 -1.5390
 2253TIP3   OH228173   1.553   4.589   0.509 -0.8946  0.3308  0.1096
 2253TIP3    H128174   1.469   4.564   0.470 -0.7856 -2.1633  1.2999
 2253TIP3    H228175   1.575   4.516   0.567  2.4697  0.5412 -0.7321
 2254TIP3   OH228176   4.167   0.226  16.991  0.3969  0.4728 -0.9979
 2254TIP3    H128177   4.129   0.218  16.903  0.8332  1.2803 -1.2635
 2254TIP3    H228178   4.138   0.311  17.022  0.7930  0.4752 -0.6259
 2255TIP3   OH228179   2.177   3.354   5.949  0.1049 -0.4125  0.1059
 2255TIP3    H128180   2.112   3.342   6.017  1.3360 -0.6259  1.2811
 2255TIP3    H228181   2.232   3.276   5.953 -0.1942 -0.7621 -1.6127
 2256TIP3   OH228182   3.039   0.885   0.664  0.0113  0.1201 -0.2424
 2256TIP3    H128183   3.044   0.807   0.610  0.5040 -0.5163  0.6967
 2256TIP3    H228184   2.961   0.931   0.633  0.2137 -0.2814 -1.4004
 2257TIP3   OH228185   1.010   5.951   1.213  0.7955  0.4727  0.1301
 2257TIP3    H128186   1.063   5.913   1.283  0.5582  1.0233  0.6221
 2257TIP3    H228187   1.040   6.041   1.207  0.1107  0.7108  0.2266
 2258TIP3   OH228188   3.808   5.610  16.444 -0.2502 -0.1513 -0.1750
 2258TIP3    H128189   3.854   5.654  16.515  0.5485  0.2830 -0.9518
 2258TIP3    H228190   3.724   5.656  16.438  0.4423  1.0636 -0.7627
 2259TIP3   OH228191   5.598   2.058  12.524 -0.1417 -0.3933 -0.2014
 2259TIP3    H128192   5.627   1.968  12.532 -0.4024 -0.5535 -0.9521
 2259TIP3    H228193   5.544   2.073  12.601  2.9263  0.3444  2.0129
 2260TIP3   OH228194   0.155   0.931   0.175  0.1777  0.8020 -0.0229
 2260TIP3    H128195   0.162   0.966   0.086 -1.1175 -0.0133 -0.4744
 2260TIP3    H228196   0.069   0.959   0.205 -0.3378 -0.8209  0.1021
 2261TIP3   OH228197   6.739   0.688  12.074 -0.2479  0.1580  0.0692
 2261TIP3    H128198   6.697   0.771  12.099  0.1865 -0.2312  2.2352
 2261TIP3    H228199   6.832   0.702  12.091  0.3239  0.2577 -2.6244
 2262TIP3   OH228200   3.844   3.040  10.659  0.0783 -0.2978  0.2888
 2262TIP3    H128201   3.899   3.049  10.582  0.8061  2.6593  1.0320
 2262TIP3    H228202   3.896   3.075  10.731 -1.0852 -1.6977  1.9175
 2263TIP3   OH228203   6.389   5.642  15.492 -0.2561  0.3462 -0.6402
 2263TIP3    H128204   6.376   5.665  15.401  0.0240 -0.4594 -0.8964
 2263TIP3    H228205   6.349   5.556  15.501 -0.1979  0.3757 -0.0272
 2264TIP3   OH228206   2.100   0.363   4.519 -0.1391 -0.4569  0.3044
 2264TIP3    H128207   2.027   0.388   4.463  1.8126 -1.0255 -2.6974
 2264TIP3    H228208   2.130   0.446   4.558 -1.0644  0.0698 -0.0779
 2265TIP3   OH228209   3.876   5.516  11.328  0.6639  0.0597 -0.2334
 2265TIP3    H128210   3.950   5.464  11.298  0.7165 -0.9214  1.4498
 2265TIP3    H228211   3.913   5.603  11.345  1.1234 -0.0520 -0.6538
 2266TIP3   OH228212   1.234   4.413  14.120  0.2458  0.3099 -0.3126
 2266TIP3    H128213   1.155   4.444  14.163 -1.4008 -1.1048 -2.1158
 2266TIP3    H228214   1.227   4.445  14.030  1.6917  0.0902 -0.5337
 2267TIP3   OH228215   6.034   0.958  10.955  0.1759  0.1208 -0.5405
 2267TIP3    H128216   5.965   0.897  10.979  1.6541 -1.2876  0.3320
 2267TIP3    H228217   6.007   1.042  10.994 -0.3277 -0.7481  1.0798
 2268TIP3   OH228218   6.301   4.582  12.003 -0.2077 -0.6095  0.0442
 2268TIP3    H128219   6.231   4.526  11.969 -0.7586  0.1521 -0.0945
 2268TIP3    H228220   6.285   4.667  11.962 -0.8268  0.3153  2.1061
 2269TIP3   OH228221   0.229   4.679   2.249  0.5630 -0.1274  0.1690
 2269TIP3    H128222   0.209   4.772   2.257  0.9378 -0.1193  1.1806
 2269TIP3    H228223   0.171   4.648   2.179  0.6448  0.9148 -0.3844
 2270TIP3   OH228224   0.475   3.949   2.903 -0.1369  0.2910 -0.0956
 2270TIP3    H128225   0.413   3.956   2.976  1.3911  3.2053  1.1150
 2270TIP3    H228226   0.560   3.936   2.946  0.7156  1.4264 -1.3629
 2271TIP3   OH228227   0.257   4.490   1.009 -0.1561  0.0173  0.1049
 2271TIP3    H128228   0.224   4.435   0.938 -0.5079  1.1830 -0.6720
 2271TIP3    H228229   0.219   4.576   0.991  1.1409  0.7442  0.7278
 2272TIP3   OH228230   5.674   2.977   3.611 -0.0569  0.1905  0.5164
 2272TIP3    H128231   5.662   2.933   3.695  1.0384  0.4511  0.8276
 2272TIP3    H228232   5.601   2.946   3.557 -0.8332  0.1030  1.5889
 2273TIP3   OH228233   5.836   6.543  12.867 -0.5773 -0.4088 -0.8942
 2273TIP3    H128234   5.844   6.447  12.870  1.3753 -0.3171 -1.6141
 2273TIP3    H228235   5.916   6.572  12.823 -0.6331  1.6199  0.2316
 2274TIP3   OH228236   2.493   3.893  12.935 -0.4593  0.0530  0.2173
 2274TIP3    H128237   2.433   3.957  12.972 -0.6008 -0.0760  0.2094
 2274TIP3    H228238   2.511   3.831  13.006  0.0562  0.3702  0.3719
 2275TIP3   OH228239   3.722   2.278  14.794  0.4756 -0.1931  0.5736
 2275TIP3    H128240   3.784   2.261  14.723 -0.4869 -1.9059  0.0869
 2275TIP3    H228241   3.645   2.314  14.750  0.2323 -0.3347  0.8880
 2276TIP3   OH228242   0.567   0.732  16.438  0.2149  0.3827  0.0480
 2276TIP3    H128243   0.651   0.689  16.454 -1.2066 -1.6067  2.9300
 2276TIP3    H228244   0.566   0.807  16.497  0.9546  2.1031 -1.9660
 2277TIP3   OH228245   4.553   0.771   5.767  0.1266  0.0684  0.0014
 2277TIP3    H128246   4.536   0.692   5.715 -2.6860  0.3421  0.3610
 2277TIP3    H228247   4.565   0.739   5.856 -0.6149 -0.0039  0.0807
 2278TIP3   OH228248   0.249   1.221   2.588  0.3289  0.6358 -0.2856
 2278TIP3    H128249   0.201   1.175   2.657  0.9993 -1.1331 -0.9717
 2278TIP3    H228250   0.336   1.236   2.625  0.4907  0.2596 -0.5176
 2279TIP3   OH228251   4.576   6.184  10.297 -0.0875 -0.0721  0.3089
 2279TIP3    H128252   4.664   6.214  10.275 -0.3166  1.2765  1.0722
 2279TIP3    H228253   4.585   6.090  10.311  1.1240 -0.0338 -0.0938
 2280TIP3   OH228254   3.032   3.681  14.039  0.3524 -0.2822 -0.5162
 2280TIP3    H128255   3.062   3.598  14.001  0.8845 -0.8827  1.1666
 2280TIP3    H228256   3.110   3.736  14.044  0.2354 -0.1142 -0.4990
 2281TIP3   OH228257   4.775   3.870   2.039  0.3025 -0.0728  0.1263
 2281TIP3    H128258   4.870   3.863   2.036  0.4604  1.8324 -0.7159
 2281TIP3    H228259   4.758   3.917   2.121  0.0372 -0.8016  0.4984
 2282TIP3   OH228260   4.732   0.752  14.828  0.5899 -0.0169 -0.1863
 2282TIP3    H128261   4.797   0.694  14.790  0.0191 -0.3984 -0.6094
 2282TIP3    H228262   4.719   0.820  14.762  0.8769  0.2979  0.0830
 2283TIP3   OH228263   4.580   1.254  16.267 -0.5174 -0.4248  0.2978
 2283TIP3    H128264   4.600   1.166  16.297 -0.4767 -0.7837 -0.7588
 2283TIP3    H228265   4.514   1.286  16.328  0.0992 -0.8499  1.2114
 2284TIP3   OH228266   4.723   4.448  11.851  0.0249  0.5926 -0.1583
 2284TIP3    H128267   4.809   4.483  11.876 -0.9006  1.5356  1.8739
 2284TIP3    H228268   4.689   4.512  11.788 -0.0396  1.3005  0.5900
 2285TIP3   OH228269   5.847   1.713   3.166 -0.3029 -0.0367  0.1863
 2285TIP3    H128270   5.861   1.656   3.091 -2.0923  1.2600 -1.2197
 2285TIP3    H228271   5.907   1.787   3.152 -0.2494 -0.0465  0.3502
 2286TIP3   OH228272   0.436   1.024   2.317 -0.0549 -0.8312 -0.2877
 2286TIP3    H128273   0.430   1.068   2.233  0.7750 -1.7859 -0.8671
 2286TIP3    H228274   0.479   1.088   2.375 -2.5435  0.6485  0.0556
 2287TIP3   OH228275   1.152   0.057   2.468 -0.1617 -0.3589 -0.0327
 2287TIP3    H128276   1.124   0.135   2.516  0.0713  0.5668 -1.3344
 2287TIP3    H228277   1.184   0.091   2.384  0.0157 -1.8552 -0.6024
 2288TIP3   OH228278   1.225   5.045   0.598 -0.1972 -0.3669 -0.3953
 2288TIP3    H128279   1.306   4.993   0.595 -0.3344 -1.1162  3.6579
 2288TIP3    H228280   1.246   5.124   0.548  2.3429 -1.3566 -1.0835
 2289TIP3   OH228281   3.813   5.384  14.531  0.3637  0.1192 -0.3801
 2289TIP3    H128282   3.759   5.417  14.603  2.0443  0.3240  0.8357
 2289TIP3    H228283   3.807   5.288  14.539 -0.5319  0.1232 -0.8376
 2290TIP3   OH228284   0.305   6.031  11.600  0.0893  0.0002 -0.2562
 2290TIP3    H128285   0.373   6.098  11.590  0.7593 -0.6478 -0.0802
 2290TIP3    H228286   0.260   6.030  11.516 -1.8626  2.7157  0.6164
 2291TIP3   OH228287   4.334   3.561  12.626  0.4932 -0.0282 -0.5489
 2291TIP3    H128288   4.396   3.496  12.594  0.4225 -0.4378  0.1161
 2291TIP3    H228289   4.381   3.607  12.696 -0.3350 -1.1488  0.7799
 2292TIP3   OH228290   6.107   4.755  14.936  0.6443  0.0445 -0.0549
 2292TIP3    H128291   6.164   4.678  14.938  0.2264 -0.2853 -0.6796
 2292TIP3    H228292   6.040   4.734  14.871 -0.1164  0.4763  0.5666
 2293TIP3   OH228293   2.660   4.171  16.332  0.6610  0.3330  0.8940
 2293TIP3    H128294   2.634   4.092  16.380  1.9886 -0.8540 -0.2615
 2293TIP3    H228295   2.744   4.196  16.371  0.9890  0.2736  0.2248
 2294TIP3   OH228296   2.287   3.099  12.955  0.4743 -0.2431  0.1117
 2294TIP3    H128297   2.270   3.136  13.042 -0.7121 -0.7035  0.0960
 2294TIP3    H228298   2.214   3.132  12.901  2.0222  1.3273 -1.1316
 2295TIP3   OH228299   2.585   3.794   5.702 -0.0550 -0.6793 -0.3346
 2295TIP3    H128300   2.588   3.702   5.677  0.8195 -0.7235 -0.1037
 2295TIP3    H228301   2.571   3.792   5.797 -0.3090 -0.5682 -0.3697
 2296TIP3   OH228302   2.641   1.110  10.742  0.0557 -0.0831  0.3386
 2296TIP3    H128303   2.702   1.074  10.678  0.8092 -2.2800  2.1355
 2296TIP3    H228304   2.557   1.071  10.719  0.4121 -1.2277  0.8834
 2297TIP3   OH228305   0.865   0.672   0.982  0.5329  0.0773  0.4969
 2297TIP3    H128306   0.939   0.611   0.986 -1.6695 -2.7551  3.4863
 2297TIP3    H228307   0.790   0.621   1.013 -2.3531  3.3204 -0.4518
 2298TIP3   OH228308   1.522   0.806  15.751  0.1613  0.3187  0.0143
 2298TIP3    H128309   1.552   0.786  15.662 -1.4004 -1.6670 -0.1320
 2298TIP3    H228310   1.554   0.733  15.804  0.4911  1.1439  0.9774
 2299TIP3   OH228311   5.661   4.660  12.885  1.0805  0.8114 -0.1298
 2299TIP3    H128312   5.676   4.571  12.915 -1.1481  0.4032 -0.1098
 2299TIP3    H228313   5.733   4.676  12.824  3.2078  0.1146  2.0397
 2300TIP3   OH228314   5.304   2.429  11.170 -0.4801 -0.7718  0.3897
 2300TIP3    H128315   5.396   2.416  11.147 -0.8376  0.4959 -2.0033
 2300TIP3    H228316   5.302   2.420  11.266  2.0277 -1.2500  0.4587
 2301TIP3   OH228317   6.413   5.430   3.302 -0.7242 -0.1614  0.2380
 2301TIP3    H128318   6.506   5.437   3.279 -0.9131 -0.8954 -0.8157
 2301TIP3    H228319   6.408   5.354   3.360 -0.3838  1.1431  2.0676
 2302TIP3   OH228320   5.858   3.313   1.889  0.0828 -0.5459  0.0406
 2302TIP3    H128321   5.863   3.303   1.984 -0.1344  1.1926  0.2654
 2302TIP3    H228322   5.949   3.319   1.861  0.1365 -0.7463  0.1647
 2303TIP3   OH228323   0.237   4.090   1.193  0.0145  0.3105  0.4529
 2303TIP3    H128324   0.290   4.133   1.127 -1.1420  0.7167 -0.2434
 2303TIP3    H228325   0.298   4.032   1.238  0.9550  0.4646 -0.5643
 2304TIP3   OH228326   3.915   1.380   3.663 -0.0420  0.6239  0.0840
 2304TIP3    H128327   3.971   1.443   3.708 -1.8056  2.2124  0.1644
 2304TIP3    H228328   3.843   1.364   3.724 -0.5011 -0.1499 -0.6462
 2305TIP3   OH228329   6.646   2.343   1.765  0.8609 -0.3114  0.4947
 2305TIP3    H128330   6.702   2.310   1.834 -0.0378 -1.4623  0.7093
 2305TIP3    H228331   6.567   2.373   1.810  0.9721  0.5916  0.1250
 2306TIP3   OH228332   0.386   0.704   4.395 -0.5086  0.0563 -0.6738
 2306TIP3    H128333   0.440   0.699   4.473 -0.8289  0.0696 -0.4460
 2306TIP3    H228334   0.349   0.616   4.385 -1.5290  0.3913 -0.0277
 2307TIP3   OH228335   0.574   4.185   1.435 -0.0380  0.6166 -0.6689
 2307TIP3    H128336   0.486   4.185   1.472  0.3711  0.5909  0.3439
 2307TIP3    H228337   0.592   4.277   1.417  0.1189  0.7404  0.1015
 2308TIP3   OH228338   2.534   3.791  10.460  0.0401 -0.0110 -0.2790
 2308TIP3    H128339   2.540   3.883  10.484  1.1670  0.4843 -2.3038
 2308TIP3    H228340   2.622   3.767  10.433 -0.3097 -1.6104 -0.1282
 2309TIP3   OH228341   5.605   3.238   3.558  0.2152  0.5521  0.5333
 2309TIP3    H128342   5.624   3.152   3.596  0.2215  0.2843 -0.0662
 2309TIP3    H228343   5.512   3.235   3.537 -0.5169  1.7428  3.1658
 2310TIP3   OH228344   4.992   1.394   1.875 -0.1350 -0.1088 -0.5403
 2310TIP3    H128345   4.934   1.356   1.809 -2.1328 -0.0356  1.0970
 2310TIP3    H228346   4.969   1.349   1.956 -1.1152  3.0003  1.0511
 2311TIP3   OH228347   6.409   1.242  12.662  0.3999 -0.0461 -0.6472
 2311TIP3    H128348   6.340   1.307  12.674  1.2345  0.7246  0.0901
 2311TIP3    H228349   6.491   1.292  12.670  1.0528 -1.0210 -1.0376
 2312TIP3   OH228350   6.317   0.874  13.051  0.0692  0.0703  0.0606
 2312TIP3    H128351   6.364   0.791  13.058  0.7920  0.5359  1.0642
 2312TIP3    H228352   6.343   0.909  12.965 -0.1365 -0.6723 -0.3076
 2313TIP3   OH228353   5.773   0.996   0.498  0.2134  0.3534  0.2160
 2313TIP3    H128354   5.842   0.984   0.433  0.0254  1.9668 -0.3161
 2313TIP3    H228355   5.717   0.919   0.487  0.6774  0.1488 -0.9208
 2314TIP3   OH228356   2.318   1.077   4.471  0.1771 -0.0957 -0.0043
 2314TIP3    H128357   2.304   1.077   4.376  2.8880  1.3215 -0.4870
 2314TIP3    H228358   2.297   0.987   4.498 -0.9212 -0.4532 -1.8709
 2315TIP3   OH228359   2.619   1.689  12.097  0.0319 -0.0217  0.1180
 2315TIP3    H128360   2.575   1.621  12.046 -1.8700  1.3580 -0.1439
 2315TIP3    H228361   2.637   1.647  12.181  0.2959 -1.3152 -0.5566
 2316TIP3   OH228362   0.038   0.487   3.781  1.1661  0.6858 -0.7553
 2316TIP3    H128363  -0.021   0.448   3.716  2.2506  0.7515 -1.7991
 2316TIP3    H228364  -0.021   0.525   3.846  0.0360 -1.4429 -0.4178
 2317TIP3   OH228365   2.723   3.712   0.154  0.4682  0.4980  0.7046
 2317TIP3    H128366   2.768   3.792   0.183  2.4388 -0.6808  1.0688
 2317TIP3    H228367   2.700   3.667   0.235  0.4760  0.1068  0.4897
 2318TIP3   OH228368   6.200   0.528   1.481 -0.1973  0.0298  0.1743
 2318TIP3    H128369   6.133   0.549   1.547 -1.0824 -0.5004 -0.5353
 2318TIP3    H228370   6.282   0.528   1.530 -0.6897  0.8413  1.0397
 2319TIP3   OH228371   6.385   6.182   4.214  0.0363  0.2369 -0.9137
 2319TIP3    H128372   6.431   6.263   4.193  1.4451 -0.4744 -0.7242
 2319TIP3    H228373   6.405   6.166   4.306  0.5591 -0.7911 -1.1870
 2320TIP3   OH228374   2.909   0.681   1.032  0.2631 -0.2900  0.8047
 2320TIP3    H128375   2.889   0.612   0.969 -0.5524 -0.4959  1.2786
 2320TIP3    H228376   2.873   0.649   1.115  0.2390  0.5275  1.1165
 2321TIP3   OH228377   0.270   1.484  11.583  0.0943 -0.6730 -0.1013
 2321TIP3    H128378   0.216   1.500  11.506  0.2059 -1.7537 -0.4144
 2321TIP3    H228379   0.280   1.571  11.624 -0.9619 -0.2841 -0.6321
 2322TIP3   OH228380   2.634   4.313  15.228 -0.7972 -0.2095 -0.1074
 2322TIP3    H128381   2.686   4.351  15.157 -0.7593 -0.2892 -0.1228
 2322TIP3    H228382   2.675   4.346  15.308 -0.1091 -1.0578 -0.0956
 2323TIP3   OH228383   5.448   2.049  14.358  0.3598  0.0861  0.2036
 2323TIP3    H128384   5.526   1.999  14.334  0.3543  0.6386 -1.0221
 2323TIP3    H228385   5.481   2.137  14.376  0.1154  0.1370  0.4043
 2324TIP3   OH228386   2.200   3.355   3.270 -0.2285 -0.3157  0.4441
 2324TIP3    H128387   2.274   3.329   3.324 -0.1169 -0.4859  0.2083
 2324TIP3    H228388   2.230   3.433   3.223  0.1198 -0.8981 -0.3307
 2325TIP3   OH228389   5.471   3.610  16.688  0.4304 -0.3460 -0.3846
 2325TIP3    H128390   5.551   3.617  16.741 -0.3056 -0.1153  0.7285
 2325TIP3    H228391   5.495   3.645  16.603  1.6847 -0.8290 -0.2544
 2326TIP3   OH228392   1.586   3.736   1.826 -0.4888  0.2481  0.0024
 2326TIP3    H128393   1.566   3.718   1.734  0.1346  2.0102 -0.5356
 2326TIP3    H228394   1.677   3.764   1.826 -0.5323  0.4620  1.1346
 2327TIP3   OH228395   4.538   2.354   2.680 -0.2345  0.0474  0.4886
 2327TIP3    H128396   4.567   2.445   2.685 -1.6699  0.5561 -0.1129
 2327TIP3    H228397   4.446   2.356   2.704 -1.0088 -0.8278 -2.0675
 2328TIP3   OH228398   5.080   5.119   4.876  0.1847 -0.0785 -0.7027
 2328TIP3    H128399   5.073   5.210   4.905  2.3355 -0.6073  1.8585
 2328TIP3    H228400   4.989   5.087   4.874 -0.5189  1.7826 -0.6412
 2329TIP3   OH228401   2.238   0.740  16.457  0.0729  0.0329  0.1252
 2329TIP3    H128402   2.187   0.821  16.455 -2.1187 -1.2685 -1.4568
 2329TIP3    H228403   2.232   0.705  16.368  2.7679 -0.8561  0.1867
 2330TIP3   OH228404   4.799   0.391  12.936  0.0004 -0.1022 -0.1407
 2330TIP3    H128405   4.885   0.412  12.901  0.5949  0.9663  1.7934
 2330TIP3    H228406   4.738   0.440  12.881  0.9388  2.0284  0.5912
 2331TIP3   OH228407   2.705   6.795   5.602 -0.2720 -0.1703  0.0431
 2331TIP3    H128408   2.719   6.712   5.556 -0.7131  0.7131 -1.7850
 2331TIP3    H228409   2.652   6.771   5.678  0.3848 -1.6805  0.0568
 2332TIP3   OH228410   6.725   3.843   4.219  0.3213  0.1903 -0.1717
 2332TIP3    H128411   6.736   3.761   4.267  2.4400  0.4871 -0.0882
 2332TIP3    H228412   6.782   3.834   4.143  0.2735  1.4309 -0.3731
 2333TIP3   OH228413   2.107   4.428   4.909  0.3235 -0.3626  0.3146
 2333TIP3    H128414   2.061   4.470   4.982 -0.2321 -0.6889  0.1598
 2333TIP3    H228415   2.086   4.335   4.918 -0.1753 -0.3461 -0.5450
 2334TIP3   OH228416   2.463   6.531   4.200  0.1378 -0.0822  0.1240
 2334TIP3    H128417   2.370   6.519   4.182 -0.2018  0.5767  1.3872
 2334TIP3    H228418   2.476   6.625   4.196  0.8013 -0.1818 -0.2104
 2335TIP3   OH228419   1.799   0.810  16.604 -0.4098  0.1242  0.3543
 2335TIP3    H128420   1.859   0.851  16.665 -0.5483 -0.4370  0.8721
 2335TIP3    H228421   1.715   0.808  16.650 -0.7978  0.7617 -0.3021
 2336TIP3   OH228422   3.070   6.449   2.908  0.6304 -0.8444  0.3064
 2336TIP3    H128423   3.120   6.522   2.873 -1.4816  1.3382  1.5344
 2336TIP3    H228424   3.135   6.397   2.956  1.9211  1.3219  1.0698
 2337TIP3   OH228425   2.537   0.377   6.267  0.1042  0.7625  0.2396
 2337TIP3    H128426   2.456   0.328   6.276  0.8529 -0.2280  2.0981
 2337TIP3    H228427   2.543   0.429   6.347  1.2597  0.8410  0.1257
 2338TIP3   OH228428   5.863   2.079   3.612 -0.2888  0.6550  0.0534
 2338TIP3    H128429   5.934   2.030   3.571  0.7382  0.7103  1.6891
 2338TIP3    H228430   5.786   2.024   3.600  0.6736 -1.0029  1.1112
 2339TIP3   OH228431   3.925   4.753   1.400 -0.2453  0.4664 -0.0124
 2339TIP3    H128432   3.976   4.674   1.414  0.6878  1.2354  1.1027
 2339TIP3    H228433   3.891   4.775   1.487  0.7286  2.0882 -0.0063
 2340TIP3   OH228434   3.348   0.622   2.697  0.3290 -0.0715 -0.4045
 2340TIP3    H128435   3.399   0.576   2.631  0.8671 -0.2284  0.1101
 2340TIP3    H228436   3.353   0.567   2.775 -0.7360 -0.1440 -0.3784
 2341TIP3   OH228437   0.149   3.489   4.167 -0.4256  0.4442  0.1364
 2341TIP3    H128438   0.157   3.444   4.083 -1.9751 -3.4034  1.8178
 2341TIP3    H228439   0.068   3.455   4.205  0.4216  1.6342  3.3920
 2342TIP3   OH228440   1.921   6.616   3.935 -0.0645  0.2617  0.3947
 2342TIP3    H128441   2.009   6.654   3.928  0.5617 -1.1764 -0.1446
 2342TIP3    H228442   1.875   6.647   3.857  0.4518 -0.0997 -0.0649
 2343TIP3   OH228443   0.582   2.987  11.224  0.3040  0.5559 -0.5597
 2343TIP3    H128444   0.513   2.942  11.272 -1.0011  1.3977 -1.5815
 2343TIP3    H228445   0.546   3.073  11.204  1.5228  0.8967 -1.4153
 2344TIP3   OH228446   5.298   6.811   4.903  0.2463  0.2474 -0.0254
 2344TIP3    H128447   5.393   6.798   4.907  0.2528 -0.0116 -0.7743
 2344TIP3    H228448   5.282   6.843   4.814 -0.2518  1.3801  0.4650
 2345TIP3   OH228449   0.695   5.372  14.349  0.3958  0.1628 -0.3323
 2345TIP3    H128450   0.777   5.417  14.368 -0.0731  2.5914 -3.3874
 2345TIP3    H228451   0.721   5.292  14.303  1.0916  0.8906 -1.2380
 2346TIP3   OH228452   0.047   3.273   2.205  0.0694 -0.1666 -0.1867
 2346TIP3    H128453  -0.011   3.212   2.159 -0.7634  0.6178 -0.1980
 2346TIP3    H228454   0.057   3.347   2.145  0.9180 -0.1938 -0.0934
 2347TIP3   OH228455   1.898   0.958  14.459 -0.1754  0.1623  0.1520
 2347TIP3    H128456   1.903   0.864  14.478  0.5983  0.2335  0.3172
 2347TIP3    H228457   1.825   0.989  14.513  1.0379  0.0866  1.9146
 2348TIP3   OH228458   3.814   0.892  12.687 -0.1377 -0.3011 -0.1219
 2348TIP3    H128459   3.810   0.904  12.782  1.8864 -0.1410 -0.0122
 2348TIP3    H228460   3.742   0.831  12.667  0.5214 -1.8022  1.7696
 2349TIP3   OH228461   3.394   6.162  14.938  0.6587  0.2778  0.1026
 2349TIP3    H128462   3.490   6.161  14.935  0.6919 -1.7764  0.4551
 2349TIP3    H228463   3.373   6.238  14.992  2.1280  0.3904  0.5571
 2350TIP3   OH228464   1.049   2.537  14.842 -0.0652  0.2427 -0.9147
 2350TIP3    H128465   1.112   2.604  14.814  0.4739 -0.6299 -1.8422
 2350TIP3    H228466   1.094   2.491  14.912 -0.4670  0.8833 -0.2231
 2351TIP3   OH228467   1.761   1.047   0.932 -0.8380 -0.0179  0.1318
 2351TIP3    H128468   1.854   1.022   0.937 -0.8347 -0.3275 -1.2657
 2351TIP3    H228469   1.714   0.970   0.962 -0.7149 -0.7864 -1.5324
 2352TIP3   OH228470   0.150   3.499   0.529 -0.7856  0.2304 -0.0890
 2352TIP3    H128471   0.224   3.455   0.571 -0.5136  0.6520 -0.1217
 2352TIP3    H228472   0.184   3.585   0.504 -0.8098 -0.1654 -1.5718
 2353TIP3   OH228473   5.973   6.527   3.644  0.2221  0.0231  0.2537
 2353TIP3    H128474   6.028   6.555   3.717  1.6822 -0.4227 -0.6366
 2353TIP3    H228475   6.011   6.444   3.616 -0.3576  0.1532 -0.9734
 2354TIP3   OH228476   2.107   5.345   2.250 -0.2055 -0.4592  0.4369
 2354TIP3    H128477   2.101   5.275   2.185  0.1515 -0.3435  0.2760
 2354TIP3    H228478   2.132   5.422   2.200 -0.2080 -0.3037  0.6724
 2355TIP3   OH228479   4.569   5.049   4.564  0.1572  0.7284  0.3411
 2355TIP3    H128480   4.567   4.982   4.631  0.5625 -0.9179 -1.2201
 2355TIP3    H228481   4.661   5.055   4.538 -0.2762 -0.5410 -1.7825
 2356TIP3   OH228482   1.597   2.279   0.823  0.3513 -0.6579  0.8904
 2356TIP3    H128483   1.684   2.274   0.782  0.0190  0.5543 -0.0173
 2356TIP3    H228484   1.588   2.371   0.850 -0.7556 -0.7051  0.7279
 2357TIP3   OH228485   5.816   6.615  15.394 -0.1502 -0.0473  0.1436
 2357TIP3    H128486   5.795   6.611  15.301  0.7707  0.0645 -0.0844
 2357TIP3    H228487   5.759   6.683  15.429  1.2965  1.8062 -0.8773
 2358TIP3   OH228488   5.204   3.521  12.539  0.1608 -0.4722  0.3168
 2358TIP3    H128489   5.289   3.531  12.582  0.5554 -0.9452 -0.3222
 2358TIP3    H228490   5.221   3.461  12.466 -0.6045 -0.1443 -0.1487
 2359TIP3   OH228491   4.004   2.904   0.689  0.6195  0.0562  0.1733
 2359TIP3    H128492   4.025   2.850   0.613 -0.6399  2.3112 -1.9272
 2359TIP3    H228493   4.008   2.994   0.657 -1.8511  1.0456  2.2489
 2360TIP3   OH228494   1.092   2.205  13.691 -0.1800  0.6045 -0.1093
 2360TIP3    H128495   1.029   2.256  13.640 -0.2166  0.5844 -0.0844
 2360TIP3    H228496   1.130   2.144  13.628 -0.3419  0.4707 -0.0767
 2361TIP3   OH228497   2.678   1.859   0.003  0.1196 -0.4185  0.4023
 2361TIP3    H128498   2.605   1.895   0.053 -0.0811 -0.7022  0.3173
 2361TIP3    H228499   2.718   1.934  -0.040 -0.8700 -0.3991 -0.5418
 2362TIP3   OH228500   3.043   1.226  16.778  0.1802  0.2941 -0.0599
 2362TIP3    H128501   3.072   1.251  16.690 -0.4716  2.3038  0.2302
 2362TIP3    H228502   3.056   1.305  16.830 -1.5786 -0.1186  1.0980
 2363TIP3   OH228503   2.496   5.076  13.484 -0.1367 -0.4367  0.0083
 2363TIP3    H128504   2.538   5.153  13.446 -2.1653  0.3883 -0.6613
 2363TIP3    H228505   2.569   5.018  13.507  1.5517  2.1852  1.7677
 2364TIP3   OH228506   4.506   5.460  15.308 -0.3301  0.0408  0.0922
 2364TIP3    H128507   4.528   5.543  15.265 -0.3551  0.2003  0.3801
 2364TIP3    H228508   4.500   5.396  15.237  1.2054 -0.0438  0.0123
 2365TIP3   OH228509   2.283   3.647  12.321 -0.3759  0.4243 -0.1253
 2365TIP3    H128510   2.224   3.608  12.256 -1.7553  2.6310 -0.3006
 2365TIP3    H228511   2.248   3.617  12.405 -0.6528  0.2591 -0.2946
 2366TIP3   OH228512   5.668   3.678   2.647 -0.3836 -0.4924  0.1817
 2366TIP3    H128513   5.631   3.761   2.675 -3.0499 -1.2185 -0.8812
 2366TIP3    H228514   5.629   3.662   2.561  0.8783 -2.3590 -0.1089
 2367TIP3   OH228515   1.742   0.031  14.098 -0.3352  0.5170  0.3096
 2367TIP3    H128516   1.829   0.030  14.058 -0.5281  0.5468 -0.1118
 2367TIP3    H228517   1.745   0.105  14.159 -0.1639  0.7038  0.0750
 2368TIP3   OH228518   1.478   6.592   1.953 -0.4530 -0.2781 -0.2772
 2368TIP3    H128519   1.526   6.599   2.035 -1.5357  1.0334  0.2714
 2368TIP3    H228520   1.541   6.620   1.886 -0.0248  0.0869  0.2696
 2369TIP3   OH228521   0.380   1.508   1.887  0.0013  0.2498  0.2847
 2369TIP3    H128522   0.413   1.518   1.797  1.0170  0.1741  0.6412
 2369TIP3    H228523   0.458   1.506   1.941 -0.5908 -0.1951  1.1361
 2370TIP3   OH228524   3.512   3.865   1.017  0.7383  0.1865 -0.0618
 2370TIP3    H128525   3.537   3.851   1.109 -1.4609  0.3300  0.6077
 2370TIP3    H228526   3.595   3.878   0.972  2.4757 -5.0718  0.8788
 2371TIP3   OH228527   5.304   0.841  10.954 -0.0624 -0.7170 -0.0446
 2371TIP3    H128528   5.235   0.794  11.000  1.0960 -3.4740 -0.8757
 2371TIP3    H228529   5.273   0.848  10.864  0.3326 -1.0928 -0.2127
 2372TIP3   OH228530   3.465   1.497  12.791 -0.3943  0.2145  0.1979
 2372TIP3    H128531   3.500   1.438  12.724 -0.5878 -1.6604  1.6597
 2372TIP3    H228532   3.376   1.516  12.762  0.1288  0.9405 -0.9944
 2373TIP3   OH228533   0.354   2.239   0.381  0.3143  0.1481  0.0569
 2373TIP3    H128534   0.401   2.247   0.464 -0.3608 -3.6289  1.0118
 2373TIP3    H228535   0.422   2.220   0.316  0.4844 -2.5546  0.9189
 2374TIP3   OH228536   4.582   5.408  14.449 -0.8533 -0.1224 -0.0785
 2374TIP3    H128537   4.537   5.462  14.385  2.2508  1.3259 -1.2214
 2374TIP3    H228538   4.572   5.318  14.416  0.1595  0.5372 -2.3023
 2375TIP3   OH228539   3.013   0.527   3.306 -0.9161 -0.3919 -0.1782
 2375TIP3    H128540   2.975   0.566   3.228  1.4444  2.1647 -0.1737
 2375TIP3    H228541   3.096   0.572   3.318 -1.1240 -0.7410  3.7771
 2376TIP3   OH228542   3.200   1.184  13.993 -0.4817  0.2401 -0.2444
 2376TIP3    H128543   3.274   1.138  13.953  0.4777 -0.3288  2.0107
 2376TIP3    H228544   3.232   1.274  14.005  0.0689 -0.1212  1.1642
 2377TIP3   OH228545   6.374   5.940   2.670  0.1805  0.1627 -0.9509
 2377TIP3    H128546   6.340   5.948   2.581 -0.5983  0.2296 -0.6511
 2377TIP3    H228547   6.324   5.868   2.709 -0.2985  0.8754 -0.2074
 2378TIP3   OH228548   5.915   5.582  14.562  0.2321  0.2415 -0.2001
 2378TIP3    H128549   5.907   5.544  14.475 -1.8749  0.2153 -0.0490
 2378TIP3    H228550   5.901   5.508  14.621 -0.2651  0.5838  0.1229
 2379TIP3   OH228551   3.120   1.135  10.516  0.5495  0.2533  0.2624
 2379TIP3    H128552   3.210   1.149  10.488  0.6495 -0.0148  0.4397
 2379TIP3    H228553   3.122   1.150  10.610  0.9338 -2.0981  0.6899
 2380TIP3   OH228554   2.043   1.159   1.802 -0.4936  0.1214  0.0595
 2380TIP3    H128555   2.046   1.219   1.877 -2.1904 -0.0732  0.3295
 2380TIP3    H228556   1.966   1.105   1.818  0.5096 -1.6040 -0.5939
 2381TIP3   OH228557   6.614   0.623  13.683  0.1618 -0.7547  0.0680
 2381TIP3    H128558   6.614   0.563  13.757 -2.5722 -0.0526  0.7662
 2381TIP3    H228559   6.612   0.710  13.722 -3.1728 -0.3768 -0.5939
 2382TIP3   OH228560   1.728   3.619   3.425  0.3909 -0.3456  0.3385
 2382TIP3    H128561   1.760   3.530   3.440 -3.2262 -1.5607  2.0140
 2382TIP3    H228562   1.717   3.655   3.513 -0.3158  0.9262 -0.2505
 2383TIP3   OH228563   3.123   6.676  11.098  0.3858  0.1978  0.2266
 2383TIP3    H128564   3.116   6.770  11.079  2.2637  0.1762 -0.7768
 2383TIP3    H228565   3.062   6.662  11.170 -0.6393  2.0009 -0.2193
 2384TIP3   OH228566   1.356   0.935  11.360 -0.1397  0.1485 -0.2169
 2384TIP3    H128567   1.414   1.002  11.324 -1.7942  0.4210 -2.6700
 2384TIP3    H228568   1.271   0.979  11.369 -0.4870 -0.7682  1.2769
 2385TIP3   OH228569   2.513   5.985   2.512 -0.0032 -0.2740 -0.6667
 2385TIP3    H128570   2.571   5.963   2.585  1.7212 -2.5243 -2.5760
 2385TIP3    H228571   2.425   5.963   2.543  0.5339 -0.1171  1.0697
 2386TIP3   OH228572   2.581   0.741  16.370 -0.1675 -0.1133  0.2886
 2386TIP3    H128573   2.535   0.760  16.288 -2.2192  0.2925  1.4667
 2386TIP3    H228574   2.662   0.793  16.365 -0.2550 -0.1011 -1.4433
 2387TIP3   OH228575   4.019   0.803  11.652 -0.0073 -0.3340  0.5170
 2387TIP3    H128576   3.994   0.877  11.707  1.1332  0.9649 -0.6377
 2387TIP3    H228577   4.011   0.836  11.563 -0.6074 -2.0007 -0.0828
 2388TIP3   OH228578   4.147   4.716  13.737  0.2116 -0.4770 -0.1955
 2388TIP3    H128579   4.220   4.654  13.736  0.5801 -0.0416 -1.1458
 2388TIP3    H228580   4.070   4.663  13.715  0.5804 -0.5333 -1.3796
 2389TIP3   OH228581   0.362   3.710   0.054 -0.2761  0.5523 -0.4303
 2389TIP3    H128582   0.425   3.779   0.032 -1.3172  1.6900  0.0237
 2389TIP3    H228583   0.375   3.695   0.147  0.3515 -0.3124 -0.6454
 2390TIP3   OH228584   3.315   2.249   5.562  0.0877  0.4176 -0.5969
 2390TIP3    H128585   3.254   2.308   5.516 -1.2827 -0.1580  0.4267
 2390TIP3    H228586   3.262   2.173   5.584  0.0241  1.4856  3.7988
 2391TIP3   OH228587   5.652   4.475   5.492  0.5823 -0.1622 -0.2369
 2391TIP3    H128588   5.667   4.477   5.587  2.4931 -2.4115 -0.3978
 2391TIP3    H228589   5.703   4.548   5.458 -0.8347  1.2320  0.4735
 2392TIP3   OH228590   6.124   0.770  13.547  0.0340  0.4719 -0.0701
 2392TIP3    H128591   6.121   0.761  13.452  1.1380 -1.6266  0.0320
 2392TIP3    H228592   6.053   0.713  13.579 -0.7752  1.6838  0.3876
 2393TIP3   OH228593   6.633   5.504   0.043  0.3177  0.4456  0.2385
 2393TIP3    H128594   6.606   5.412   0.051 -0.3144  0.4153 -1.6560
 2393TIP3    H228595   6.727   5.500   0.025  0.5582  0.2617  1.4474
 2394TIP3   OH228596   5.871   3.347   2.425  0.0083  0.6311 -0.1103
 2394TIP3    H128597   5.791   3.372   2.379  0.4124  2.0110 -0.0957
 2394TIP3    H228598   5.903   3.271   2.377 -2.0153 -0.8219  0.7089
 2395TIP3   OH228599   1.785   4.748   0.470 -0.2688 -0.6948 -0.0211
 2395TIP3    H128600   1.855   4.754   0.536  0.0442 -1.0392 -0.3166
 2395TIP3    H228601   1.717   4.695   0.512  0.5985 -2.2759 -0.5381
 2396TIP3   OH228602   5.809   0.378   0.510  0.1797 -0.3932 -0.1975
 2396TIP3    H128603   5.884   0.336   0.553 -1.2195 -1.4136  1.3778
 2396TIP3    H228604   5.776   0.440   0.575 -0.9471 -0.6925 -0.4725
 2397TIP3   OH228605   3.165   0.837   4.410 -0.4285 -0.2956 -0.1697
 2397TIP3    H128606   3.229   0.902   4.378 -1.3121  0.4019 -0.5927
 2397TIP3    H228607   3.084   0.860   4.364 -1.2245 -0.5690  1.0647
 2398TIP3   OH228608   0.197   4.110  14.796 -0.3660  0.7731  0.2979
 2398TIP3    H128609   0.190   4.146  14.708 -2.1561  1.4998  0.6977
 2398TIP3    H228610   0.173   4.018  14.787  0.0733  0.6926 -0.0651
 2399TIP3   OH228611   5.613   2.192   4.622  0.1434  0.1777  0.5473
 2399TIP3    H128612   5.589   2.099   4.615 -2.9408  0.9249 -0.2888
 2399TIP3    H228613   5.695   2.191   4.671  1.1829 -3.0799 -0.9160
 2400TIP3   OH228614   5.919   4.450   1.461 -0.2923  0.0519  0.2497
 2400TIP3    H128615   5.993   4.427   1.406 -0.8870  1.7884 -1.3786
 2400TIP3    H228616   5.893   4.368   1.503  0.9351 -1.0750 -1.1327
 2401TIP3   OH228617   3.716   3.239  11.736 -0.0371 -0.0651 -0.1967
 2401TIP3    H128618   3.702   3.190  11.817  1.0578  1.4820  1.0059
 2401TIP3    H228619   3.669   3.190  11.669 -2.2320 -0.6227  1.6286
 2402TIP3   OH228620   5.854   3.940  12.770  0.1510  0.4553  0.1266
 2402TIP3    H128621   5.830   3.891  12.849 -0.2292 -0.5562 -0.5883
 2402TIP3    H228622   5.910   4.011  12.801  0.2075 -0.0753  1.2771
 2403TIP3   OH228623   3.179   2.785  11.111  0.0389  0.2026 -0.0470
 2403TIP3    H128624   3.268   2.817  11.094 -0.1038 -0.8319 -3.4533
 2403TIP3    H228625   3.187   2.690  11.110 -0.9354  0.0923  0.9436
 2404TIP3   OH228626   4.990   5.357   0.447 -0.5750  0.3304  0.4704
 2404TIP3    H128627   4.989   5.339   0.353  0.2670  0.2743  0.4657
 2404TIP3    H228628   5.005   5.451   0.453 -0.5580  0.3225  0.5483
 2405TIP3   OH228629   3.307   5.091   4.161  0.5424 -0.1813  0.1743
 2405TIP3    H128630   3.387   5.140   4.140  0.2611  0.0234 -0.4497
 2405TIP3    H228631   3.330   5.039   4.238  0.5231  1.7662  1.5654
 2406TIP3   OH228632   4.599   0.298   6.210 -0.0063  0.5754 -0.1228
 2406TIP3    H128633   4.610   0.219   6.263 -0.2445  0.6598  0.0541
 2406TIP3    H228634   4.545   0.271   6.137  0.8864  0.2934 -0.6964
 2407TIP3   OH228635   6.727   1.660   3.901  0.4092  0.2975 -0.7740
 2407TIP3    H128636   6.795   1.594   3.888 -0.5542 -0.3198 -3.1553
 2407TIP3    H228637   6.645   1.609   3.903 -0.1283  1.1581  0.5810
 2408TIP3   OH228638   3.541   2.507   0.299  0.0786  1.1020 -0.1766
 2408TIP3    H128639   3.611   2.514   0.364 -0.7035  1.1687  0.6799
 2408TIP3    H228640   3.556   2.581   0.240 -1.6536  3.7201  2.3981
 2409TIP3   OH228641   1.803   1.738   3.978 -0.4707  0.6469 -0.5593
 2409TIP3    H128642   1.896   1.757   3.968 -0.4034  1.1812  0.9107
 2409TIP3    H228643   1.800   1.649   4.011 -0.4519  0.8243 -0.0747
 2410TIP3   OH228644   3.348   1.080  15.922  0.5514 -0.1706 -0.3801
 2410TIP3    H128645   3.278   1.022  15.953 -0.1419  0.6113 -0.4469
 2410TIP3    H228646   3.334   1.087  15.828 -0.8346  1.9427 -0.0848
 2411TIP3   OH228647   4.581   0.942   3.248 -0.1443  0.1479  0.3314
 2411TIP3    H128648   4.597   1.030   3.215  2.0164  0.4339  1.9225
 2411TIP3    H228649   4.511   0.953   3.313  0.0873  0.7041  0.4970
 2412TIP3   OH228650   1.971   2.080   1.444  0.3681  0.2118  0.0319
 2412TIP3    H128651   1.953   2.111   1.355  1.1292  0.0006 -0.2067
 2412TIP3    H228652   1.936   2.149   1.501 -0.5495  0.1270 -0.4128
 2413TIP3   OH228653   2.884   2.838  12.431  0.6195 -0.2655  0.2690
 2413TIP3    H128654   2.814   2.789  12.387 -0.3000  0.4503  0.8818
 2413TIP3    H228655   2.950   2.771  12.453  1.0992 -0.6437 -2.1043
 2414TIP3   OH228656   3.600   2.966  15.705 -0.2021  0.5878 -0.0627
 2414TIP3    H128657   3.520   2.974  15.653 -0.4764  1.9864  0.5109
 2414TIP3    H228658   3.639   3.053  15.701  0.2366  0.4688  1.3280
 2415TIP3   OH228659   6.140   6.771  14.738 -0.4159  0.1612 -0.0417
 2415TIP3    H128660   6.137   6.864  14.713 -0.3807  0.2268  0.1886
 2415TIP3    H228661   6.219   6.737  14.694 -0.5362  0.1923 -0.2826
 2416TIP3   OH228662   1.602   0.339  13.655  0.7977  0.0178  0.2453
 2416TIP3    H128663   1.661   0.292  13.713  3.1067  2.0608 -0.2918
 2416TIP3    H228664   1.602   0.429  13.688  0.1525  0.6591 -1.3762
 2417TIP3   OH228665   3.171   1.799   1.908  0.4592  0.3640  0.6309
 2417TIP3    H128666   3.161   1.893   1.918 -0.6599  0.4053 -0.6068
 2417TIP3    H228667   3.082   1.764   1.917  0.5292 -0.3279 -0.9480
 2418TIP3   OH228668   3.525   0.946  11.529  0.6237  0.1889  0.1921
 2418TIP3    H128669   3.439   0.905  11.539  0.0571  1.2987  0.1084
 2418TIP3    H228670   3.537   0.955  11.434 -0.3367  2.2923  0.2060
 2419TIP3   OH228671   5.587   3.358  15.197 -0.1463  0.1817 -0.3435
 2419TIP3    H128672   5.547   3.367  15.283 -0.2493  2.8755 -0.6019
 2419TIP3    H228673   5.581   3.264  15.178  1.2809 -0.7970  3.1909
 2420TIP3   OH228674   4.163   5.717  12.098 -0.1073 -0.0074 -0.2766
 2420TIP3    H128675   4.238   5.750  12.147  0.1441 -1.2676  0.2469
 2420TIP3    H228676   4.201   5.666  12.027 -0.4442 -1.0173  0.2489
 2421TIP3   OH228677   3.189   3.504  11.254 -0.2570 -0.0458  0.0693
 2421TIP3    H128678   3.222   3.537  11.338  0.1652 -0.0228 -0.1039
 2421TIP3    H228679   3.266   3.467  11.211 -0.2244  0.9988 -0.8171
 2422TIP3   OH228680   5.024   2.300  15.832  0.0909  0.2289  0.2993
 2422TIP3    H128681   4.960   2.269  15.896  0.9839 -2.2546  0.1014
 2422TIP3    H228682   5.092   2.343  15.884  0.0157 -0.3334  0.8715
 2423TIP3   OH228683   0.421   3.689  16.734 -0.4052 -1.0283  0.1385
 2423TIP3    H128684   0.447   3.770  16.778  0.4556 -1.3850  0.3003
 2423TIP3    H228685   0.352   3.653  16.790  0.2388 -1.1537  0.8674
 2424TIP3   OH228686   2.037   3.738   4.583 -0.3444 -0.2448 -0.0840
 2424TIP3    H128687   2.045   3.669   4.516  0.5572 -1.1498  0.9124
 2424TIP3    H228688   2.028   3.690   4.665 -1.8403  0.8515  0.4266
 2425TIP3   OH228689   1.292   3.316  14.248  0.3793  0.3670  0.9178
 2425TIP3    H128690   1.375   3.363  14.238  0.7184 -0.2698  0.6831
 2425TIP3    H228691   1.226   3.385  14.252  0.6802  0.8343 -1.1292
 2426TIP3   OH228692   4.480   0.151   3.775  0.0144 -0.2146  0.1361
 2426TIP3    H128693   4.545   0.080   3.770  0.7416  0.4001  0.5718
 2426TIP3    H228694   4.475   0.186   3.686 -0.4549 -0.8984 -0.1122
 2427TIP3   OH228695   5.098   0.568   3.739 -0.1063 -0.3935 -0.0085
 2427TIP3    H128696   5.075   0.621   3.663  0.0677  1.6251  1.2395
 2427TIP3    H228697   5.027   0.584   3.801  0.9144 -0.0530  1.1151
 2428TIP3   OH228698   1.604   0.488  12.401  0.0455 -0.3751  0.3775
 2428TIP3    H128699   1.696   0.494  12.427 -0.3294  0.2461  1.6295
 2428TIP3    H228700   1.607   0.458  12.310  1.4836 -0.2221  0.3492
 2429TIP3   OH228701   3.937   1.181   1.851  0.4407 -0.5246 -0.1907
 2429TIP3    H128702   4.006   1.115   1.841 -0.5070 -1.5697  0.0253
 2429TIP3    H228703   3.941   1.233   1.771  1.4669 -0.5711 -0.1825
 2430TIP3   OH228704   0.019   3.884  14.387  0.1429  0.3400 -0.1970
 2430TIP3    H128705  -0.003   3.791  14.388  0.3161  0.2606  1.9836
 2430TIP3    H228706  -0.045   3.925  14.445  2.3919  0.8842  2.1280
 2431TIP3   OH228707   1.224   6.066  14.611  0.2859 -0.3944 -0.1915
 2431TIP3    H128708   1.192   6.081  14.522 -0.6077 -0.7541  0.0647
 2431TIP3    H228709   1.164   6.001  14.648  0.2587  0.2263  0.8895
 2432TIP3   OH228710   2.787   0.310  15.179 -0.2565 -0.9261 -0.1575
 2432TIP3    H128711   2.720   0.312  15.246 -0.0278 -1.9881  0.1305
 2432TIP3    H228712   2.767   0.232  15.127  0.5409 -1.0646 -0.2788
 2433TIP3   OH228713   3.911   0.237   0.256  0.0833 -0.4591  0.0609
 2433TIP3    H128714   3.815   0.229   0.257  0.0595 -0.0955  0.5702
 2433TIP3    H228715   3.937   0.192   0.175 -0.5524 -0.1410 -0.3315
 2434TIP3   OH228716   4.451   5.518   2.150  0.1520 -0.3967 -0.1608
 2434TIP3    H128717   4.444   5.438   2.098 -0.6569  0.6775 -1.7821
 2434TIP3    H228718   4.530   5.561   2.118  0.6722 -0.6066  0.8152
 2435TIP3   OH228719   4.566   1.166   3.567  0.3961 -0.0994 -0.4968
 2435TIP3    H128720   4.605   1.250   3.544 -1.2666  0.3000 -2.0671
 2435TIP3    H228721   4.610   1.140   3.648  2.4851  1.2166 -1.1395
 2436TIP3   OH228722   2.995   2.702  13.529 -0.1279 -0.9524  0.5299
 2436TIP3    H128723   3.007   2.607  13.521  1.7680 -0.6600 -0.9929
 2436TIP3    H228724   2.994   2.733  13.438  1.4229  0.6824  1.0309
 2437TIP3   OH228725   1.743   5.428   4.381  0.6236 -0.2939 -0.1074
 2437TIP3    H128726   1.654   5.411   4.349 -0.5347 -0.6663  2.9700
 2437TIP3    H228727   1.736   5.511   4.427  1.3318 -1.2331  1.7989
 2438TIP3   OH228728   6.552   5.135   5.439 -0.5235  0.2846 -0.1823
 2438TIP3    H128729   6.538   5.124   5.345 -1.2816 -0.3096 -0.0216
 2438TIP3    H228730   6.553   5.229   5.453 -0.8653  0.3738 -0.7286
 2439TIP3   OH228731   4.950   1.246  16.985 -0.5726 -0.0772  0.1742
 2439TIP3    H128732   5.038   1.265  17.017 -0.3795  1.1404 -1.0238
 2439TIP3    H228733   4.893   1.303  17.036 -0.0707  3.4694 -2.8702
 2440TIP3   OH228734   6.186   1.201   4.644 -0.3217  0.1341 -0.1254
 2440TIP3    H128735   6.251   1.233   4.707 -1.4532  0.7902  0.7609
 2440TIP3    H228736   6.183   1.107   4.658  0.9484 -0.0050 -0.6980
 2441TIP3   OH228737   4.004   3.470  12.810  0.0797 -0.1434 -0.5901
 2441TIP3    H128738   3.914   3.471  12.844  0.2490  0.5865 -0.1573
 2441TIP3    H228739   4.053   3.418  12.874  0.3514  1.0408  0.1788
 2442TIP3   OH228740   4.154   3.727  16.869  0.3391  0.1584  0.5224
 2442TIP3    H128741   4.248   3.743  16.879  0.6160 -1.1406  0.2058
 2442TIP3    H228742   4.134   3.757  16.781  0.6250 -0.2467  0.3144
 2443TIP3   OH228743   5.123   6.312   2.154 -0.0746 -0.1481  0.0175
 2443TIP3    H128744   5.164   6.228   2.175  0.5470  0.0025 -0.5637
 2443TIP3    H228745   5.102   6.350   2.239 -0.8361 -1.1084  0.2866
 2444TIP3   OH228746   5.886   3.609   2.491  0.5059 -0.5350  0.3277
 2444TIP3    H128747   5.802   3.632   2.531  1.8852  0.7733  2.7268
 2444TIP3    H228748   5.885   3.514   2.484 -0.7521 -0.6099  1.3281
 2445TIP3   OH228749   2.757   6.463  11.995 -0.1511  0.0892 -0.0124
 2445TIP3    H128750   2.846   6.455  11.959  0.1008  1.1118  0.3554
 2445TIP3    H228751   2.704   6.492  11.920 -0.0697  0.0454 -0.0883
 2446TIP3   OH228752   4.197   3.206  16.830 -0.3707 -0.3620 -0.5512
 2446TIP3    H128753   4.158   3.288  16.800 -0.5096  0.4851  1.7641
 2446TIP3    H228754   4.290   3.228  16.842 -0.2674 -0.7670 -0.6015
 2447TIP3   OH228755   4.459   4.046  16.641  0.5429  0.5277  0.1161
 2447TIP3    H128756   4.458   4.000  16.558  1.6038  3.1555 -1.4772
 2447TIP3    H228757   4.372   4.031  16.678 -0.3019  0.0886 -1.9264
 2448TIP3   OH228758   0.879   1.198   4.427 -0.0461 -0.2575 -0.2204
 2448TIP3    H128759   0.935   1.120   4.427  2.7811  1.6021 -0.1846
 2448TIP3    H228760   0.884   1.232   4.337 -0.7540  0.2167 -0.0939
 2449TIP3   OH228761   0.916   4.353   3.770 -0.5884  0.2389  0.1175
 2449TIP3    H128762   0.987   4.312   3.719 -1.3140 -0.3753 -0.4098
 2449TIP3    H228763   0.962   4.412   3.830  0.4791 -1.1757  0.7564
 2450TIP3   OH228764   3.259   4.656  15.724 -0.3018  0.0612 -0.4762
 2450TIP3    H128765   3.292   4.572  15.692 -2.0945 -0.7274 -0.3832
 2450TIP3    H228766   3.171   4.637  15.756 -0.8016  1.9979 -0.5360
 2451TIP3   OH228767   1.433   3.430   0.103  0.2348  0.7877  0.5179
 2451TIP3    H128768   1.482   3.426   0.021 -0.0544  1.3227  0.3159
 2451TIP3    H228769   1.423   3.338   0.129  0.7183  0.6379  0.1909
 2452TIP3   OH228770   3.171   6.658  14.696  0.2390 -0.2236 -0.6795
 2452TIP3    H128771   3.126   6.622  14.619 -1.0136  0.3438 -0.2510
 2452TIP3    H228772   3.260   6.676  14.666 -0.7737  2.0269 -2.6693
 2453TIP3   OH228773   4.312   3.148  14.248  0.3053  0.4997 -0.5952
 2453TIP3    H128774   4.364   3.211  14.199 -0.2422  1.8371  0.4735
 2453TIP3    H228775   4.229   3.193  14.265  0.4859  0.1525  1.5617
 2454TIP3   OH228776   5.006   4.977   0.088  0.2059  0.2130 -0.5974
 2454TIP3    H128777   5.061   5.047   0.054  0.6013  0.3592  0.3262
 2454TIP3    H228778   4.919   5.016   0.096  0.3570  0.5056 -0.3840
 2455TIP3   OH228779   2.183   3.875   4.394 -0.8397  1.1123 -0.8554
 2455TIP3    H128780   2.133   3.838   4.467 -0.7545  1.2379 -0.7321
 2455TIP3    H228781   2.207   3.800   4.341 -1.1556  1.0511 -0.9128
 2456TIP3   OH228782   2.946   5.588  15.158  0.5736 -0.6733  0.1387
 2456TIP3    H128783   3.036   5.600  15.189 -0.2847 -0.1409  2.7529
 2456TIP3    H228784   2.910   5.519  15.214 -1.0005  0.0449  0.0902
 2457TIP3   OH228785   6.690   2.840   1.500 -0.4282  0.1295 -0.5339
 2457TIP3    H128786   6.629   2.911   1.481  0.4101  0.6845 -1.1966
 2457TIP3    H228787   6.724   2.862   1.587 -1.8288 -0.6768  0.2586
 2458TIP3   OH228788   0.094   0.369  12.169 -0.4010  0.3959 -0.2925
 2458TIP3    H128789   0.107   0.284  12.212 -0.3782 -0.0651 -1.2019
 2458TIP3    H228790   0.178   0.414  12.179 -1.2733  1.6402  2.9532
 2459TIP3   OH228791   5.601   2.302  11.349  0.0532 -0.0730 -0.3573
 2459TIP3    H128792   5.569   2.308  11.259 -0.8954 -2.3368 -0.2492
 2459TIP3    H228793   5.688   2.343  11.346 -0.6851  1.5235 -1.8549
 2460TIP3   OH228794   2.700   3.231   2.630  0.4154 -0.6362 -0.0836
 2460TIP3    H128795   2.682   3.141   2.657  0.3390 -0.3367  0.8645
 2460TIP3    H228796   2.663   3.286   2.699  0.0770  0.1501 -0.8577
 2461TIP3   OH228797   2.242   3.858  13.291  0.0141  0.1241  0.3224
 2461TIP3    H128798   2.204   3.932  13.338 -0.8915 -0.7489  0.9868
 2461TIP3    H228799   2.326   3.842  13.335 -0.2196  0.1564  0.7833
 2462TIP3   OH228800   1.125   1.814   0.302 -0.2210  0.8446 -0.1596
 2462TIP3    H128801   1.111   1.721   0.286 -1.4074  0.5365  2.1831
 2462TIP3    H228802   1.047   1.857   0.267  0.3669  1.0148 -1.3222
 2463TIP3   OH228803   5.215   2.438   2.600 -0.6054 -0.4780  0.6484
 2463TIP3    H128804   5.154   2.420   2.672  0.5792 -0.1913  1.7542
 2463TIP3    H228805   5.158   2.458   2.526 -1.8636 -0.7140  1.5095
 2464TIP3   OH228806   4.023   4.628   0.990  0.1700  0.0228  0.4504
 2464TIP3    H128807   3.952   4.620   0.926  1.7240  0.2726 -1.3972
 2464TIP3    H228808   4.006   4.560   1.054 -0.8630 -0.9945 -0.8503
 2465TIP3   OH228809   5.170   3.220   1.837  0.0473 -0.3653 -0.1300
 2465TIP3    H128810   5.223   3.156   1.789  1.9041 -0.1672  1.5140
 2465TIP3    H228811   5.121   3.169   1.901 -1.8175 -0.5397 -1.6016
 2466TIP3   OH228812   5.355   1.877   2.142 -0.4022  0.0892  0.5015
 2466TIP3    H128813   5.361   1.907   2.233 -1.9116 -2.1592  1.4323
 2466TIP3    H228814   5.326   1.786   2.148  0.8443 -0.6045 -2.2292
 2467TIP3   OH228815   1.959   5.273  12.898 -0.2968 -0.0546 -0.1274
 2467TIP3    H128816   2.043   5.318  12.904 -0.3234  0.0449 -0.4995
 2467TIP3    H228817   1.935   5.278  12.806 -0.0226 -1.3461 -0.2869
 2468TIP3   OH228818   3.507   6.144  15.242 -0.3488  0.0751 -0.3831
 2468TIP3    H128819   3.515   6.239  15.233 -0.0836  0.2748  1.6263
 2468TIP3    H228820   3.412   6.128  15.246 -0.3856  0.2927 -0.3972
 2469TIP3   OH228821   1.397   1.104   4.048 -0.6660  0.0977  0.2866
 2469TIP3    H128822   1.448   1.031   4.013  0.4458 -0.4095  2.7550
 2469TIP3    H228823   1.412   1.175   3.986  0.6062 -0.9344 -0.6436
 2470TIP3   OH228824   5.337   1.252   4.831 -1.1157  0.1282  0.1480
 2470TIP3    H128825   5.250   1.234   4.795 -0.4152 -0.9899 -1.0928
 2470TIP3    H228826   5.396   1.198   4.778  0.5397  2.0927 -0.1491
 2471TIP3   OH228827   6.366   2.356   3.167 -0.6648  0.0673 -0.0462
 2471TIP3    H128828   6.462   2.354   3.173 -0.6682  0.9526  0.3637
 2471TIP3    H228829   6.341   2.263   3.164  0.1114 -0.2443  1.6001
 2472TIP3   OH228830   2.058   0.279  15.854  0.1833  0.2446 -0.4300
 2472TIP3    H128831   1.994   0.292  15.923  0.4751 -0.7710  0.0422
 2472TIP3    H228832   2.142   0.272  15.899  0.2536 -1.5024 -0.7667
 2473TIP3   OH228833   4.030   6.486  15.283 -0.8851 -0.2638 -0.0742
 2473TIP3    H128834   3.942   6.460  15.254 -1.2417 -0.7063  1.3036
 2473TIP3    H228835   4.086   6.413  15.256 -1.3438 -1.0353  0.9750
 2474TIP3   OH228836   3.023   6.483  12.282 -0.0724 -0.2142  0.1888
 2474TIP3    H128837   3.051   6.410  12.227 -1.7601 -1.4166  0.8726
 2474TIP3    H228838   2.929   6.492  12.265  0.2341  2.4551 -0.6044
 2475TIP3   OH228839   2.312   2.256  14.643 -0.6804  0.3066  0.8068
 2475TIP3    H128840   2.300   2.242  14.737  1.6578  1.6317  1.3913
 2475TIP3    H228841   2.400   2.224  14.624 -1.2298 -0.2642 -1.0376
 2476TIP3   OH228842   5.136   2.011  16.415  0.5668 -0.8318 -0.9007
 2476TIP3    H128843   5.156   2.013  16.321  0.9775  1.2584 -0.8220
 2476TIP3    H228844   5.213   2.051  16.456 -0.3182 -0.2095  0.1762
 2477TIP3   OH228845   0.227   2.173  16.274  0.1991 -0.2098  0.2676
 2477TIP3    H128846   0.268   2.111  16.213 -0.2720 -1.1101  0.8318
 2477TIP3    H228847   0.140   2.189  16.237  0.2310 -0.0744  0.2491
 2478TIP3   OH228848   6.573   2.928   3.493  0.3019  0.1540 -0.1768
 2478TIP3    H128849   6.520   3.003   3.467 -0.2467  0.4871  1.7477
 2478TIP3    H228850   6.564   2.924   3.588  0.3752 -2.3190 -0.2147
 2479TIP3   OH228851   2.540   4.723   1.619  0.3356 -0.2637  0.2312
 2479TIP3    H128852   2.544   4.788   1.689 -0.0521 -1.1942  1.1324
 2479TIP3    H228853   2.627   4.726   1.579  0.1057  1.3224 -0.2371
 2480TIP3   OH228854   6.440   1.913  12.798  0.2679  0.2464  0.0272
 2480TIP3    H128855   6.362   1.962  12.823  0.0034 -0.1812  0.0420
 2480TIP3    H228856   6.413   1.861  12.722  1.4886  2.7681 -2.3136
 2481TIP3   OH228857   3.244   2.442   6.294  0.2992  0.1127 -0.6369
 2481TIP3    H128858   3.255   2.495   6.372  1.2538  1.2388 -1.5024
 2481TIP3    H228859   3.251   2.351   6.325 -2.6744  0.3194  1.0970
 2482TIP3   OH228860   2.308   4.355   0.011 -0.0713 -0.1035  0.0902
 2482TIP3    H128861   2.325   4.262   0.025 -0.1586 -0.1491 -0.1052
 2482TIP3    H228862   2.233   4.357  -0.049  0.6912  0.0856 -0.8787
 2483TIP3   OH228863   0.941   1.207   3.450  0.1326 -0.4233  0.3833
 2483TIP3    H128864   0.888   1.163   3.517  1.6599 -2.0277  0.6388
 2483TIP3    H228865   0.942   1.146   3.376  0.5916  0.1339 -0.0778
 2484TIP3   OH228866   6.478   1.671   5.263  0.1658  0.3012 -0.3708
 2484TIP3    H128867   6.462   1.748   5.209 -1.2383 -0.2288 -0.7781
 2484TIP3    H228868   6.570   1.676   5.287  0.5619  1.1230 -1.9400
 2485TIP3   OH228869   2.931   6.380  16.691 -0.6779 -0.3278  0.1832
 2485TIP3    H128870   2.983   6.429  16.628  0.3532 -1.8988 -0.2221
 2485TIP3    H228871   2.908   6.445  16.758  0.1306  0.8382 -0.6302
 2486TIP3   OH228872   0.109   1.842   1.901 -0.5835  0.6382  0.3728
 2486TIP3    H128873   0.120   1.748   1.891  1.3879  0.7517  1.1524
 2486TIP3    H228874   0.141   1.879   1.819  1.5523  0.7451  1.1861
 2487TIP3   OH228875   2.852   1.790  14.843  0.6371  0.0806  0.1719
 2487TIP3    H128876   2.880   1.840  14.921  0.5566  0.6584 -0.1607
 2487TIP3    H228877   2.768   1.829  14.819  1.3585  0.9532 -1.0918
 2488TIP3   OH228878   0.476   0.729   4.645 -0.2110  0.4954  0.8065
 2488TIP3    H128879   0.537   0.801   4.629 -0.0296  0.5317  1.5910
 2488TIP3    H228880   0.527   0.666   4.697  0.3154 -1.2124 -1.6077
 2489TIP3   OH228881   2.120   0.574   2.490 -0.3044 -0.4965  0.2046
 2489TIP3    H128882   2.213   0.555   2.502 -0.0952  1.1583  1.4893
 2489TIP3    H228883   2.078   0.489   2.496  0.9636 -1.0805  1.4223
 2490TIP3   OH228884   5.056   0.662  14.518  0.4573 -0.1329 -0.0641
 2490TIP3    H128885   5.146   0.671  14.487  0.9890  1.9361  1.8309
 2490TIP3    H228886   5.065   0.635  14.609 -0.9507 -2.0032 -0.4189
 2491TIP3   OH228887   5.813   3.241   1.619 -0.3104  0.4737  0.3385
 2491TIP3    H128888   5.720   3.241   1.598 -0.3526 -0.6720  0.4675
 2491TIP3    H228889   5.818   3.273   1.709 -0.5317  0.9920  0.1679
 2492TIP3   OH228890   3.735   2.320  12.764  0.3005  0.5375 -0.3483
 2492TIP3    H128891   3.727   2.311  12.858  0.8456 -0.4023 -0.3821
 2492TIP3    H228892   3.787   2.245  12.736 -1.0017  0.0297 -1.5687
 2493TIP3   OH228893   6.336   5.053  14.817  0.0455 -0.0931 -0.2101
 2493TIP3    H128894   6.242   5.050  14.835  0.3280 -0.0780  1.4164
 2493TIP3    H228895   6.370   5.120  14.877  1.1951 -0.5963 -0.2646
 2494TIP3   OH228896   2.928   0.013  11.882  0.8647 -0.4773  0.4564
 2494TIP3    H128897   2.833   0.026  11.873  1.2771  1.7142 -1.7142
 2494TIP3    H228898   2.956   0.078  11.945  1.3411  1.5823 -1.7277
 2495TIP3   OH228899   4.133   4.322  12.476 -0.6735 -0.1339  0.3925
 2495TIP3    H128900   4.079   4.253  12.515 -1.0433  0.8677  1.7145
 2495TIP3    H228901   4.096   4.334  12.388 -0.6639 -1.5302  0.1699
 2496TIP3   OH228902   3.530   4.201  11.643  0.1956 -0.4866 -1.1426
 2496TIP3    H128903   3.553   4.273  11.702  0.1587 -0.6162 -0.9710
 2496TIP3    H228904   3.614   4.167  11.613  0.2650 -1.4391  0.0553
 2497TIP3   OH228905   1.940   2.119   2.365  0.2848 -0.8286  0.8112
 2497TIP3    H128906   1.901   2.146   2.448  0.2476 -0.9464  0.8325
 2497TIP3    H228907   1.866   2.111   2.305  0.4620  0.7310  0.3505
 2498TIP3   OH228908   5.515   4.377  12.306 -0.2667 -0.6740  0.5529
 2498TIP3    H128909   5.596   4.381  12.357  0.0215  0.1361  0.0424
 2498TIP3    H228910   5.449   4.346  12.368 -0.0510  0.8476  1.5842
 2499TIP3   OH228911   0.286   6.539  15.638 -0.3640  0.4706  0.5628
 2499TIP3    H128912   0.214   6.480  15.618 -0.3048  0.8415 -0.8262
 2499TIP3    H228913   0.359   6.482  15.660 -0.5560  0.0396  0.0980
 2500TIP3   OH228914   0.816   1.678  15.334 -0.4922 -0.0867 -0.1989
 2500TIP3    H128915   0.902   1.643  15.315 -0.8378  0.0081 -2.0901
 2500TIP3    H228916   0.761   1.601  15.347 -0.5010 -0.1964 -0.8428
 2501TIP3   OH228917   5.114   1.548   5.515 -0.2332  0.2325  0.0754
 2501TIP3    H128918   5.037   1.597   5.484 -0.1898  0.4826  0.3517
 2501TIP3    H228919   5.179   1.560   5.446  0.3806  2.0434  0.8905
 2502TIP3   OH228920   4.517   2.009  10.973 -0.2716  0.0393  0.1478
 2502TIP3    H128921   4.494   2.081  10.914  1.0931  0.9787  0.7027
 2502TIP3    H228922   4.551   1.941  10.915  1.3795  1.0802 -0.1640
 2503TIP3   OH228923   5.343   4.925  11.919 -0.1183  0.6966 -0.0269
 2503TIP3    H128924   5.284   4.879  11.979  0.6921  0.3249  0.5071
 2503TIP3    H228925   5.345   5.015  11.952  0.2102  0.5276  0.4299
 2504TIP3   OH228926   4.998   1.291  13.603 -0.8095  0.7954  0.8043
 2504TIP3    H128927   5.010   1.334  13.518 -0.2322 -0.2168  0.3505
 2504TIP3    H228928   5.052   1.212  13.598 -2.9398 -0.7822  1.0345
 2505TIP3   OH228929   2.510   4.534   2.264 -0.4725 -0.0361 -0.0874
 2505TIP3    H128930   2.483   4.625   2.246 -1.3422  0.2012  2.1595
 2505TIP3    H228931   2.605   4.535   2.252 -0.3867  1.3338  0.5090
 2506TIP3   OH228932   4.523   6.426   1.158  0.0016  0.0861 -0.4404
 2506TIP3    H128933   4.555   6.515   1.175  0.2781  0.0791 -0.8995
 2506TIP3    H228934   4.599   6.380   1.123 -0.5375  0.1059 -1.6834
 2507TIP3   OH228935   6.511   4.689  15.937  0.4238  0.3774 -0.1344
 2507TIP3    H128936   6.439   4.656  15.882  1.1280  0.3248 -1.0479
 2507TIP3    H228937   6.493   4.653  16.024 -0.7418  0.4947 -0.3112
 2508TIP3   OH228938   4.197   2.423   1.254  0.2301 -0.5679  0.2940
 2508TIP3    H128939   4.268   2.368   1.223  0.1777  0.6593 -2.2661
 2508TIP3    H228940   4.117   2.381   1.221  0.0957  0.2046 -0.4211
 2509TIP3   OH228941   4.990   1.949   4.489  0.2506  0.0903 -0.5389
 2509TIP3    H128942   4.942   2.029   4.511 -0.6985  0.1087 -2.4329
 2509TIP3    H228943   5.082   1.971   4.505 -0.0676  1.2828 -0.2724
 2510TIP3   OH228944   3.780   3.903  10.699  0.4289 -0.3515  0.0322
 2510TIP3    H128945   3.861   3.885  10.652 -0.5627 -0.7475 -1.6161
 2510TIP3    H228946   3.762   3.823  10.749  1.7954  0.2847  1.6665
 2511TIP3   OH228947   0.692   4.270   0.314 -0.7604  0.1569 -0.0852
 2511TIP3    H128948   0.696   4.364   0.299  0.1648  0.2525  0.6877
 2511TIP3    H228949   0.628   4.239   0.250  1.0101  0.9020 -2.4118
 2512TIP3   OH228950   3.131   0.495  12.735  0.3883  0.3255  0.0861
 2512TIP3    H128951   3.126   0.402  12.710 -0.0439  0.6815 -1.2115
 2512TIP3    H228952   3.218   0.523  12.706 -0.0191  0.6777 -0.8184
 2513TIP3   OH228953   0.788   6.201   1.297 -0.4278 -0.2572  0.5189
 2513TIP3    H128954   0.843   6.129   1.265 -0.9237 -0.8129  0.8974
 2513TIP3    H228955   0.834   6.234   1.374 -0.3416 -0.3538  0.5089
 2514TIP3   OH228956   4.882   1.847  12.219 -0.2807  0.1792 -0.4792
 2514TIP3    H128957   4.911   1.850  12.128 -0.2621  2.5222 -0.4688
 2514TIP3    H228958   4.934   1.777  12.259 -2.3716 -2.9809 -2.8642
 2515TIP3   OH228959   1.651   2.913  13.698  0.1627  0.4791 -0.5004
 2515TIP3    H128960   1.659   2.890  13.791  0.4464  0.9856 -0.3992
 2515TIP3    H228961   1.565   2.878  13.673 -0.0991  0.6953  0.0606
 2516TIP3   OH228962   4.060   6.444  16.666  0.3061  0.0113  0.0945
 2516TIP3    H128963   4.096   6.432  16.754  0.8941  0.1577 -0.1252
 2516TIP3    H228964   4.084   6.534  16.643  0.5808 -0.1941 -0.4145
 2517TIP3   OH228965   1.736   3.277  15.427 -0.5738  0.8084 -0.2252
 2517TIP3    H128966   1.765   3.253  15.339 -1.0504 -0.0897 -0.1509
 2517TIP3    H228967   1.747   3.372  15.431  1.7103  0.6094 -0.4222
 2518TIP3   OH228968   5.087   1.123   4.720 -0.2965  0.5861  0.1929
 2518TIP3    H128969   5.110   1.062   4.791  0.1015  1.4952  0.8584
 2518TIP3    H228970   5.090   1.069   4.641 -3.1036 -1.0522  1.0541
 2519TIP3   OH228971   1.043   4.173  12.233 -0.7059  0.2241 -0.4487
 2519TIP3    H128972   1.086   4.154  12.149 -1.0991 -1.9712 -0.2230
 2519TIP3    H228973   0.953   4.144  12.221 -1.4065  2.1242  0.0020
 2520TIP3   OH228974   1.971   2.440  12.021 -0.3435  0.0081  0.1103
 2520TIP3    H128975   1.961   2.504  11.951  0.8268  1.9639  1.5932
 2520TIP3    H228976   1.958   2.491  12.102  0.6151 -1.6249  1.3662
 2521TIP3   OH228977   0.739   5.659  12.344  0.2882  0.0204  0.0154
 2521TIP3    H128978   0.771   5.619  12.263 -2.2004  0.3278 -1.2097
 2521TIP3    H228979   0.700   5.741  12.317  0.8456  0.9255  1.8103
 2522TIP3   OH228980   5.536   0.878   0.197 -0.2116  0.1995 -0.3036
 2522TIP3    H128981   5.553   0.969   0.222  0.0828  0.1331 -0.2644
 2522TIP3    H228982   5.461   0.853   0.251 -1.6184  1.0604 -1.7720
 2523TIP3   OH228983   6.313   1.265   5.732  0.2528  0.2423 -0.1498
 2523TIP3    H128984   6.222   1.287   5.748 -0.3406 -1.0696 -1.4696
 2523TIP3    H228985   6.339   1.213   5.808 -0.3271  0.0237 -0.0976
 2524TIP3   OH228986   1.054   5.028  13.547 -0.2305 -0.1725 -0.6098
 2524TIP3    H128987   1.051   4.933  13.557 -0.7231 -0.0797  0.2253
 2524TIP3    H228988   0.963   5.053  13.528 -0.1804  0.1685 -0.4115
 2525TIP3   OH228989   3.954   4.812   6.575 -0.7128 -0.0189  0.5890
 2525TIP3    H128990   3.891   4.746   6.603 -2.2121  1.0068 -0.2318
 2525TIP3    H228991   3.972   4.791   6.483 -1.0872  0.6177  0.3646
 2526TIP3   OH228992   5.927   1.467   2.980  0.6956  0.1619 -0.2190
 2526TIP3    H128993   5.915   1.529   2.908  0.9216  1.1985  0.6132
 2526TIP3    H228994   5.864   1.397   2.963 -0.7776  1.4548 -0.2775
 2527TIP3   OH228995   1.109   5.912   0.762 -0.4356 -0.6658 -0.2264
 2527TIP3    H128996   1.061   5.902   0.844 -1.8472  1.7529 -0.6628
 2527TIP3    H228997   1.171   5.982   0.778  0.3334 -1.1940 -0.8061
 2528TIP3   OH228998   1.423   4.651   3.884  0.0101 -0.2720 -0.6814
 2528TIP3    H128999   1.373   4.730   3.863 -0.4122 -0.5847 -0.8724
 2528TIP3    H229000   1.481   4.639   3.809  1.2340  0.7558  0.0675
 2529TIP3   OH229001   0.566   3.031  15.935  0.1654  0.8034  0.1956
 2529TIP3    H129002   0.568   3.048  16.029  0.0540 -0.2937  0.4054
 2529TIP3    H229003   0.542   2.939  15.928  1.6491  0.4802 -0.8761
 2530TIP3   OH229004   0.559   6.509  16.738 -0.0800 -0.7014 -0.0242
 2530TIP3    H129005   0.566   6.468  16.652 -1.7709  1.3660 -1.2512
 2530TIP3    H229006   0.483   6.468  16.779 -0.0634 -0.7730 -0.0659
 2531TIP3   OH229007   2.867   2.608   4.409  0.2901 -0.0293 -0.4925
 2531TIP3    H129008   2.787   2.559   4.391 -1.6120  2.3089  1.0147
 2531TIP3    H229009   2.937   2.543   4.405 -1.4348 -1.8717 -3.4267
 2532TIP3   OH229010   4.838   5.777  16.697  1.1396  0.5511 -0.2017
 2532TIP3    H129011   4.785   5.761  16.619 -1.3174  1.9447  1.0966
 2532TIP3    H229012   4.853   5.689  16.734 -1.1075  0.1601 -0.1021
 2533TIP3   OH229013   2.955   0.523   5.851  1.0014 -0.2314  0.2074
 2533TIP3    H129014   3.033   0.517   5.795  0.9367  1.1776 -0.0643
 2533TIP3    H229015   2.883   0.535   5.790  0.6912 -0.4948  0.5170
 2534TIP3   OH229016   5.743   3.698  10.871  0.1378 -0.2803 -0.3074
 2534TIP3    H129017   5.827   3.719  10.828  1.7866 -0.3644  2.6069
 2534TIP3    H229018   5.687   3.773  10.851  2.0907  1.4959  0.4199
 2535TIP3   OH229019   0.907   6.155   6.013 -0.2334 -0.0095  0.3171
 2535TIP3    H129020   0.830   6.111   5.977  0.7418 -2.6846  1.2682
 2535TIP3    H229021   0.880   6.182   6.101 -1.0277  2.0292 -0.4803
 2536TIP3   OH229022   3.082   1.421  11.196 -0.0859  0.1740 -0.4868
 2536TIP3    H129023   3.012   1.416  11.131 -3.3741 -1.5155  2.8182
 2536TIP3    H229024   3.092   1.331  11.228  2.0940  0.7626  0.7151
 2537TIP3   OH229025   6.182   6.079   3.072 -0.1114 -0.0196  0.5988
 2537TIP3    H129026   6.128   6.157   3.083 -0.0087  0.0624  0.5335
 2537TIP3    H229027   6.220   6.089   2.984  0.7526  0.3936  1.0045
 2538TIP3   OH229028   5.998   1.167   4.297 -0.2661  0.1306  0.2035
 2538TIP3    H129029   5.990   1.209   4.383 -0.4690 -0.6785  0.5818
 2538TIP3    H229030   6.009   1.241   4.236  0.0626  0.7014  0.9351
 2539TIP3   OH229031   2.067   1.919  16.323  0.1623  0.5045 -0.6499
 2539TIP3    H129032   2.073   1.972  16.243 -0.4341 -1.1348 -1.8410
 2539TIP3    H229033   2.006   1.849  16.301 -1.1829  0.8070  1.7440
 2540TIP3   OH229034   1.069   4.896  14.351 -0.1811 -0.2256 -0.3799
 2540TIP3    H129035   0.982   4.883  14.389 -0.4210 -0.7138 -1.0758
 2540TIP3    H229036   1.095   4.983  14.379 -0.4173 -0.5119  0.7664
 2541TIP3   OH229037   1.294   5.768   6.103  0.7731 -0.7080  0.1924
 2541TIP3    H129038   1.256   5.684   6.078 -0.6014 -0.8664  2.5100
 2541TIP3    H229039   1.265   5.781   6.194  1.6211  1.8890  0.1647
 2542TIP3   OH229040   3.652   3.429  12.182  0.3415 -0.7357  0.1275
 2542TIP3    H129041   3.690   3.341  12.184 -0.2375 -0.9896  0.3260
 2542TIP3    H229042   3.686   3.472  12.260 -0.0859 -1.1027  0.5300
 2543TIP3   OH229043   1.828   5.354  14.886 -0.2321  0.1414  0.6019
 2543TIP3    H129044   1.787   5.381  14.968 -0.1060 -0.9140  1.0330
 2543TIP3    H229045   1.801   5.421  14.822 -0.1868  1.0690  1.5280
 2544TIP3   OH229046   4.681   6.156   3.913  0.0713 -0.1347 -0.2328
 2544TIP3    H129047   4.695   6.062   3.899 -3.3888 -0.8979  0.5229
 2544TIP3    H229048   4.712   6.172   4.002  1.3844 -0.3218 -0.6282
 2545TIP3   OH229049   1.120   0.779  13.107  0.3034  0.3034 -0.1877
 2545TIP3    H129050   1.203   0.804  13.067  0.2164 -1.1238 -1.3871
 2545TIP3    H229051   1.111   0.686  13.084 -0.3097 -0.2968  2.2582
 2546TIP3   OH229052   4.462   5.210   3.237 -0.3941  0.0012  0.6909
 2546TIP3    H129053   4.548   5.250   3.218 -0.4870 -0.4715 -0.8773
 2546TIP3    H229054   4.463   5.194   3.331  1.5784 -0.7554  0.5808
 2547TIP3   OH229055   6.698   6.420   1.547  0.4080 -0.3975 -0.3606
 2547TIP3    H129056   6.611   6.381   1.557  0.4078 -0.2020  0.4361
 2547TIP3    H229057   6.758   6.346   1.547  0.1257 -0.6920 -2.7732
 2548TIP3   OH229058   4.554   0.453   2.282 -0.0455  0.0870 -0.1127
 2548TIP3    H129059   4.614   0.446   2.356 -0.7347  0.4205  0.4856
 2548TIP3    H229060   4.521   0.364   2.269  0.5865 -0.1068 -0.4675
 2549TIP3   OH229061   6.405   0.168   2.314 -0.1713  0.1293 -0.2947
 2549TIP3    H129062   6.365   0.236   2.369 -0.0831  1.3853 -1.7141
 2549TIP3    H229063   6.499   0.175   2.333 -0.3578 -1.7817  1.8817
 2550TIP3   OH229064   1.405   2.249   2.126 -1.1229 -0.3946 -0.0338
 2550TIP3    H129065   1.413   2.172   2.183 -1.6952  1.1234  2.2132
 2550TIP3    H229066   1.463   2.314   2.166 -2.6804  1.2122 -0.2746
 2551TIP3   OH229067   6.058   5.131   0.353  0.5150  0.1385  0.2085
 2551TIP3    H129068   6.055   5.226   0.355  0.9609  0.1518  0.3640
 2551TIP3    H229069   5.979   5.103   0.398  1.1280  0.4349  1.5218
 2552TIP3   OH229070   5.567   4.556   3.626 -0.2286 -0.0955 -0.2229
 2552TIP3    H129071   5.619   4.500   3.569 -0.4798 -0.4429 -0.1092
 2552TIP3    H229072   5.514   4.608   3.565  0.3664  0.3809 -0.3463
 2553TIP3   OH229073   1.186   0.579  10.725 -0.0314  0.0521  0.0635
 2553TIP3    H129074   1.144   0.665  10.722  0.8944  0.8497  4.2333
 2553TIP3    H229075   1.261   0.586  10.667 -0.5778  1.6687 -0.4895
 2554TIP3   OH229076   0.940   6.024  11.592 -0.0836 -0.0370  0.5188
 2554TIP3    H129077   0.964   6.116  11.601 -0.7464  0.1452  0.4765
 2554TIP3    H229078   0.855   6.017  11.637 -0.3722 -0.4679 -0.0814
 2555TIP3   OH229079   3.629   5.521  11.486  0.2990  0.0903  0.3606
 2555TIP3    H129080   3.588   5.434  11.486  0.2786  0.0950  1.4213
 2555TIP3    H229081   3.692   5.517  11.414  0.2533 -0.7780  0.3562
 2556TIP3   OH229082   4.889   4.158   2.827 -0.9025  0.2305 -0.4506
 2556TIP3    H129083   4.930   4.181   2.743 -0.5230  1.8967  0.1353
 2556TIP3    H229084   4.830   4.085   2.806 -0.3780  0.2129 -2.0401
 2557TIP3   OH229085   3.678   0.906  15.812 -0.6988  0.1020  0.3335
 2557TIP3    H129086   3.739   0.891  15.884 -1.4620 -2.2672  0.5625
 2557TIP3    H229087   3.597   0.866  15.840 -0.9078 -1.2859 -1.9943
 2558TIP3   OH229088   5.544   4.036   5.134  0.1603 -0.0879 -0.0057
 2558TIP3    H129089   5.457   4.043   5.096  0.2321 -0.5893 -0.2734
 2558TIP3    H229090   5.531   3.987   5.216  0.3148 -1.0320 -0.5292
 2559TIP3   OH229091   1.426   5.365   2.196 -0.0680  0.4381 -0.2810
 2559TIP3    H129092   1.361   5.409   2.252 -0.4583 -1.1274  0.5397
 2559TIP3    H229093   1.375   5.326   2.125  0.4046  2.2343 -1.6891
 2560TIP3   OH229094   4.611   2.334   2.041  0.1446 -0.9840  0.2326
 2560TIP3    H129095   4.566   2.417   2.054  2.1377  0.1990 -0.0131
 2560TIP3    H229096   4.547   2.267   2.066 -1.2776  0.6331  1.0742
 2561TIP3   OH229097   3.797   2.429  10.587 -0.6501 -0.3321 -0.2888
 2561TIP3    H129098   3.777   2.517  10.555  1.9791  1.1305  1.7600
 2561TIP3    H229099   3.822   2.380  10.508 -0.9078  1.1355 -1.3140
 2562TIP3   OH229100   1.356   2.683  16.547 -0.0821 -1.0272  0.0970
 2562TIP3    H129101   1.356   2.634  16.464  0.7466 -0.1237 -0.4712
 2562TIP3    H229102   1.448   2.705  16.561 -0.5399  1.5754 -0.4356
 2563TIP3   OH229103   2.202   1.506   6.063 -0.8982 -0.1449  0.8637
 2563TIP3    H129104   2.208   1.597   6.091 -0.6180  0.7616 -1.8727
 2563TIP3    H229105   2.161   1.509   5.977  1.0797 -2.3896 -0.2864
 2564TIP3   OH229106   2.679   0.073   1.414 -0.2625  0.3479 -1.1955
 2564TIP3    H129107   2.608   0.115   1.366 -0.2685 -0.0947 -1.5864
 2564TIP3    H229108   2.698   0.132   1.487 -3.0536 -0.8625  0.7023
 2565TIP3   OH229109   1.718   5.618   4.829 -0.3842 -0.0683  0.2449
 2565TIP3    H129110   1.759   5.702   4.852  0.1560  0.3574 -2.0756
 2565TIP3    H229111   1.778   5.579   4.766 -1.6109 -1.3109 -0.1866
 2566TIP3   OH229112   4.787   0.257  14.870 -0.0142 -0.7514 -0.0561
 2566TIP3    H129113   4.876   0.263  14.835  0.1746 -0.8240  0.4078
 2566TIP3    H229114   4.798   0.223  14.959 -0.4503 -0.0768  0.2628
 2567TIP3   OH229115   3.280   4.650  15.074 -0.3794 -0.2167  0.3414
 2567TIP3    H129116   3.322   4.723  15.028 -2.1565  0.0082 -1.0499
 2567TIP3    H229117   3.301   4.573  15.022  1.4595 -0.7648  1.7877
 2568TIP3   OH229118   2.044   4.714   5.371 -0.3973 -0.2100 -0.0713
 2568TIP3    H129119   2.020   4.739   5.460  0.5603 -0.4900  0.2715
 2568TIP3    H229120   2.051   4.619   5.373 -1.1388 -0.2841 -0.6475
 2569TIP3   OH229121   3.311   5.866   2.158 -0.5204  0.1822  0.1026
 2569TIP3    H129122   3.237   5.811   2.181 -0.6246 -1.0525 -2.8281
 2569TIP3    H229123   3.278   5.925   2.090  1.4154 -1.5193 -2.5352
 2570TIP3   OH229124   5.522   0.991  12.744  0.8230 -0.2901 -0.6743
 2570TIP3    H129125   5.503   0.927  12.675 -1.6290 -1.0987  0.6234
 2570TIP3    H229126   5.469   0.962  12.818 -1.6649  3.9982 -0.4621
 2571TIP3   OH229127   1.803   4.280  15.708  0.3659 -0.1983  0.3728
 2571TIP3    H129128   1.825   4.191  15.735 -2.3323 -1.0112  0.2354
 2571TIP3    H229129   1.759   4.269  15.624 -0.3322  1.2210  0.5278
 2572TIP3   OH229130   0.990   2.376   4.914  0.5633 -0.0184 -0.1483
 2572TIP3    H129131   0.981   2.455   4.967 -0.8461 -0.9796  1.1274
 2572TIP3    H229132   1.014   2.408   4.827  1.0549  1.7268  0.5874
 2573TIP3   OH229133   4.661   6.497   3.205  0.0708  0.6443 -0.1461
 2573TIP3    H129134   4.578   6.525   3.243  0.0684  0.3669  0.0542
 2573TIP3    H229135   4.650   6.507   3.111  0.0925  1.3867 -0.0764
 2574TIP3   OH229136   2.777   3.335   5.017 -0.1695  0.3896  0.2519
 2574TIP3    H129137   2.772   3.399   5.088 -0.0324  1.6973 -0.8720
 2574TIP3    H229138   2.870   3.314   5.009 -0.2521 -0.2770  0.8656
 2575TIP3   OH229139   2.513   4.191  16.699 -0.5322 -0.5464 -0.3845
 2575TIP3    H129140   2.503   4.197  16.604 -1.5750  0.1429 -0.2432
 2575TIP3    H229141   2.454   4.258  16.734  0.9641  0.2813  0.7000
 2576TIP3   OH229142   6.375   3.121  10.913  0.0485  0.1639 -0.4179
 2576TIP3    H129143   6.372   3.100  11.006 -0.8475  0.1198 -0.4512
 2576TIP3    H229144   6.364   3.036  10.869 -0.4272  0.2916 -0.5554
 2577TIP3   OH229145   0.713   2.197  16.898 -0.0647 -0.4877 -0.1324
 2577TIP3    H129146   0.650   2.269  16.894 -2.5461 -2.5305 -0.2080
 2577TIP3    H229147   0.719   2.165  16.808  0.6093 -0.6977 -0.0160
 2578TIP3   OH229148   1.004   3.607  11.052 -0.5847 -0.7820 -0.0330
 2578TIP3    H129149   0.978   3.561  11.133  2.3721  1.0666  2.1924
 2578TIP3    H229150   1.085   3.562  11.025 -0.3136  0.0582 -0.6434
 2579TIP3   OH229151   0.319   6.442   4.817 -0.1730 -0.0335  0.2836
 2579TIP3    H129152   0.321   6.537   4.826  0.8123  0.1505 -1.5529
 2579TIP3    H229153   0.264   6.412   4.890 -1.6982  2.0256  0.0560
 2580TIP3   OH229154   4.788   1.227   2.784  0.3102 -0.0397  0.2101
 2580TIP3    H129155   4.791   1.323   2.794  1.0422  0.0008 -0.3002
 2580TIP3    H229156   4.870   1.206   2.740  0.3499 -0.9570  0.7101
 2581TIP3   OH229157   5.537   0.912  15.323  0.3248 -0.2122 -0.4961
 2581TIP3    H129158   5.453   0.871  15.345  0.4204 -0.4261 -0.5204
 2581TIP3    H229159   5.532   0.926  15.229 -0.1406  0.8305 -0.3352
 2582TIP3   OH229160   0.692   2.584  14.443  0.4278  0.0659  0.4089
 2582TIP3    H129161   0.742   2.544  14.515 -0.5422 -0.8195  0.6209
 2582TIP3    H229162   0.718   2.535  14.365  0.6084  0.2444  0.3570
 2583TIP3   OH229163   4.404   2.850  15.353 -0.0659 -0.0233 -0.1042
 2583TIP3    H129164   4.434   2.820  15.438  1.9846 -0.1166 -0.8182
 2583TIP3    H229165   4.379   2.941  15.367 -0.7522 -0.3347  0.7980
 2584TIP3   OH229166   4.075   3.146   0.600 -0.7857 -0.1106  0.4258
 2584TIP3    H129167   4.152   3.110   0.556  0.2014  1.9882  0.2673
 2584TIP3    H229168   4.015   3.169   0.529 -0.6923  0.0914  0.4123
 2585TIP3   OH229169   3.889   5.707  11.901  0.1142 -0.3637  0.6461
 2585TIP3    H129170   3.891   5.790  11.947 -3.3751 -0.0806  0.5868
 2585TIP3    H229171   3.837   5.724  11.822  0.1984 -2.3482  0.0923
 2586TIP3   OH229172   2.731   2.642  13.905 -0.3233 -0.2087 -0.3676
 2586TIP3    H129173   2.694   2.568  13.857 -0.8971  0.5089 -1.0528
 2586TIP3    H229174   2.800   2.675  13.849  0.8350 -1.0136  0.5270
 2587TIP3   OH229175   3.858   1.908  13.376 -0.1738  0.7577  0.0841
 2587TIP3    H129176   3.805   1.832  13.396 -0.4387  0.9553  0.1387
 2587TIP3    H229177   3.889   1.938  13.462  0.6786  0.1772 -0.0084
 2588TIP3   OH229178   6.543   4.721  11.712  0.0934 -0.0832 -0.6454
 2588TIP3    H129179   6.558   4.628  11.731 -2.9605 -0.3046  1.3666
 2588TIP3    H229180   6.472   4.720  11.647 -1.3137  0.7616  0.8076
 2589TIP3   OH229181   3.105   2.099   4.211 -0.1799  0.4158 -0.0779
 2589TIP3    H129182   3.062   2.185   4.205  1.1751  1.2684  1.6989
 2589TIP3    H229183   3.183   2.114   4.264  0.3969 -1.8306 -0.1747
 2590TIP3   OH229184   5.355   6.147   3.184  0.2576  0.3116 -0.4011
 2590TIP3    H129185   5.272   6.168   3.227 -0.3777 -2.3893 -0.1153
 2590TIP3    H229186   5.335   6.151   3.090  0.3550  1.5929 -0.3716
 2591TIP3   OH229187   5.967   0.095  14.490  0.3222 -0.1228 -0.6807
 2591TIP3    H129188   6.030   0.063  14.426  0.4069  2.4077 -1.9488
 2591TIP3    H229189   5.883   0.097  14.444 -0.2969 -1.3513  0.3198
 2592TIP3   OH229190   3.269   2.845  15.219  0.4170  0.0832 -0.5016
 2592TIP3    H129191   3.222   2.762  15.208 -0.5023  0.7035 -1.4391
 2592TIP3    H229192   3.217   2.893  15.283 -1.0984  1.3312 -2.5543
 2593TIP3   OH229193   6.312   2.023   2.452 -0.4350  0.2325  0.5300
 2593TIP3    H129194   6.383   1.975   2.494  0.6938 -0.0577 -1.5897
 2593TIP3    H229195   6.341   2.115   2.451 -1.0732  0.4563  1.5653
 2594TIP3   OH229196   2.663   6.561   5.345  0.1997  0.2803 -0.3536
 2594TIP3    H129197   2.757   6.563   5.326 -0.0112  0.9656 -1.4329
 2594TIP3    H229198   2.626   6.504   5.278 -0.2486  0.6128 -0.3903
 2595TIP3   OH229199   1.243   0.814  13.827 -0.1443  0.1300 -0.4069
 2595TIP3    H129200   1.316   0.779  13.776  0.9259  1.3292  0.2419
 2595TIP3    H229201   1.165   0.783  13.781  0.7499 -1.3080 -1.0349
 2596TIP3   OH229202   1.609   4.702  17.041 -0.2985  0.1310 -0.1977
 2596TIP3    H129203   1.602   4.714  17.136  0.4093  1.9886 -0.3322
 2596TIP3    H229204   1.576   4.614  17.025 -0.7157 -0.1041  1.7373
 2597TIP3   OH229205   2.299   3.123  16.375  0.0824 -0.4313  0.7501
 2597TIP3    H129206   2.207   3.122  16.349  0.4966 -1.4167 -0.8250
 2597TIP3    H229207   2.342   3.065  16.312  1.9597  0.8763  0.7514
 2598TIP3   OH229208   1.073   4.927   3.465 -0.0799 -0.0277 -0.1298
 2598TIP3    H129209   1.095   4.972   3.383  0.2883 -0.8285 -0.4807
 2598TIP3    H229210   1.023   4.850   3.437 -0.0450 -0.2481  0.4075
 2599TIP3   OH229211   1.379   2.940  14.628 -0.1179  0.3480  0.2612
 2599TIP3    H129212   1.414   3.029  14.633 -1.0163  0.6910  0.6868
 2599TIP3    H229213   1.347   2.932  14.538 -0.3987  0.6079  0.3347
 2600TIP3   OH229214   1.483   3.915  16.445  0.7771  0.0553  0.6548
 2600TIP3    H129215   1.426   3.889  16.518  0.9910  0.4363  0.9587
 2600TIP3    H229216   1.466   4.008  16.433 -0.1380 -0.2431 -0.5644
 2601TIP3   OH229217   3.032   1.604   2.781 -0.7303  0.5432 -0.1467
 2601TIP3    H129218   3.069   1.670   2.722 -0.0355 -0.3883 -0.7775
 2601TIP3    H229219   3.097   1.534   2.782  0.6527  1.5901  3.8160
 2602TIP3   OH229220   6.012   0.565   6.384  0.1181  0.6129 -0.3134
 2602TIP3    H129221   6.015   0.474   6.411 -0.4904  0.4153 -0.8762
 2602TIP3    H229222   6.102   0.596   6.392  0.1788  0.2047  0.6711
 2603TIP3   OH229223   5.056   3.891   6.134 -0.1912  0.1019  0.6452
 2603TIP3    H129224   4.966   3.893   6.166 -0.6431 -1.7872 -0.4214
 2603TIP3    H229225   5.087   3.803   6.154  0.5565 -0.1082 -1.2206
 2604TIP3   OH229226   2.728   2.010   2.397 -0.5587 -0.2057 -0.1218
 2604TIP3    H129227   2.783   1.968   2.463 -0.0869 -1.1760 -1.0833
 2604TIP3    H229228   2.646   1.960   2.399 -0.9604  0.4594  0.4653
 2605TIP3   OH229229   5.650   6.277   3.245  0.2298  0.2703  0.5126
 2605TIP3    H129230   5.732   6.243   3.211  0.2068 -0.6558  1.3133
 2605TIP3    H229231   5.587   6.207   3.228 -0.2058  0.6184  0.6765
 2606TIP3   OH229232   6.248   0.630  16.622 -0.6899  0.4360 -0.5938
 2606TIP3    H129233   6.204   0.713  16.640 -0.1201  0.6646 -0.2081
 2606TIP3    H229234   6.341   0.654  16.617 -0.6338  0.0506 -1.8404
 2607TIP3   OH229235   2.478   1.660   0.199  0.1359  0.1349 -0.2908
 2607TIP3    H129236   2.532   1.728   0.240  1.0157 -0.1875 -0.8704
 2607TIP3    H229237   2.437   1.704   0.124  1.3012 -0.1358 -1.1153
 2608TIP3   OH229238   1.105   6.313  14.717 -0.5913 -0.2257 -0.3257
 2608TIP3    H129239   1.154   6.236  14.687 -0.4497  0.3021 -1.4758
 2608TIP3    H229240   1.131   6.323  14.809  1.1166 -0.2232 -0.7755
 2609TIP3   OH229241   3.911   2.760   5.080 -0.0024 -0.1301 -0.4169
 2609TIP3    H129242   3.860   2.840   5.093 -0.7154 -0.7617  0.9289
 2609TIP3    H229243   3.998   2.781   5.115 -0.3225 -0.0759  0.3659
 2610TIP3   OH229244   1.297   1.374  12.899 -0.4910 -0.2891  0.2272
 2610TIP3    H129245   1.318   1.314  12.827  0.1339  0.4562 -0.2340
 2610TIP3    H229246   1.279   1.317  12.973 -2.2651 -1.1410 -0.7778
 2611TIP3   OH229247   5.518   6.605  11.373  1.0760  0.3278 -0.5646
 2611TIP3    H129248   5.578   6.672  11.340 -0.3526  1.9187 -0.0510
 2611TIP3    H229249   5.522   6.614  11.468 -0.8354  1.2583 -0.5510
 2612TIP3   OH229250   2.940   2.866  14.461  0.4004 -0.3236  0.7034
 2612TIP3    H129251   2.978   2.792  14.414  0.1769  0.4036 -0.6629
 2612TIP3    H229252   2.926   2.833  14.550  1.0253 -1.6663  0.3281
 2613TIP3   OH229253   6.711   4.989  12.874  0.1809 -0.2400 -0.2094
 2613TIP3    H129254   6.661   5.018  12.950  1.1625 -0.2309  0.4491
 2613TIP3    H229255   6.667   5.030  12.799 -1.7317 -1.4577  0.1726
 2614TIP3   OH229256   6.453   0.225   2.753 -0.3926  0.5623  0.3886
 2614TIP3    H129257   6.369   0.262   2.783 -0.0746 -0.0264  2.0488
 2614TIP3    H229258   6.469   0.151   2.810  1.7483  1.2281  0.7277
 2615TIP3   OH229259   4.450   2.386   3.274 -0.6550  0.4075 -0.1387
 2615TIP3    H129260   4.405   2.387   3.190  0.8096 -0.1706 -0.9743
 2615TIP3    H229261   4.383   2.410   3.338 -2.4014 -1.4282 -1.1651
 2616TIP3   OH229262   1.754   3.475  16.692 -0.0328 -0.1678  0.5014
 2616TIP3    H129263   1.691   3.460  16.621 -0.6635  1.1529  0.7678
 2616TIP3    H229264   1.701   3.482  16.771  0.7724 -3.4943  1.5053
 2617TIP3   OH229265   2.804   5.859  10.782 -0.1584 -0.2071  0.1414
 2617TIP3    H129266   2.779   5.946  10.750  1.7247 -0.1700 -1.3997
 2617TIP3    H229267   2.721   5.815  10.799 -1.2044  1.0878 -1.2953
 2618TIP3   OH229268   3.763   2.740  11.850  0.1218 -0.4479 -0.2397
 2618TIP3    H129269   3.792   2.655  11.816 -0.2557 -0.9487  0.6455
 2618TIP3    H229270   3.842   2.794  11.850  0.4581 -0.9317 -0.4205
 2619TIP3   OH229271   3.532   0.050  15.556 -0.2700  0.7583 -0.0901
 2619TIP3    H129272   3.621   0.015  15.550 -0.7542 -0.5582  0.2516
 2619TIP3    H229273   3.544   0.145  15.553  1.1990  0.6179  0.5005
 2620TIP3   OH229274   5.275   6.222  12.670 -0.3683 -0.2732 -0.1612
 2620TIP3    H129275   5.358   6.215  12.623 -0.8277 -1.0429 -0.8700
 2620TIP3    H229276   5.286   6.300  12.725  0.4431  0.2307 -1.0042
 2621TIP3   OH229277   4.001   0.021   4.636  0.2248  0.0833 -0.6257
 2621TIP3    H129278   4.088   0.006   4.673 -0.0301 -1.4737 -0.5657
 2621TIP3    H229279   3.988   0.115   4.641  2.0971  0.4061 -1.0608
 2622TIP3   OH229280   2.980   1.338  11.489  0.1236  0.4378 -0.1031
 2622TIP3    H129281   2.895   1.373  11.518  0.3523 -0.1542  1.3705
 2622TIP3    H229282   3.037   1.415  11.484 -0.1008  0.6513  0.4478
 2623TIP3   OH229283   1.000   1.186  16.009 -0.3650 -0.2412 -0.2400
 2623TIP3    H129284   0.952   1.266  15.986 -0.1868 -0.2222 -0.5558
 2623TIP3    H229285   0.976   1.169  16.100  0.0387  0.4866  0.0045
 2624TIP3   OH229286   2.468   1.104   0.169 -0.3176 -0.1923 -0.0935
 2624TIP3    H129287   2.455   1.163   0.243 -2.5941 -0.2154 -0.4024
 2624TIP3    H229288   2.491   1.162   0.097  0.6148 -0.0330  0.3204
 2625TIP3   OH229289   0.501   2.790  11.609  0.6970 -0.9694 -0.2372
 2625TIP3    H129290   0.486   2.716  11.668  0.0537 -0.5011  0.2087
 2625TIP3    H229291   0.585   2.771  11.567  1.6485 -0.8806  1.5200
 2626TIP3   OH229292   6.377   2.662   3.946  0.0834 -0.1625 -0.0947
 2626TIP3    H129293   6.315   2.706   4.003  1.1120  2.8004 -1.0777
 2626TIP3    H229294   6.426   2.603   4.004 -1.7982 -0.5605  1.1644
 2627TIP3   OH229295   5.922   4.951   5.580  0.4312  0.1152  0.2756
 2627TIP3    H129296   5.887   5.030   5.540  0.2998 -0.1841 -0.2160
 2627TIP3    H229297   5.959   4.901   5.507  0.9448 -0.0559  0.6459
 2628TIP3   OH229298   1.888   4.005   5.290 -0.4097  0.6752  0.2684
 2628TIP3    H129299   1.815   3.961   5.334 -0.1693  0.4748  0.4723
 2628TIP3    H229300   1.941   4.039   5.362  0.5341 -0.5391  0.1731
 2629TIP3   OH229301   0.307   2.689  15.839 -0.3866 -0.3951 -0.1292
 2629TIP3    H129302   0.355   2.771  15.851 -2.2948  0.6624  0.5541
 2629TIP3    H229303   0.371   2.631  15.796  1.2293  1.1896 -0.0060
 2630TIP3   OH229304   2.348   4.810  12.989 -0.4370 -0.4582 -0.2352
 2630TIP3    H129305   2.329   4.895  12.948  0.0733 -0.3474 -0.2421
 2630TIP3    H229306   2.430   4.781  12.949  1.0137  0.4532  1.8688
 2631TIP3   OH229307   3.583   0.328   3.103 -0.1108 -0.2970 -0.2071
 2631TIP3    H129308   3.658   0.276   3.071  1.1029  1.5514 -0.5381
 2631TIP3    H229309   3.570   0.298   3.193  0.6604 -1.0781 -0.3371
 2632TIP3   OH229310   6.660   6.446  11.434 -0.2970 -0.0771 -0.4150
 2632TIP3    H129311   6.753   6.454  11.411 -0.6529  2.0555 -1.3660
 2632TIP3    H229312   6.629   6.372  11.381  0.4713  0.3579 -1.5244
 2633TIP3   OH229313   0.081   2.006  15.448 -0.8606  0.1142 -0.3090
 2633TIP3    H129314   0.111   2.042  15.364  1.7260 -0.0324  0.4603
 2633TIP3    H229315   0.127   2.057  15.514  0.8150 -2.6898  0.8854
 2634TIP3   OH229316   1.884   6.111   1.413 -0.5425  0.2754  0.3461
 2634TIP3    H129317   1.891   6.168   1.490  2.4885  0.4252  0.0807
 2634TIP3    H229318   1.911   6.166   1.340 -1.0424 -0.5492 -0.4780
 2635TIP3   OH229319   0.229   5.082  15.439  0.4495 -0.0496  0.0305
 2635TIP3    H129320   0.238   4.989  15.419  0.1774 -0.4500  1.6856
 2635TIP3    H229321   0.319   5.111  15.458  0.7155  0.3415 -1.6094
 2636TIP3   OH229322   2.768   4.524  12.610  0.0255 -0.8253  0.5418
 2636TIP3    H129323   2.763   4.542  12.704 -0.4090  2.1157  0.0508
 2636TIP3    H229324   2.688   4.474  12.592 -1.3174  0.9334  1.3338
 2637TIP3   OH229325   3.332   6.613   0.604 -0.1799  0.2639 -0.5305
 2637TIP3    H129326   3.416   6.658   0.592  1.9818 -3.5137 -1.1661
 2637TIP3    H229327   3.320   6.563   0.524 -1.6837 -1.3060  0.6084
 2638TIP3   OH229328   4.016   2.562   6.051  0.0023 -0.5744  0.7159
 2638TIP3    H129329   4.019   2.593   6.142 -0.5003  0.5786  0.3528
 2638TIP3    H229330   3.939   2.506   6.047 -1.0704  0.8435  0.5816
 2639TIP3   OH229331   1.564   6.108   4.012  0.3046 -0.4994 -0.1259
 2639TIP3    H129332   1.540   6.135   4.101  0.4401 -0.3849 -0.1252
 2639TIP3    H229333   1.550   6.013   4.012 -0.6328 -0.3684 -0.2693
 2640TIP3   OH229334   6.304   2.967  11.735  0.7699  0.6209 -0.5463
 2640TIP3    H129335   6.211   2.950  11.728  0.7993  0.3079 -0.1852
 2640TIP3    H229336   6.346   2.887  11.704  0.9009 -0.5985  2.5038
 2641TIP3   OH229337   6.721   6.520   0.841 -0.9150  0.1142  0.4043
 2641TIP3    H129338   6.780   6.498   0.769 -0.8867  0.4638  0.3233
 2641TIP3    H229339   6.755   6.470   0.915 -0.0553  0.9085  0.5567
 2642TIP3   OH229340   5.050   5.810  12.760 -0.0442  0.0181  0.5286
 2642TIP3    H129341   5.106   5.841  12.689  0.4740 -1.0094  0.4694
 2642TIP3    H229342   4.971   5.778  12.715  0.1860 -0.4194  0.4346
 2643TIP3   OH229343   5.497   6.778  16.181 -0.0003  0.4670  0.1869
 2643TIP3    H129344   5.522   6.759  16.272 -0.1596  0.3740  0.2124
 2643TIP3    H229345   5.569   6.744  16.128 -0.2904 -0.2225  0.2262
 2644TIP3   OH229346   2.050   3.330  12.171 -0.2952  0.0884 -0.8897
 2644TIP3    H129347   2.043   3.295  12.259  0.7453  0.8897 -0.4754
 2644TIP3    H229348   2.063   3.424  12.183 -1.1977  0.3795 -1.9270
 2645TIP3   OH229349   2.557   1.298  13.416 -0.2984  0.3633  0.8409
 2645TIP3    H129350   2.582   1.320  13.506 -0.1701  0.4793  0.7773
 2645TIP3    H229351   2.561   1.382  13.370 -0.1073  0.2575  0.6665
 2646TIP3   OH229352   5.450   6.598  16.921  0.8442  0.1201  0.0406
 2646TIP3    H129353   5.370   6.577  16.971  0.1471 -2.6372 -1.9911
 2646TIP3    H229354   5.518   6.547  16.964  0.7448 -0.3339 -0.3297
 2647TIP3   OH229355   3.010   1.249  13.708  0.0071  0.6075 -0.1029
 2647TIP3    H129356   2.995   1.334  13.748 -2.0331 -0.0508  0.6730
 2647TIP3    H229357   3.029   1.191  13.781 -0.1206  0.0997 -0.4640
 2648TIP3   OH229358   4.573   1.283   5.196  0.1742 -0.6024 -1.0760
 2648TIP3    H129359   4.484   1.297   5.164  0.5408  1.6917 -1.2330
 2648TIP3    H229360   4.568   1.201   5.245 -1.9341 -0.7126 -1.3905
 2649TIP3   OH229361   5.168   5.317   1.139  0.0747  0.1192  0.0469
 2649TIP3    H129362   5.111   5.358   1.204 -0.3391  0.2301 -0.3795
 2649TIP3    H229363   5.108   5.287   1.071  0.3506 -1.2919  0.3893
 2650TIP3   OH229364   0.937   3.277   5.417 -0.1165 -1.0355  0.6466
 2650TIP3    H129365   0.846   3.282   5.387  0.8385  1.2999 -2.3104
 2650TIP3    H229366   0.935   3.212   5.487 -3.6571 -2.7286 -0.7606
 2651TIP3   OH229367   3.717   1.725   2.326  0.1418 -0.0695  0.3935
 2651TIP3    H129368   3.685   1.814   2.310 -1.1192 -0.6822 -0.6461
 2651TIP3    H229369   3.640   1.670   2.316  1.2851 -1.4963 -1.0523
 2652TIP3   OH229370   3.447   2.738  10.982  0.1442  0.3374 -0.0445
 2652TIP3    H129371   3.541   2.754  10.981  0.0041  1.2208  0.1254
 2652TIP3    H229372   3.423   2.727  10.890  0.4521 -0.1330 -0.0702
 2653TIP3   OH229373   5.645   0.853  12.136 -0.2690 -0.5319 -0.6119
 2653TIP3    H129374   5.666   0.897  12.218 -1.1511  1.0582 -1.2156
 2653TIP3    H229375   5.580   0.787  12.160  1.7457 -2.2522  0.4553
 2654TIP3   OH229376   3.419   2.730  11.246  0.1445  0.2598  0.5225
 2654TIP3    H129377   3.432   2.825  11.252 -0.8543  0.4988 -0.6498
 2654TIP3    H229378   3.431   2.711  11.153 -0.7662 -0.5754  0.5605
 2655TIP3   OH229379   4.070   4.432  15.329 -0.4902  0.0628  0.2963
 2655TIP3    H129380   3.993   4.397  15.283 -0.1523 -2.8395  1.6932
 2655TIP3    H229381   4.041   4.444  15.419  0.2311  0.6387  0.4547
 2656TIP3   OH229382   5.376   5.205  11.939 -0.2385 -0.4719 -0.1002
 2656TIP3    H129383   5.366   5.238  12.028 -1.7811  1.5459 -0.9459
 2656TIP3    H229384   5.348   5.278  11.883  0.2809 -1.8234 -2.2390
 2657TIP3   OH229385   3.101   0.672  16.865  0.2194 -0.9763 -0.2109
 2657TIP3    H129386   3.048   0.748  16.887 -0.1365 -0.8747 -1.3532
 2657TIP3    H229387   3.180   0.681  16.918  0.6199  0.7093 -1.0429
 2658TIP3   OH229388   0.375   3.385  11.630  0.5084 -0.5737  0.3916
 2658TIP3    H129389   0.323   3.364  11.553 -2.4784  0.4397  1.9409
 2658TIP3    H229390   0.378   3.303  11.680 -1.1728 -0.2864  1.0534
 2659TIP3   OH229391   6.106   4.464  11.385  0.3468 -0.2492 -0.0668
 2659TIP3    H129392   6.022   4.506  11.406  0.5865  1.5629 -2.4377
 2659TIP3    H229393   6.170   4.534  11.393  1.6815 -1.5628  1.4457
 2660TIP3   OH229394   0.951   6.372  12.118  0.1630  0.0889  0.4243
 2660TIP3    H129395   0.985   6.457  12.088  0.6207 -0.2511 -0.0383
 2660TIP3    H229396   1.022   6.335  12.170  1.2758 -1.3863 -1.9422
 2661TIP3   OH229397   0.658   2.150  15.075 -0.5579  0.4707  0.4289
 2661TIP3    H129398   0.682   2.105  15.156 -2.0870  0.3056  0.8213
 2661TIP3    H229399   0.629   2.079  15.017 -0.3265  0.6857  0.0435
 2662TIP3   OH229400   1.659   0.180   2.196  0.2569  0.1476 -0.1603
 2662TIP3    H129401   1.590   0.119   2.170 -0.3859  0.1743  1.3859
 2662TIP3    H229402   1.624   0.267   2.177 -0.0237  0.1498  0.3652
 2663TIP3   OH229403   2.519   6.782   1.892  0.0576 -0.0886 -0.3131
 2663TIP3    H129404   2.553   6.859   1.936  1.5404  0.6866 -2.6336
 2663TIP3    H229405   2.510   6.716   1.961  0.4096  1.6049  1.4151
 2664TIP3   OH229406   4.553   6.392   0.645 -0.0932  0.4095 -0.5604
 2664TIP3    H129407   4.543   6.484   0.619 -2.0257  1.0118  1.9460
 2664TIP3    H229408   4.612   6.395   0.720  0.1731 -0.4591 -0.7289
 2665TIP3   OH229409   1.160   3.756   3.609 -0.3480 -0.8645 -0.4885
 2665TIP3    H129410   1.159   3.686   3.674 -0.3132 -1.3665 -1.0146
 2665TIP3    H229411   1.111   3.828   3.649  0.5010 -0.7967  0.4783
 2666TIP3   OH229412   0.409   3.658  11.631 -0.0378 -0.3905  0.3624
 2666TIP3    H129413   0.379   3.571  11.607  1.9105 -0.4396 -2.4057
 2666TIP3    H229414   0.488   3.643  11.683  0.5411 -0.3358 -0.4724
 2667TIP3   OH229415   4.726   5.233   2.428  0.1859  0.4506  0.7310
 2667TIP3    H129416   4.790   5.174   2.387 -1.2363 -0.2018 -0.6818
 2667TIP3    H229417   4.729   5.312   2.375 -0.3669  0.3043  0.4729
 2668TIP3   OH229418   2.388   4.651  15.395  0.3512  0.3906  0.2174
 2668TIP3    H129419   2.393   4.605  15.478 -0.1402  0.0013  0.0362
 2668TIP3    H229420   2.344   4.733  15.415 -0.1721  0.1041  0.2707
 2669TIP3   OH229421   1.679   4.888  16.540  0.4703 -0.2167 -0.6065
 2669TIP3    H129422   1.772   4.899  16.557  0.6891 -0.4226 -1.6437
 2669TIP3    H229423   1.637   4.955  16.594  1.0116 -1.7530  1.8744
 2670TIP3   OH229424   4.722   0.020  11.117  0.8454 -0.5746  0.1567
 2670TIP3    H129425   4.638   0.002  11.075  0.2013  0.1114  1.1173
 2670TIP3    H229426   4.729   0.116  11.115  1.3782 -0.6039  0.5119
 2671TIP3   OH229427   2.522   4.943  15.031 -0.3042  0.0442 -0.4643
 2671TIP3    H129428   2.610   4.967  15.057 -0.8539  1.3090  0.3082
 2671TIP3    H229429   2.517   4.967  14.938  0.3835 -0.7245 -0.7072
 2672TIP3   OH229430   4.320   3.105  12.825 -0.0270  0.3931 -0.1754
 2672TIP3    H129431   4.301   3.142  12.912  0.2499  0.2592 -0.0568
 2672TIP3    H229432   4.271   3.023  12.822 -0.4225  0.6368 -0.3320
 2673TIP3   OH229433   4.224   2.051   1.221  0.7785  0.4057 -0.2735
 2673TIP3    H129434   4.133   2.021   1.222  0.8406  0.2268 -0.0393
 2673TIP3    H229435   4.247   2.061   1.313  1.1724 -0.0712 -0.3193
 2674TIP3   OH229436   0.571   2.989  13.298  0.4963 -0.4540  0.1409
 2674TIP3    H129437   0.523   2.908  13.317 -2.7931  1.3574  0.2090
 2674TIP3    H229438   0.524   3.057  13.345  0.7180  2.0857 -2.9494
 2675TIP3   OH229439   6.778   3.166   0.059 -0.4433 -1.0230  0.1313
 2675TIP3    H129440   6.748   3.101  -0.004 -2.5527  0.1573 -0.1931
 2675TIP3    H229441   6.699   3.195   0.103  0.6367  0.1824  1.3822
 2676TIP3   OH229442   0.223   0.018  16.071  0.6019  0.0283 -0.4703
 2676TIP3    H129443   0.158  -0.048  16.050  2.7176 -2.2780 -0.2570
 2676TIP3    H229444   0.303  -0.032  16.091  2.4387  2.6614 -0.6424
 2677TIP3   OH229445   4.013   6.549   0.628 -0.8202  0.1795 -0.5217
 2677TIP3    H129446   4.033   6.623   0.685 -0.4097  0.6235 -1.2305
 2677TIP3    H229447   4.057   6.569   0.546 -0.2384 -1.1097 -0.5505
 2678TIP3   OH229448   4.513   0.746  16.358  0.4092  0.1936  0.8906
 2678TIP3    H129449   4.529   0.748  16.453  0.2476  0.4043  0.9129
 2678TIP3    H229450   4.419   0.759  16.350  0.7421  3.1875  0.5945
 2679TIP3   OH229451   3.301   3.102  10.429  0.0362  0.4679 -0.1664
 2679TIP3    H129452   3.233   3.145  10.376  2.1410  0.0911 -3.4331
 2679TIP3    H229453   3.279   3.009  10.424 -0.6099  0.5387  1.0073
 2680TIP3   OH229454   6.142   5.792  15.361 -0.4990 -0.2467  0.0546
 2680TIP3    H129455   6.225   5.839  15.363 -1.0600  0.9540 -2.1848
 2680TIP3    H229456   6.122   5.782  15.267 -1.9177 -2.2607  0.5009
 2681TIP3   OH229457   6.112   0.303   3.599 -0.3821 -0.3526  0.1142
 2681TIP3    H129458   6.053   0.343   3.534  2.2364  1.2482 -1.4473
 2681TIP3    H229459   6.154   0.378   3.641  0.2489 -1.4453  1.4772
 2682TIP3   OH229460   1.513   1.004   5.868  0.2077 -0.0488 -0.0660
 2682TIP3    H129461   1.546   0.917   5.889 -0.4633 -0.1668  0.5803
 2682TIP3    H229462   1.492   1.042   5.954 -2.6383 -0.5292 -0.4273
 2683TIP3   OH229463   6.417   6.771  12.354 -0.4655  0.3369  0.0616
 2683TIP3    H129464   6.336   6.822  12.355 -1.3156 -0.9740 -0.1515
 2683TIP3    H229465   6.406   6.711  12.280 -0.8397 -2.2578  2.1076
 2684TIP3   OH229466   2.096   3.004   1.608 -0.2543  0.2891  0.2801
 2684TIP3    H129467   2.120   2.954   1.687 -0.9908  0.4560  0.6166
 2684TIP3    H229468   2.180   3.029   1.569  0.1362 -0.9031  0.3006
 2685TIP3   OH229469   5.779   6.287   0.879  0.0853 -0.3946 -0.5578
 2685TIP3    H129470   5.699   6.288   0.930  0.0460 -2.2909 -0.5066
 2685TIP3    H229471   5.809   6.196   0.883  2.1129  0.2037 -0.7686
 2686TIP3   OH229472   0.006   3.694  16.268 -0.3287 -0.2698  0.9492
 2686TIP3    H129473   0.018   3.776  16.316  2.3990  0.0593 -0.0893
 2686TIP3    H229474  -0.088   3.686  16.256 -0.6828  2.7879  0.9903
 2687TIP3   OH229475   6.476   1.075  11.892 -0.0595  0.3563  0.2228
 2687TIP3    H129476   6.569   1.094  11.899  0.5177 -2.6753  2.1390
 2687TIP3    H229477   6.467   1.029  11.809  0.2612  0.1123  0.3224
 2688TIP3   OH229478   5.167   4.843  15.886 -0.2070 -0.3657 -0.2589
 2688TIP3    H129479   5.207   4.795  15.959 -2.5808  0.4671  1.7749
 2688TIP3    H229480   5.124   4.776  15.833  0.8846 -0.9150 -0.4722
 2689TIP3   OH229481   5.330   6.609   3.165  0.6118 -0.3060 -0.4760
 2689TIP3    H129482   5.357   6.641   3.079 -0.5146  1.1668 -0.3130
 2689TIP3    H229483   5.412   6.587   3.210  1.1966 -1.6636 -2.0989
 2690TIP3   OH229484   2.454   4.802   2.294 -0.0098  0.2062 -0.9893
 2690TIP3    H129485   2.512   4.780   2.367 -1.2563  1.6916  0.5216
 2690TIP3    H229486   2.480   4.890   2.267 -2.8541  1.8908  1.2288
 2691TIP3   OH229487   1.928   0.164   2.020  0.1118  0.0049 -0.5602
 2691TIP3    H129488   1.954   0.159   1.928 -0.2706 -2.0269 -0.6000
 2691TIP3    H229489   1.832   0.156   2.018  0.1169 -0.2374  0.0256
 2692TIP3   OH229490   0.255   5.999   0.866 -0.2840 -0.3796 -0.1277
 2692TIP3    H129491   0.337   6.012   0.818  0.5763  0.5797  1.5074
 2692TIP3    H229492   0.272   5.922   0.921 -0.3237  0.0349  0.4799
 2693TIP3   OH229493   1.299   5.958  16.861  0.1830  0.1593  0.2799
 2693TIP3    H129494   1.236   5.917  16.920  0.2842 -0.2833  0.0812
 2693TIP3    H229495   1.308   6.048  16.895 -2.4615  1.0780 -1.1839
 2694TIP3   OH229496   5.281   6.630  14.331 -0.5436 -0.3878  0.2509
 2694TIP3    H129497   5.326   6.648  14.249  0.3221 -1.9487  0.3637
 2694TIP3    H229498   5.190   6.657  14.315 -0.2600 -0.1582 -1.0203
 2695TIP3   OH229499   4.716   5.774   5.676  0.0522 -0.1914  0.3180
 2695TIP3    H129500   4.795   5.817   5.710 -0.2273  0.3486  0.2781
 2695TIP3    H229501   4.735   5.759   5.583 -0.4772  1.2963 -0.0484
 2696TIP3   OH229502   6.029   2.909   1.784 -0.0251 -0.2338  0.5432
 2696TIP3    H129503   6.108   2.910   1.838  0.2190  0.1968  0.1793
 2696TIP3    H229504   6.037   2.985   1.727  0.3945 -1.4663 -1.0969
 2697TIP3   OH229505   0.486   4.762  10.480  0.2084  0.1961 -0.1739
 2697TIP3    H129506   0.558   4.790  10.536  1.3127  0.4237 -1.6530
 2697TIP3    H229507   0.523   4.694  10.424 -1.2387 -1.0140  0.2769
 2698TIP3   OH229508   5.808   1.726  15.671 -0.4321 -0.1900 -0.2053
 2698TIP3    H129509   5.836   1.639  15.699 -0.2888  0.1142  0.6340
 2698TIP3    H229510   5.713   1.719  15.661 -0.4133 -0.4630 -0.1980
 2699TIP3   OH229511   3.007   4.731  11.805 -0.0990  0.4795  0.2945
 2699TIP3    H129512   3.016   4.826  11.795 -0.4124  0.6698  1.6084
 2699TIP3    H229513   2.995   4.698  11.716  0.8622  1.5740 -0.2637
 2700TIP3   OH229514   1.466   6.392   3.100  0.5572 -0.0904  0.2105
 2700TIP3    H129515   1.474   6.457   3.031 -0.6271  0.3420  0.4489
 2700TIP3    H229516   1.482   6.440   3.181 -0.5545 -0.0271  0.4045
 2701TIP3   OH229517   0.326   5.942  12.769 -0.3914  0.4054 -0.9058
 2701TIP3    H129518   0.412   5.903  12.754  0.1726  0.0687  2.3916
 2701TIP3    H229519   0.334   5.985  12.855 -3.4104  0.6984 -0.6654
 2702TIP3   OH229520   3.096   5.643   3.754 -0.3047  0.4056  0.0031
 2702TIP3    H129521   3.064   5.677   3.838 -1.7468 -0.3711 -0.1939
 2702TIP3    H229522   3.025   5.587   3.723  0.9476 -0.7322 -0.8928
 2703TIP3   OH229523   0.798   4.424   1.846  0.0053 -0.4678  0.5241
 2703TIP3    H129524   0.871   4.444   1.787 -0.4562  0.5655  0.2831
 2703TIP3    H229525   0.824   4.460   1.930  0.9287 -2.4712  1.1564
 2704TIP3   OH229526   6.098   5.212  11.673  0.0606  0.7502  0.3612
 2704TIP3    H129527   6.140   5.255  11.747 -0.1718  0.1809  0.8280
 2704TIP3    H229528   6.146   5.130  11.662 -0.8213  0.1544  0.8176
 2705TIP3   OH229529   5.459   4.102   0.955 -0.1302  0.4991 -0.6488
 2705TIP3    H129530   5.417   4.016   0.961  0.2881  0.3394  0.0850
 2705TIP3    H229531   5.398   4.161   0.999 -0.7930  0.7412 -1.8271
 2706TIP3   OH229532   4.762   0.817   6.278 -0.1812 -0.2842 -0.3825
 2706TIP3    H129533   4.719   0.840   6.195  0.7882 -0.2483 -0.8895
 2706TIP3    H229534   4.771   0.901   6.324 -0.8329 -0.3211 -0.1688
 2707TIP3   OH229535   5.799   1.880  13.913 -0.3645  0.2333 -0.0722
 2707TIP3    H129536   5.838   1.802  13.872 -1.5930  0.3447 -1.5457
 2707TIP3    H229537   5.709   1.855  13.933 -0.6559  1.1443 -0.1970
 2708TIP3   OH229538   0.586   6.543  12.765  0.1156  0.1713 -0.2511
 2708TIP3    H129539   0.666   6.499  12.736  0.6653  1.2657 -0.4385
 2708TIP3    H229540   0.516   6.478  12.752  0.9426 -0.7408 -0.2234
 2709TIP3   OH229541   5.144   6.539  15.160  0.4513  0.0901 -0.0255
 2709TIP3    H129542   5.095   6.547  15.078 -1.6809  1.3415  1.2885
 2709TIP3    H229543   5.159   6.445  15.170 -3.2230 -0.6109  0.2662
 2710TIP3   OH229544   6.651   1.041  16.764  0.2019 -0.6384  0.0322
 2710TIP3    H129545   6.689   0.953  16.766  0.0365 -0.7389 -0.7916
 2710TIP3    H229546   6.562   1.029  16.798 -0.2798 -1.0406 -1.3411
 2711TIP3   OH229547   4.434   4.736  14.019  0.8414 -0.1359 -0.3286
 2711TIP3    H129548   4.511   4.740  13.962 -0.2479 -1.2608 -1.9737
 2711TIP3    H229549   4.404   4.645  14.011 -0.8140  0.3441  0.0288
 2712TIP3   OH229550   1.705   2.170   2.178  0.1158  0.1343 -0.4992
 2712TIP3    H129551   1.748   2.235   2.121  0.7198 -2.6238 -3.4818
 2712TIP3    H229552   1.614   2.170   2.149 -0.2617  0.7200  0.6289
 2713TIP3   OH229553   1.930   0.489  11.353 -0.2006  0.2811  0.0688
 2713TIP3    H129554   1.920   0.451  11.440 -0.1995  1.2293  0.4997
 2713TIP3    H229555   2.014   0.535  11.357 -0.2602  0.4340 -0.3902
 2714TIP3   OH229556   5.629   5.928   4.608 -0.2760  0.1583 -0.0446
 2714TIP3    H129557   5.615   5.834   4.619 -1.2932  0.2159 -0.7678
 2714TIP3    H229558   5.547   5.961   4.572  0.2616  1.2386 -0.3261
 2715TIP3   OH229559   3.629   3.860   5.377 -0.7501  0.0547 -0.7440
 2715TIP3    H129560   3.604   3.917   5.304 -0.5820  3.0019  1.3346
 2715TIP3    H229561   3.554   3.863   5.436  0.1181 -0.1704  0.3982
 2716TIP3   OH229562   1.669   0.573  14.330 -0.1143  0.0415  0.4793
 2716TIP3    H129563   1.716   0.607  14.406 -0.3109 -1.2918  1.2248
 2716TIP3    H229564   1.611   0.645  14.303  0.3007  0.6929  1.2925
 2717TIP3   OH229565   1.528   1.787   5.089 -0.0979 -0.0813 -0.4359
 2717TIP3    H129566   1.545   1.795   5.183 -1.3689 -1.1386 -0.0890
 2717TIP3    H229567   1.570   1.704   5.064 -0.3580 -0.1474 -0.6603
 2718TIP3   OH229568   3.781   4.955   0.109  0.0353  0.4533 -0.5174
 2718TIP3    H129569   3.854   4.957   0.048 -0.9326  0.4403 -1.7358
 2718TIP3    H229570   3.703   4.963   0.053 -0.8698  1.3296  0.7865
 2719TIP3   OH229571   5.530   3.006  16.564 -0.4669 -0.0312 -0.4137
 2719TIP3    H129572   5.594   2.936  16.548 -1.6085 -0.9849 -0.9529
 2719TIP3    H229573   5.580   3.087  16.553  0.4910 -0.7383 -1.5706
 2720TIP3   OH229574   2.665   0.905  15.493 -0.2075  0.1828 -0.2541
 2720TIP3    H129575   2.725   0.886  15.420 -0.3815 -0.4123 -0.2442
 2720TIP3    H229576   2.631   0.992  15.473  1.7352  1.1752  0.4569
 2721TIP3   OH229577   4.359   5.340   0.891  0.2162 -0.2325  0.0721
 2721TIP3    H129578   4.350   5.339   0.795  1.1002 -1.8130 -0.0262
 2721TIP3    H229579   4.276   5.304   0.923  0.2003 -0.3762 -0.1260
 2722TIP3   OH229580   1.468   1.929  11.401  0.1178 -0.1011 -0.0247
 2722TIP3    H129581   1.542   1.910  11.459 -0.6762  1.5729  1.6254
 2722TIP3    H229582   1.397   1.874  11.433 -0.3716  0.9495  0.7520
 2723TIP3   OH229583   3.214   5.689  12.235  0.0046 -0.3728 -0.5883
 2723TIP3    H129584   3.274   5.616  12.249 -0.2145 -0.0522  2.6189
 2723TIP3    H229585   3.269   5.758  12.197  1.3699 -0.5725  0.9232
 2724TIP3   OH229586   5.928   2.088  14.952 -0.0316 -0.1001  0.0508
 2724TIP3    H129587   5.838   2.056  14.957  0.3402 -1.7030 -1.9525
 2724TIP3    H229588   5.929   2.167  15.006 -2.1271 -1.0984  1.6706
 2725TIP3   OH229589   2.296   5.206  12.063  0.1196 -0.2387  0.1254
 2725TIP3    H129590   2.218   5.259  12.080  0.0940  0.0406 -0.8083
 2725TIP3    H229591   2.354   5.224  12.137 -0.5367 -0.1383  0.6246
 2726TIP3   OH229592   3.671   4.489  13.476  0.1280 -0.0441 -0.0216
 2726TIP3    H129593   3.664   4.574  13.432 -0.1229  0.8199  1.6072
 2726TIP3    H229594   3.642   4.426  13.410 -0.3436  1.1969 -1.0527
 2727TIP3   OH229595   3.341   1.792  15.613  0.2384  0.2380  0.0426
 2727TIP3    H129596   3.403   1.735  15.568 -0.4254  0.3198 -1.0171
 2727TIP3    H229597   3.255   1.762  15.583 -0.1918  0.8100  0.6646
 2728TIP3   OH229598   0.840   5.856   3.962  0.0626  0.2188  0.3011
 2728TIP3    H129599   0.920   5.857   4.016  2.0230 -1.5831 -2.3196
 2728TIP3    H229600   0.793   5.778   3.991 -0.0925  0.5608  0.9794
 2729TIP3   OH229601   4.301   2.424  14.240  0.6610 -0.0408  0.1358
 2729TIP3    H129602   4.272   2.454  14.154  1.5231 -0.7311 -0.4164
 2729TIP3    H229603   4.286   2.330  14.239 -0.1358  0.0525  1.0887
 2730TIP3   OH229604   6.272   1.242  16.615  0.2599 -0.1305  0.4474
 2730TIP3    H129605   6.186   1.274  16.640  0.2946  0.2843  0.0637
 2730TIP3    H229606   6.329   1.264  16.689 -0.2049 -1.5422  1.2462
 2731TIP3   OH229607   5.977   1.098   5.872  0.2907 -0.1910  0.3332
 2731TIP3    H129608   5.901   1.040   5.875  1.0026 -1.2795 -1.3142
 2731TIP3    H229609   6.031   1.071   5.947 -0.6844  0.2634  1.2241
 2732TIP3   OH229610   6.148   2.299  12.261 -0.0909 -0.0245  0.0413
 2732TIP3    H129611   6.053   2.314  12.258  0.0165  0.6111 -0.7989
 2732TIP3    H229612   6.186   2.385  12.240  0.6929 -0.0971  1.0677
 2733TIP3   OH229613   0.710   0.217  15.796 -0.5023  0.9980  0.5949
 2733TIP3    H129614   0.722   0.231  15.702  0.2681 -1.6182  0.2173
 2733TIP3    H229615   0.798   0.196  15.828 -1.0918 -0.3555  1.4299
 2734TIP3   OH229616   0.781   6.277   4.193  0.0871  0.5038 -0.5713
 2734TIP3    H129617   0.819   6.189   4.201 -0.5353  0.3044  0.3349
 2734TIP3    H229618   0.852   6.336   4.219 -0.3101  0.1120  1.5911
 2735TIP3   OH229619   3.846   4.336  13.094 -0.1849 -0.5457  0.0695
 2735TIP3    H129620   3.776   4.326  13.159  0.0399 -0.8956  0.2585
 2735TIP3    H229621   3.911   4.270  13.118 -0.3028 -0.9804 -0.7677
 2736TIP3   OH229622   5.190   1.815   5.302  0.1849 -0.4422  0.3661
 2736TIP3    H129623   5.134   1.884   5.337 -0.6547 -0.6184 -0.5884
 2736TIP3    H229624   5.178   1.819   5.207  0.8429 -1.2892  0.2266
 2737TIP3   OH229625   2.499   3.427   1.087  0.1186 -0.2817  0.6546
 2737TIP3    H129626   2.529   3.434   1.178  1.6876  0.3449  0.1298
 2737TIP3    H229627   2.466   3.515   1.066  1.9720  0.3082 -0.0593
 2738TIP3   OH229628   3.452   3.904   4.459  0.3381 -0.0454 -0.5740
 2738TIP3    H129629   3.428   3.860   4.378 -0.4532 -2.7954  1.0173
 2738TIP3    H229630   3.378   3.962   4.479  0.6306  0.7999 -1.8437
 2739TIP3   OH229631   5.988   4.760   5.396  0.2709  0.0260  0.3067
 2739TIP3    H129632   5.943   4.785   5.315 -0.1412 -0.3428  0.4190
 2739TIP3    H229633   5.977   4.665   5.401  3.0664 -0.4817 -0.8800
 2740TIP3   OH229634   3.566   1.157  11.185  0.1156  0.6958 -0.1258
 2740TIP3    H129635   3.551   1.116  11.100 -1.8547 -1.6136  1.2018
 2740TIP3    H229636   3.634   1.104  11.226  0.9298  1.6906 -0.1495
 2741TIP3   OH229637   0.402   2.190  11.639 -0.0232  0.1583  0.3323
 2741TIP3    H129638   0.375   2.154  11.724 -1.7940 -1.1476 -0.7259
 2741TIP3    H229639   0.382   2.122  11.576 -0.2093  1.6837 -1.3447
 2742TIP3   OH229640   4.220   5.729  15.991 -0.0895  0.3041 -0.1198
 2742TIP3    H129641   4.313   5.748  15.986  0.2804 -1.4796 -0.8547
 2742TIP3    H229642   4.202   5.719  16.085  0.4358  0.7459  0.0283
 2743TIP3   OH229643   3.222   6.045   2.680  0.5377  0.2565 -0.4494
 2743TIP3    H129644   3.283   6.093   2.735  1.2235 -0.2171 -0.7757
 2743TIP3    H229645   3.144   6.100   2.675 -0.3121 -0.5152  2.5263
 2744TIP3   OH229646   6.802   3.369  15.059 -0.5188 -0.0272  0.0238
 2744TIP3    H129647   6.877   3.402  15.109 -2.1563  2.8834  0.7725
 2744TIP3    H229648   6.820   3.276  15.049  2.7799  0.3659  0.8771
 2745TIP3   OH229649   1.562   6.494  15.396 -0.0426  0.1775  0.2205
 2745TIP3    H129650   1.581   6.406  15.362  0.3080 -0.3508  1.7086
 2745TIP3    H229651   1.642   6.519  15.443 -0.4916  0.8991  0.6190
 2746TIP3   OH229652   2.749   1.737   0.281  0.2568 -0.3890  0.5675
 2746TIP3    H129653   2.743   1.658   0.227 -0.6199 -0.2026  0.3896
 2746TIP3    H229654   2.736   1.809   0.221  2.1282 -0.0319  0.5425
 2747TIP3   OH229655   5.212   5.453   0.015 -0.2179  0.3494 -0.0610
 2747TIP3    H129656   5.170   5.528   0.057  1.5120  0.8755  0.7927
 2747TIP3    H229657   5.264   5.491  -0.056 -0.9232 -0.2736 -0.9443
 2748TIP3   OH229658   2.161   6.083   2.021 -0.0409  0.1966 -0.5583
 2748TIP3    H129659   2.147   6.074   1.927  0.4865 -1.6144 -0.4916
 2748TIP3    H229660   2.256   6.081   2.032 -0.1213 -1.1145  0.1164
 2749TIP3   OH229661   4.266   6.006   2.912 -0.4035 -0.1768 -0.0591
 2749TIP3    H129662   4.228   5.935   2.964 -0.2896 -0.6412 -0.6051
 2749TIP3    H229663   4.360   5.988   2.911 -0.0986  1.0629  1.4312
 2750TIP3   OH229664   1.711   6.495   6.172 -0.2059  0.0624 -0.5836
 2750TIP3    H129665   1.700   6.500   6.077 -0.3585 -0.6603 -0.6113
 2750TIP3    H229666   1.622   6.485   6.206 -0.0979 -0.3178 -0.4113
 2751TIP3   OH229667   2.547   4.489  10.338 -0.3566  0.4046  0.4375
 2751TIP3    H129668   2.549   4.400  10.374 -1.7041  0.3935  0.5653
 2751TIP3    H229669   2.630   4.528  10.363 -0.2518 -0.4236  1.4333
 2752TIP3   OH229670   3.187   2.033  15.867  0.2202 -0.0241 -0.1180
 2752TIP3    H129671   3.240   1.983  15.929 -1.2756  0.5493  1.7242
 2752TIP3    H229672   3.181   2.120  15.906 -1.7679  0.0132 -0.4085
 2753TIP3   OH229673   2.657   4.849  14.480  0.5625 -0.1920  0.2466
 2753TIP3    H129674   2.713   4.776  14.509 -0.0148 -0.3566  0.9855
 2753TIP3    H229675   2.570   4.811  14.476  0.1680  0.5954  1.1672
 2754TIP3   OH229676   1.172   1.313   3.542 -1.0726  0.5458 -0.6146
 2754TIP3    H129677   1.201   1.355   3.462  0.4946  0.4222 -0.1394
 2754TIP3    H229678   1.093   1.265   3.517 -1.4202  1.6697 -1.7350
 2755TIP3   OH229679   3.643   4.310   6.027  0.3538  0.0518 -0.4169
 2755TIP3    H129680   3.707   4.371   6.063 -0.6723  0.9737 -0.1139
 2755TIP3    H229681   3.602   4.270   6.103  0.1306 -0.0826 -0.6061
 2756TIP3   OH229682   2.744   3.305  13.203 -0.4075 -0.0282 -0.3567
 2756TIP3    H129683   2.804   3.373  13.171 -1.2146  0.6905 -0.3907
 2756TIP3    H229684   2.658   3.334  13.174 -0.8903 -0.5347  0.5323
 2757TIP3   OH229685   0.437   6.163   4.072  0.3230  0.6423  0.3750
 2757TIP3    H129686   0.371   6.232   4.084  0.4922  0.9894 -0.6288
 2757TIP3    H229687   0.515   6.197   4.115  0.3710  1.0180 -0.0121
 2758TIP3   OH229688   1.555   3.755   2.529 -0.5725  0.4054  0.4602
 2758TIP3    H129689   1.502   3.834   2.541 -0.9762  0.6736 -2.4122
 2758TIP3    H229690   1.615   3.776   2.457 -0.9468 -1.9746 -0.6643
 2759TIP3   OH229691   0.973   4.389   2.560  0.2180  0.2384  0.3986
 2759TIP3    H129692   0.926   4.318   2.516  0.1398  1.4108 -1.5317
 2759TIP3    H229693   0.939   4.388   2.650  0.1614 -2.0759  0.4033
 2760TIP3   OH229694   0.359   4.664  16.928  0.2394  0.4703 -0.5703
 2760TIP3    H129695   0.413   4.710  16.992 -1.1161  1.0361  0.2086
 2760TIP3    H229696   0.282   4.719  16.918 -1.3203 -1.4504  0.1812
 2761TIP3   OH229697   4.311   0.477  12.787  0.2485 -0.0531 -0.5978
 2761TIP3    H129698   4.234   0.468  12.842  0.2086  1.6665 -0.3257
 2761TIP3    H229699   4.330   0.388  12.757  0.4308 -1.1227  2.3709
 2762TIP3   OH229700   2.467   0.691   5.648 -0.0598 -0.1989  0.5981
 2762TIP3    H129701   2.427   0.754   5.708  1.1456 -0.4138  1.6677
 2762TIP3    H229702   2.406   0.687   5.574 -0.3911  1.8535  0.7102
 2763TIP3   OH229703   4.620   5.151  17.052  0.3728 -0.6121 -0.0747
 2763TIP3    H129704   4.569   5.232  17.054  1.2520 -0.0591  1.2845
 2763TIP3    H229705   4.610   5.118  16.963 -0.9066  0.4059 -0.3272
 2764TIP3   OH229706   4.745   6.330  12.884 -0.7611 -0.4263  0.0584
 2764TIP3    H129707   4.757   6.253  12.940  0.4885 -0.2227  0.1088
 2764TIP3    H229708   4.748   6.296  12.795 -1.3182 -0.5688  0.0903
 2765TIP3   OH229709   1.146   2.529   4.345 -0.2456  0.2637 -0.2696
 2765TIP3    H129710   1.137   2.601   4.407 -3.1851  1.1925 -1.5872
 2765TIP3    H229711   1.070   2.473   4.362 -0.0840 -0.4662 -1.7467
 2766TIP3   OH229712   0.732   2.584  15.262  0.1986  0.1900 -0.0693
 2766TIP3    H129713   0.642   2.580  15.294  1.0700  2.1894  3.0829
 2766TIP3    H229714   0.738   2.667  15.216  0.9777  1.3850  2.0480
 2767TIP3   OH229715   0.032   6.487   4.865 -0.1904  0.0733  0.3142
 2767TIP3    H129716  -0.012   6.410   4.901  0.2890  0.0325  0.8367
 2767TIP3    H229717   0.006   6.559   4.923 -2.2021  0.7263 -1.2930
 2768TIP3   OH229718   3.417   4.687  15.411 -0.7421 -0.3479  0.1170
 2768TIP3    H129719   3.363   4.760  15.381 -1.3347 -1.2877 -1.2025
 2768TIP3    H229720   3.373   4.656  15.490  0.1608  1.4041  1.3829
 2769TIP3   OH229721   3.456   2.167   3.556  0.0247 -0.3080  0.2324
 2769TIP3    H129722   3.414   2.167   3.642 -2.3171 -1.2408 -0.8179
 2769TIP3    H229723   3.392   2.208   3.498  1.2650 -0.3107 -1.1946
 2770TIP3   OH229724   2.453   4.907  10.992 -0.3209 -0.3016 -0.4815
 2770TIP3    H129725   2.398   4.911  11.070 -1.6878  0.4956 -1.4248
 2770TIP3    H229726   2.395   4.871  10.924  0.4252  0.2120 -1.4243
 2771TIP3   OH229727   3.607   5.465   1.134  0.0798 -0.4847  0.9081
 2771TIP3    H129728   3.645   5.547   1.163 -0.4246  0.4035 -0.8320
 2771TIP3    H229729   3.652   5.398   1.186  0.2672  0.8844  2.5869
 2772TIP3   OH229730   4.092   1.322   5.614 -0.2141 -0.0377 -0.3886
 2772TIP3    H129731   4.169   1.269   5.594  0.0453  0.9309 -2.2890
 2772TIP3    H229732   4.070   1.300   5.704  4.3802  2.0993  1.6044
 2773TIP3   OH229733   6.068   0.653  17.013 -0.1609 -0.2344  0.5954
 2773TIP3    H129734   6.010   0.602  16.957 -0.8043  1.0946  0.0081
 2773TIP3    H229735   6.011   0.689  17.081  0.0306  0.7330  0.2605
 2774TIP3   OH229736   0.174   0.941  13.887 -0.3044  0.0442  0.3369
 2774TIP3    H129737   0.268   0.931  13.878 -0.4209 -0.1800 -0.8129
 2774TIP3    H229738   0.155   0.917  13.978  0.6894 -0.3424  0.4481
 2775TIP3   OH229739   4.638   4.099   5.311  0.0583  0.2068 -0.0915
 2775TIP3    H129740   4.693   4.166   5.271  2.4813 -1.8708 -0.5610
 2775TIP3    H229741   4.642   4.025   5.249 -0.7760 -1.1013  1.3348
 2776TIP3   OH229742   4.514   5.309  12.034  0.1707  0.2228 -0.4204
 2776TIP3    H129743   4.459   5.383  12.009  0.4434  1.4565  2.3246
 2776TIP3    H229744   4.467   5.232  12.002 -1.8185  1.3983 -0.4434
 2777TIP3   OH229745   2.872   3.749  14.284  0.1604  0.1994  0.0844
 2777TIP3    H129746   2.790   3.711  14.251 -0.0617  1.5132 -0.9746
 2777TIP3    H229747   2.934   3.739  14.212  1.1046 -1.1540  1.0223
 2778TIP3   OH229748   4.111   3.856  15.063 -0.6330 -0.3149 -0.4523
 2778TIP3    H129749   4.205   3.874  15.065 -0.9369  1.4324  1.9684
 2778TIP3    H229750   4.069   3.940  15.079 -2.5110 -1.5278  1.5629
 2779TIP3   OH229751   0.661   0.838  15.864 -0.1823  0.0060  0.3486
 2779TIP3    H129752   0.721   0.780  15.817 -0.3485  1.5948 -2.0025
 2779TIP3    H229753   0.716   0.880  15.930  0.9994  0.3503 -0.7933
 2780TIP3   OH229754   4.999   2.348  15.554  0.1533 -0.5329  0.0277
 2780TIP3    H129755   4.907   2.333  15.533 -0.1725 -0.2032  1.1259
 2780TIP3    H229756   5.002   2.341  15.650  0.6648  2.4997  0.3362
 2781TIP3   OH229757   2.402   2.248   3.735  0.1391 -0.1882 -0.2272
 2781TIP3    H129758   2.373   2.184   3.670 -0.5499 -2.0512  1.7660
 2781TIP3    H229759   2.494   2.227   3.751 -0.2292 -1.1253  0.8232
 2782TIP3   OH229760   2.191   5.785  12.594 -0.0338  0.1354  0.0463
 2782TIP3    H129761   2.196   5.861  12.536 -1.5833  0.8326  0.7698
 2782TIP3    H229762   2.255   5.802  12.663 -0.4205  0.8478  0.2421
 2783TIP3   OH229763   1.369   3.090   4.409  0.4762 -0.1983  0.1826
 2783TIP3    H129764   1.460   3.076   4.384  0.1738 -1.2569 -0.4163
 2783TIP3    H229765   1.373   3.152   4.482  1.7419 -1.1294  0.9412
 2784TIP3   OH229766   3.685   5.610  11.157  0.5359 -0.5716  0.0050
 2784TIP3    H129767   3.749   5.644  11.220  2.1243 -1.5958 -0.9790
 2784TIP3    H229768   3.731   5.609  11.074 -0.8339 -1.2294 -0.7837
 2785TIP3   OH229769   3.069   0.765   5.984  0.5802  0.5158 -0.1886
 2785TIP3    H129770   3.064   0.696   5.918 -1.9254  0.2081  0.2326
 2785TIP3    H229771   3.095   0.843   5.935  0.3605 -0.0497 -1.2361
 2786TIP3   OH229772   5.506   6.207  12.506 -0.2803 -0.5478  0.0123
 2786TIP3    H129773   5.540   6.289  12.470  1.2533 -0.7426  0.9204
 2786TIP3    H229774   5.484   6.154  12.429 -0.0633  0.2231 -0.5925
 2787TIP3   OH229775   2.256   5.572   2.967 -0.3591 -0.4260 -0.4530
 2787TIP3    H129776   2.223   5.604   2.883 -1.1171 -1.7948 -0.7047
 2787TIP3    H229777   2.184   5.518   3.002 -0.2726  0.5210  1.3254
 2788TIP3   OH229778   6.357   2.725   3.334  0.0190 -0.0138 -0.0791
 2788TIP3    H129779   6.300   2.681   3.271 -0.3187  1.0845 -0.5707
 2788TIP3    H229780   6.382   2.807   3.291  1.4696 -0.1877  0.3862
 2789TIP3   OH229781   5.177   0.849   1.149  0.5343  0.3654  0.8243
 2789TIP3    H129782   5.120   0.790   1.199  0.0083  0.0836 -0.0861
 2789TIP3    H229783   5.117   0.902   1.097  1.0520  1.0537  0.9056
 2790TIP3   OH229784   0.611   3.741   0.826  0.2916 -0.1480 -0.2416
 2790TIP3    H129785   0.684   3.695   0.867 -0.4963 -0.6020  0.7036
 2790TIP3    H229786   0.576   3.678   0.763  0.9745  0.2323 -1.0125
 2791TIP3   OH229787   3.758   3.179  12.202  0.1251  0.2544  0.4653
 2791TIP3    H129788   3.802   3.132  12.273 -0.8703 -0.0887  0.8706
 2791TIP3    H229789   3.683   3.124  12.179 -0.4042  1.0760  0.1563
 2792TIP3   OH229790   0.734   4.742   5.869  0.1893  0.2590 -0.0242
 2792TIP3    H129791   0.658   4.697   5.831  1.0400 -0.4930 -0.8914
 2792TIP3    H229792   0.725   4.833   5.840  0.1876 -0.0566 -1.0405
 2793TIP3   OH229793   3.261   2.556  13.687 -0.1377  0.7154 -1.1609
 2793TIP3    H129794   3.231   2.567  13.597  0.3926  0.4978 -1.3669
 2793TIP3    H229795   3.341   2.607  13.692  0.7184 -0.5648 -1.2802
 2794TIP3   OH229796   3.351   6.497  16.357  0.4881  0.5911 -0.2521
 2794TIP3    H129797   3.373   6.550  16.434  1.1913 -0.6536  0.4350
 2794TIP3    H229798   3.267   6.532  16.327  0.9158  2.0597  0.1909
 2795TIP3   OH229799   1.854   0.138  11.001 -0.2714  0.3197  0.2360
 2795TIP3    H129800   1.824   0.073  10.938 -1.6357  0.9592  0.1841
 2795TIP3    H229801   1.780   0.198  11.010  0.2986  0.8491  1.6306
 2796TIP3   OH229802   0.756   6.215  15.049 -0.0827  0.1960 -0.1468
 2796TIP3    H129803   0.700   6.233  14.974  0.1534 -1.0300 -0.6453
 2796TIP3    H229804   0.832   6.271  15.037 -0.4199  0.6128 -0.3755
 2797TIP3   OH229805   0.163   3.912  13.001 -1.1517 -0.0794  0.0758
 2797TIP3    H129806   0.254   3.922  13.029 -0.6496  0.4685 -1.6051
 2797TIP3    H229807   0.115   3.891  13.081  0.5665 -1.1522  0.8864
 2798TIP3   OH229808   5.175   5.987  15.130 -0.3431  0.4560  0.4836
 2798TIP3    H129809   5.084   5.977  15.100 -0.4263  2.4343 -0.0706
 2798TIP3    H229810   5.223   6.012  15.051  0.5163  0.3490  0.9613
 2799TIP3   OH229811   5.999   3.301  11.813 -0.0435 -0.6496  0.1786
 2799TIP3    H129812   6.064   3.286  11.882  0.5732  0.9384 -0.0164
 2799TIP3    H229813   5.929   3.350  11.857  0.0720 -0.1538 -0.1894
 2800TIP3   OH229814   3.573   4.862   2.504  0.3436  0.2780 -0.0506
 2800TIP3    H129815   3.596   4.860   2.597 -1.5244  0.5448  0.4533
 2800TIP3    H229816   3.479   4.844   2.502 -0.1054  2.4162 -1.6914
 2801TIP3   OH229817   0.441   5.208   1.374  0.7158  0.4710 -0.0098
 2801TIP3    H129818   0.503   5.173   1.310  2.4837  2.4271  0.5507
 2801TIP3    H229819   0.491   5.273   1.423 -0.8089 -0.3464  2.8256
 2802TIP3   OH229820   1.803   2.006   5.694  0.2623  0.1130  0.2790
 2802TIP3    H129821   1.842   2.057   5.765  1.0141 -1.3158  0.9280
 2802TIP3    H229822   1.874   1.952   5.660 -0.5834 -0.8310 -0.0689
 2803TIP3   OH229823   1.471   4.325  11.274  0.6150 -0.1788 -0.4218
 2803TIP3    H129824   1.434   4.257  11.330  1.2178 -1.4729 -1.5360
 2803TIP3    H229825   1.405   4.394  11.274 -0.4771 -1.1765 -0.0341
 2804TIP3   OH229826   1.867   1.044   0.388 -0.2023 -0.1345  0.2941
 2804TIP3    H129827   1.845   0.952   0.373 -1.2740  0.3722 -1.5317
 2804TIP3    H229828   1.802   1.074   0.451 -0.4706 -0.3582  0.1240
 2805TIP3   OH229829   4.904   3.306  15.025  1.4491  0.7061  0.0961
 2805TIP3    H129830   4.971   3.347  15.079  0.1178  1.3069  1.3748
 2805TIP3    H229831   4.823   3.315  15.076  0.5568 -0.8246 -0.9550
 2806TIP3   OH229832   6.696   1.018  14.294 -0.0075 -0.4312 -0.3516
 2806TIP3    H129833   6.628   0.954  14.274 -0.0259  0.1647 -2.3822
 2806TIP3    H229834   6.688   1.085  14.225  2.1277  0.0454 -0.2074
 2807TIP3   OH229835   0.016   5.900   1.411  0.1395  0.3779 -0.4753
 2807TIP3    H129836  -0.003   5.863   1.498  0.2395 -1.0967 -1.0443
 2807TIP3    H229837   0.108   5.925   1.415  0.4556 -0.7037 -0.4645
 2808TIP3   OH229838   4.501   0.301   0.601 -0.5359 -0.5381 -0.0423
 2808TIP3    H129839   4.588   0.307   0.640  0.3545 -0.5709 -1.9269
 2808TIP3    H229840   4.487   0.387   0.561 -2.4360  0.3347  2.2243
 2809TIP3   OH229841   1.197   0.350  12.559 -0.5605  0.1024  0.6651
 2809TIP3    H129842   1.240   0.299  12.627  0.0981  0.0537  0.2163
 2809TIP3    H229843   1.249   0.334  12.480 -1.6405 -0.3088  0.0126
 2810TIP3   OH229844   3.900   3.246  11.956  0.4450  0.7397  0.1573
 2810TIP3    H129845   3.894   3.340  11.943  1.8247  0.9480  0.7981
 2810TIP3    H229846   3.832   3.226  12.020 -1.5602  0.8481 -1.8248
 2811TIP3   OH229847   0.795   3.136  15.550  0.1431 -0.0856  0.0646
 2811TIP3    H129848   0.808   3.192  15.627 -1.6063  0.8828 -0.2920
 2811TIP3    H229849   0.704   3.107  15.557 -0.3004  0.6855 -2.0586
 2812TIP3   OH229850   2.583   1.832   1.123  0.7162 -0.8047 -0.0476
 2812TIP3    H129851   2.534   1.750   1.120 -0.0343 -0.3703 -2.4794
 2812TIP3    H229852   2.671   1.808   1.095  1.2500 -1.1710  1.8423
 2813TIP3   OH229853   0.264   6.622  15.265  0.0005 -0.2529  0.2873
 2813TIP3    H129854   0.206   6.587  15.198  0.6992 -0.2104 -0.3554
 2813TIP3    H229855   0.330   6.673  15.216  0.2406  0.1744  1.0387
 2814TIP3   OH229856   1.184   2.047  12.377  0.4327  0.1050  0.1967
 2814TIP3    H129857   1.230   2.114  12.429 -0.4823  1.4551 -0.6655
 2814TIP3    H229858   1.233   2.044  12.294 -0.1451  0.4929 -0.1665
 2815TIP3   OH229859   2.956   4.793   2.826  0.4459 -0.8437 -0.5416
 2815TIP3    H129860   2.920   4.773   2.912 -0.3328 -0.9965 -0.8903
 2815TIP3    H229861   3.039   4.747   2.823  0.7011 -0.4612  0.3007
 2816TIP3   OH229862   3.379   5.900  12.170 -0.1176 -0.1937  0.0050
 2816TIP3    H129863   3.400   5.908  12.077  0.3856 -1.4339 -0.0053
 2816TIP3    H229864   3.395   5.987  12.206  3.2902 -0.5727 -0.3454
 2817TIP3   OH229865   1.974   1.998  16.076 -0.8417  0.0768  0.4796
 2817TIP3    H129866   1.985   2.063  16.007  0.9295 -0.5516  0.0839
 2817TIP3    H229867   1.924   1.927  16.035 -1.3459  0.4716  0.4092
 2818TIP3   OH229868   0.733   6.661   1.005  0.2079 -0.0629 -0.5394
 2818TIP3    H129869   0.807   6.619   0.961  0.8002 -0.2874  0.6332
 2818TIP3    H229870   0.756   6.753   1.008  0.6571 -0.1993  0.2360
 2819TIP3   OH229871   3.598   3.494  13.707  0.2790 -0.1280  0.0238
 2819TIP3    H129872   3.603   3.459  13.618  0.7056  0.2712 -0.1104
 2819TIP3    H229873   3.631   3.584  13.699  1.0256 -0.3344  0.7158
 2820TIP3   OH229874   5.187   3.467   5.203 -0.6714  0.0626  0.0015
 2820TIP3    H129875   5.187   3.523   5.281 -1.8340 -0.1534  0.1710
 2820TIP3    H229876   5.095   3.445   5.189 -0.5284  0.4246 -1.6791
 2821TIP3   OH229877   0.257   5.332   1.765 -0.2983  0.0689  0.7800
 2821TIP3    H129878   0.343   5.372   1.771 -0.5527  0.6611  0.5089
 2821TIP3    H229879   0.203   5.381   1.826 -1.1554  1.5942 -1.1059
 2822TIP3   OH229880   6.386   5.461  14.616  0.3944  0.1131  0.0712
 2822TIP3    H129881   6.331   5.502  14.549 -0.2755 -0.4945  0.2340
 2822TIP3    H229882   6.330   5.457  14.694  0.6314 -0.5947  0.2154
 2823TIP3   OH229883   6.723   2.605  14.178 -0.1818  0.5522 -0.0453
 2823TIP3    H129884   6.707   2.680  14.120 -0.6129  0.1459 -0.4597
 2823TIP3    H229885   6.767   2.541  14.123 -0.5733  0.1725  0.0760
 2824TIP3   OH229886   1.023   3.325  15.507 -0.3655 -0.4462 -0.2300
 2824TIP3    H129887   1.042   3.386  15.436 -0.3343 -0.5061 -0.2741
 2824TIP3    H229888   1.050   3.370  15.586  0.9970 -0.9550 -0.3862
 2825TIP3   OH229889   3.419   1.178   4.630  0.3993  0.8512  0.5240
 2825TIP3    H129890   3.479   1.252   4.627  0.4096  0.9463  2.2015
 2825TIP3    H229891   3.474   1.103   4.653  0.0548  0.7367  0.9937
 2826TIP3   OH229892   6.046   3.898   1.527  0.9586  0.1091  0.0005
 2826TIP3    H129893   6.029   3.879   1.435  0.8095 -0.0158  0.0533
 2826TIP3    H229894   5.983   3.844   1.575  1.4045 -0.2503  0.1960
 2827TIP3   OH229895   3.148   2.491   1.669  0.0355 -0.0552  0.3031
 2827TIP3    H129896   3.198   2.569   1.646  0.8744 -0.4418  0.7379
 2827TIP3    H229897   3.107   2.463   1.588  0.9514 -0.0155 -0.1809
 2828TIP3   OH229898   6.433   2.856   1.069  0.7301  0.0147  0.6902
 2828TIP3    H129899   6.470   2.943   1.083  0.4327 -0.1407  2.8369
 2828TIP3    H229900   6.478   2.800   1.133 -0.4776 -0.9773  0.7120
 2829TIP3   OH229901   1.911   0.100  16.990 -0.1958 -0.1067  0.0070
 2829TIP3    H129902   1.953   0.034  16.936 -1.9088 -0.3835 -1.0626
 2829TIP3    H229903   1.840   0.054  17.035  1.8333 -0.1697  3.5181
 2830TIP3   OH229904   6.027   1.838  17.058  0.0036 -0.0515  0.6606
 2830TIP3    H129905   6.031   1.812  17.150  1.1360  1.0623  0.9481
 2830TIP3    H229906   6.036   1.755  17.010  0.4712 -0.5289  1.5409
 2831TIP3   OH229907   4.625   1.305   6.308  0.0423 -0.1942 -0.0996
 2831TIP3    H129908   4.639   1.398   6.291 -0.6339 -0.0766 -0.0199
 2831TIP3    H229909   4.535   1.289   6.282  0.3071 -0.9466 -0.5961
 2832TIP3   OH229910   4.851   2.213  13.853  0.3663 -0.1380 -0.6551
 2832TIP3    H129911   4.767   2.257  13.851  0.3972 -0.0993 -1.7483
 2832TIP3    H229912   4.912   2.279  13.885  0.5837  0.9783 -3.1530
 2833TIP3   OH229913   1.036   5.972   2.248  0.4551  0.2948  0.4511
 2833TIP3    H129914   1.103   5.941   2.188  0.5027 -1.4678  1.3465
 2833TIP3    H229915   0.966   6.005   2.192  0.1473 -2.0460 -0.6444
 2834TIP3   OH229916   1.439   5.596   3.670  0.3503 -0.3303  0.2595
 2834TIP3    H129917   1.388   5.644   3.736 -1.6625 -0.8554 -0.8363
 2834TIP3    H229918   1.374   5.567   3.607  2.2642  0.5798 -2.2770
 2835TIP3   OH229919   1.092   1.783  16.346  0.0559  0.3079 -0.6670
 2835TIP3    H129920   1.163   1.846  16.333  0.8493 -0.3417  0.3491
 2835TIP3    H229921   1.072   1.788  16.439  0.3763 -1.1574 -0.4886
 2836TIP3   OH229922   2.002   4.783   5.959 -0.2418 -0.3259  0.0219
 2836TIP3    H129923   1.917   4.822   5.982 -0.2867 -0.2850 -0.2112
 2836TIP3    H229924   1.989   4.689   5.970 -0.5383 -0.3770 -0.7202
 2837TIP3   OH229925   0.390   6.483  13.054  0.3065 -0.2128  0.2152
 2837TIP3    H129926   0.329   6.547  13.090  0.9176  0.3430  0.2782
 2837TIP3    H229927   0.419   6.521  12.971  1.1578 -0.1050  0.5536
 2838TIP3   OH229928   3.846   0.089  16.143  0.5217 -0.3820 -0.8136
 2838TIP3    H129929   3.919   0.068  16.201 -0.9999  2.0769  2.2745
 2838TIP3    H229930   3.780   0.022  16.162  0.4827 -0.2814 -0.5882
 2839TIP3   OH229931   0.333   1.531  16.795 -0.3733 -0.6835 -0.1505
 2839TIP3    H129932   0.244   1.559  16.775 -0.2506  0.8922  1.2650
 2839TIP3    H229933   0.323   1.474  16.872 -0.2666 -1.5472 -0.7676
 2840TIP3   OH229934   3.529   6.749  16.146  0.0836  0.2928  0.2853
 2840TIP3    H129935   3.585   6.709  16.213 -0.9456 -0.1904  0.8925
 2840TIP3    H229936   3.447   6.768  16.192 -1.1140 -1.2096 -1.0835
 2841TIP3   OH229937   6.797   6.304   2.220 -0.1652  0.5181 -0.0040
 2841TIP3    H129938   6.748   6.337   2.145  0.2043 -1.3799 -1.1431
 2841TIP3    H229939   6.742   6.234   2.255 -0.2366  1.2408  1.4304
 2842TIP3   OH229940   0.745   4.938   1.255 -0.1420  0.1330  0.2988
 2842TIP3    H129941   0.775   4.898   1.336  0.8308  0.1621 -0.0344
 2842TIP3    H229942   0.710   4.865   1.203 -0.1817  0.0186  0.4868
 2843TIP3   OH229943   4.638   2.041  11.205 -0.6401  0.0595  0.2671
 2843TIP3    H129944   4.596   2.022  11.120  1.1534  2.2056 -1.2237
 2843TIP3    H229945   4.579   2.104  11.246 -0.5833  0.5010 -0.3042
 2844TIP3   OH229946   4.677   2.340  11.458  0.1531 -0.1479 -0.4144
 2844TIP3    H129947   4.736   2.266  11.451  0.3355  0.0642 -1.1408
 2844TIP3    H229948   4.597   2.311  11.415  0.6594  0.5169 -1.8477
 2845TIP3   OH229949   4.080   6.306  12.575  0.2389 -0.3770 -0.2503
 2845TIP3    H129950   4.076   6.211  12.580  1.5459 -0.4082  0.6563
 2845TIP3    H229951   4.086   6.325  12.481 -0.1233 -1.1673 -0.4424
 2846TIP3   OH229952   2.474   5.237   4.838  0.0769  0.0647  0.2102
 2846TIP3    H129953   2.402   5.193   4.791 -1.0511  0.1194  1.8096
 2846TIP3    H229954   2.478   5.192   4.922  1.0502  0.9462  0.6473
 2847TIP3   OH229955   1.623   2.436  12.642  0.0821  0.2630 -0.2936
 2847TIP3    H129956   1.532   2.431  12.672  0.0744  1.7363  0.0286
 2847TIP3    H229957   1.618   2.421  12.547 -0.5962  0.9977 -0.3828
 2848TIP3   OH229958   0.704   3.283   5.080 -0.1634 -0.1990 -0.0345
 2848TIP3    H129959   0.706   3.249   4.991 -0.8486 -1.7328  0.4905
 2848TIP3    H229960   0.666   3.370   5.072 -2.0287 -1.0514 -1.0669
 2849TIP3   OH229961   3.087   4.030   1.007  0.0274  0.3031  0.2208
 2849TIP3    H129962   3.077   3.973   0.931 -1.9561 -0.1546  0.7652
 2849TIP3    H229963   3.060   3.976   1.081  1.8449  0.7713  1.2774
 2850TIP3   OH229964   0.344   3.981   3.779  0.2061 -0.1517 -0.3687
 2850TIP3    H129965   0.418   4.027   3.740 -0.6693  0.7014 -1.0739
 2850TIP3    H229966   0.304   4.046   3.837  0.7390 -1.0076  0.9987
 2851TIP3   OH229967   2.069   0.661   0.239  0.1686  0.5764  0.2898
 2851TIP3    H129968   2.007   0.634   0.307 -0.7427  1.8164 -0.0277
 2851TIP3    H229969   2.070   0.757   0.244 -0.3449  0.7217 -1.8089
 2852TIP3   OH229970   5.475   4.473   6.014 -0.6422  0.2409  0.1117
 2852TIP3    H129971   5.427   4.552   5.993  0.4608  0.7651 -0.4991
 2852TIP3    H229972   5.481   4.473   6.110 -0.6055  0.9314  0.1139
 2853TIP3   OH229973   1.936   0.097  15.432 -0.7732 -0.1360 -0.0904
 2853TIP3    H129974   1.848   0.135  15.427 -0.2664  0.9480 -1.4560
 2853TIP3    H229975   1.990   0.167  15.469  0.3302  0.8856 -3.3458
 2854TIP3   OH229976   5.772   3.574  11.792  0.8100 -0.3973  0.8004
 2854TIP3    H129977   5.750   3.579  11.699  1.6329  2.1566  0.6742
 2854TIP3    H229978   5.698   3.614  11.837  1.6507  1.0382  0.9739
 2855TIP3   OH229979   1.497   3.315   2.627 -0.2626  0.2545 -0.4905
 2855TIP3    H129980   1.592   3.314   2.623 -0.0560  1.1492  2.2147
 2855TIP3    H229981   1.475   3.285   2.715 -2.5668 -0.9528 -1.3749
 2856TIP3   OH229982   3.223   6.647   5.950 -0.4332 -0.3479  0.4575
 2856TIP3    H129983   3.134   6.677   5.969 -1.5380 -3.1881  0.1923
 2856TIP3    H229984   3.269   6.652   6.034 -1.6899 -1.4495  1.2395
 2857TIP3   OH229985   2.643   1.840   1.512  0.2828 -0.9062 -1.1568
 2857TIP3    H129986   2.676   1.751   1.502  1.8077 -0.4947 -0.0198
 2857TIP3    H229987   2.704   1.894   1.462  0.7055 -0.2558  0.0249
 2858TIP3   OH229988   0.369   6.284   4.352 -0.0865  0.7349  0.3516
 2858TIP3    H129989   0.379   6.252   4.442  1.1012  0.6008  0.1801
 2858TIP3    H229990   0.451   6.328   4.333 -0.6144  1.4033 -0.4237
 2859TIP3   OH229991   2.018   2.857   2.685 -0.3350 -0.5536 -0.4868
 2859TIP3    H129992   2.087   2.798   2.716  0.3695  0.3172 -0.3768
 2859TIP3    H229993   1.997   2.826   2.597 -0.8170 -1.6932  0.0036
 2860TIP3   OH229994   3.970   2.840   6.153  0.0770 -0.0229  0.0233
 2860TIP3    H129995   4.007   2.775   6.213 -0.8097  0.3460  1.0093
 2860TIP3    H229996   3.942   2.790   6.077  1.4637 -0.4673 -0.2140
 2861TIP3   OH229997   3.222   0.669  14.125 -0.6924  0.0573  0.3267
 2861TIP3    H129998   3.192   0.751  14.088 -0.7868  0.3450  1.0255
 2861TIP3    H229999   3.244   0.690  14.216  0.2957 -0.4541  0.2223
 2862TIP3   OH230000   1.707   3.829  16.258  0.5284 -0.3216  0.0925
 2862TIP3    H130001   1.667   3.756  16.212 -0.7444  0.1929  0.3481
 2862TIP3    H230002   1.634   3.888  16.279  1.6814  1.8064 -1.4646
 2863TIP3   OH230003   5.970   3.243   4.726  0.3663 -0.0073  0.5048
 2863TIP3    H130004   6.024   3.300   4.671  0.0431  0.3610  0.5680
 2863TIP3    H230005   5.886   3.239   4.681 -0.3906  1.4777  1.6954
 2864TIP3   OH230006   5.496   2.430  11.737 -0.2726 -0.5329 -0.5528
 2864TIP3    H130007   5.568   2.468  11.687 -1.3073 -1.3107 -2.7336
 2864TIP3    H230008   5.538   2.363  11.791  0.9550  0.7616  0.1710
 2865TIP3   OH230009   5.417   6.769   2.080 -0.1815 -0.5657 -0.2308
 2865TIP3    H130010   5.334   6.722   2.083 -0.3990 -0.3029 -1.5441
 2865TIP3    H230011   5.480   6.705   2.047 -0.1704 -0.3667 -0.6037
 2866TIP3   OH230012   3.935   0.335  10.580 -0.2751  0.3488  0.1243
 2866TIP3    H130013   4.026   0.325  10.552 -0.5431 -0.0867 -0.6302
 2866TIP3    H230014   3.941   0.369  10.669  0.6215  0.6077 -0.0228
 2867TIP3   OH230015   3.087   3.950  13.027  0.5472  0.1059 -0.2845
 2867TIP3    H130016   3.101   3.910  13.112  2.0620  0.8853 -0.1340
 2867TIP3    H230017   3.026   3.891  12.982  1.1382 -1.2774  0.6669
 2868TIP3   OH230018   2.251   2.455   5.497  0.0561  0.1507 -0.3125
 2868TIP3    H130019   2.161   2.458   5.527  0.3937  2.0332  0.6764
 2868TIP3    H230020   2.276   2.362   5.502 -2.0385 -0.5411 -1.4472
 2869TIP3   OH230021   4.254   3.569  12.276  0.4383 -0.3009  0.5787
 2869TIP3    H130022   4.202   3.644  12.247  0.1038 -0.2097  1.3763
 2869TIP3    H230023   4.328   3.607  12.323  1.3046 -0.4288 -0.6361
 2870TIP3   OH230024   6.676   4.594   0.411 -0.0303 -0.2456 -0.0332
 2870TIP3    H130025   6.676   4.660   0.341 -1.7350 -0.1206  0.0389
 2870TIP3    H230026   6.706   4.514   0.369 -0.6688 -0.0787 -0.8281
 2871TIP3   OH230027   4.109   2.429   5.142  0.2155 -0.0218  0.1954
 2871TIP3    H130028   4.096   2.336   5.125  0.7112  0.0128 -0.4449
 2871TIP3    H230029   4.157   2.433   5.225  0.2891 -0.3413  0.1674
 2872TIP3   OH230030   6.399   6.020   4.870  0.4476  0.3653  0.4848
 2872TIP3    H130031   6.308   5.996   4.856  0.6199  0.9492 -2.0144
 2872TIP3    H230032   6.400   6.116   4.869  0.9719  0.3993  1.6437
 2873TIP3   OH230033   3.523   0.747   5.487 -0.4299  0.0327  0.3215
 2873TIP3    H130034   3.527   0.817   5.552 -1.3354 -0.5383  1.0308
 2873TIP3    H230035   3.542   0.789   5.404 -2.2986  1.4116  0.5354
 2874TIP3   OH230036   5.019   0.931   5.471  0.2822 -0.0913 -0.1450
 2874TIP3    H130037   4.956   0.867   5.437  1.1644 -0.1088 -1.8768
 2874TIP3    H230038   5.007   1.008   5.416  0.9230  0.3423  0.3062
 2875TIP3   OH230039   2.009   6.800  15.786  0.0277  0.0004 -0.0765
 2875TIP3    H130040   2.036   6.880  15.831 -1.1117  1.4850 -1.8894
 2875TIP3    H230041   2.088   6.770  15.741  0.0510  1.1112 -0.8026
 2876TIP3   OH230042   3.955   2.719  13.327  0.0662  0.0578  0.5041
 2876TIP3    H130043   3.890   2.649  13.321 -0.2916  0.3600  0.7958
 2876TIP3    H230044   4.001   2.717  13.243 -0.5878  0.0961  0.1396
 2877TIP3   OH230045   1.500   6.087  13.936 -0.0247  0.2055  0.2383
 2877TIP3    H130046   1.577   6.127  13.975  0.4789 -0.6497  0.1370
 2877TIP3    H230047   1.459   6.038  14.007 -0.3024  0.3974  0.2143
 2878TIP3   OH230048   3.589   4.850   2.797 -0.0189 -0.3462 -0.3876
 2878TIP3    H130049   3.566   4.760   2.774  0.1362 -0.7408  0.9491
 2878TIP3    H230050   3.531   4.872   2.869  0.1997  0.4987 -0.4623
 2879TIP3   OH230051   0.512   4.788   4.569  0.5859 -0.0924 -0.0714
 2879TIP3    H130052   0.435   4.807   4.515 -0.3428 -0.4345  1.0784
 2879TIP3    H230053   0.573   4.744   4.510 -1.4021 -2.7760 -0.3143
 2880TIP3   OH230054   6.057   1.398  14.534  0.0591  0.5653 -0.4652
 2880TIP3    H130055   6.043   1.388  14.440  0.7015 -2.3182 -0.3636
 2880TIP3    H230056   5.986   1.454  14.564 -0.8676  0.5312 -2.4916
 2881TIP3   OH230057   1.292   4.342  10.585  0.7333 -0.8296 -0.0663
 2881TIP3    H130058   1.280   4.372  10.495 -0.1055 -1.8995 -0.3293
 2881TIP3    H230059   1.310   4.248  10.577  0.6092 -0.9428  0.8876
 2882TIP3   OH230060   2.409   5.668   5.641  0.1633  0.1503 -0.2089
 2882TIP3    H130061   2.326   5.663   5.594  0.2926  1.6810 -0.6477
 2882TIP3    H230062   2.388   5.719   5.720  0.6828  0.5596 -0.3310
 2883TIP3   OH230063   0.503   3.238   2.948  0.3211  1.1518  0.1423
 2883TIP3    H130064   0.539   3.184   2.877  0.7123  2.0829 -0.3740
 2883TIP3    H230065   0.414   3.258   2.920  0.2600  0.9952  0.2194
 2884TIP3   OH230066   5.014   2.768   4.991 -0.4373 -0.0136  0.0502
 2884TIP3    H130067   4.948   2.784   4.923 -0.2183 -2.5436 -0.8520
 2884TIP3    H230068   4.965   2.776   5.073 -0.8062  2.6215 -0.3283
 2885TIP3   OH230069   0.708   1.166   4.968 -0.5078 -0.8423 -0.3669
 2885TIP3    H130070   0.642   1.157   4.899 -0.6697 -0.2454 -0.2929
 2885TIP3    H230071   0.676   1.110   5.039 -2.0205  0.9911  0.4724
 2886TIP3   OH230072   3.376   4.218   3.292 -0.3199  0.2086  0.6063
 2886TIP3    H130073   3.331   4.203   3.208 -0.1575  1.1022  0.3568
 2886TIP3    H230074   3.310   4.195   3.358 -0.6408  0.0481  0.2370
 2887TIP3   OH230075   4.692   6.753   0.084 -0.4140  0.3489  0.2563
 2887TIP3    H130076   4.621   6.810   0.052  0.2845  0.7716 -0.5874
 2887TIP3    H230077   4.769   6.810   0.086 -0.3814  0.2940  2.5839
 2888TIP3   OH230078   2.738   1.910   5.443 -0.1495  0.5352 -0.5436
 2888TIP3    H130079   2.769   1.999   5.429  0.4167  0.4972  0.4077
 2888TIP3    H230080   2.770   1.886   5.530 -0.0642 -0.6834 -0.8849
 2889TIP3   OH230081   1.056   1.052  14.245 -0.7400 -0.3611  0.2438
 2889TIP3    H130082   0.990   0.983  14.254  0.5742 -1.9696 -1.5298
 2889TIP3    H230083   1.138   1.010  14.272 -0.4708  1.9861  3.7930
 2890TIP3   OH230084   5.875   2.233   4.601  0.5727 -0.4313 -0.9649
 2890TIP3    H130085   5.968   2.254   4.609  0.0617  2.4090 -1.4167
 2890TIP3    H230086   5.860   2.223   4.507  0.2499 -0.0152 -0.9573
 2891TIP3   OH230087   4.809   3.629   0.762 -0.5455  0.0486 -0.0675
 2891TIP3    H130088   4.841   3.548   0.801  0.1045  1.0589  1.5918
 2891TIP3    H230089   4.889   3.678   0.742 -0.9245  0.1971 -1.2822
 2892TIP3   OH230090   1.353   3.114   2.416 -0.6379 -0.0548  0.5606
 2892TIP3    H130091   1.401   3.033   2.398  0.6866  0.9354 -0.6113
 2892TIP3    H230092   1.418   3.171   2.456 -0.8123  1.2998 -0.9835
 2893TIP3   OH230093   6.288   5.132  14.278 -0.2331 -0.4780  0.4672
 2893TIP3    H130094   6.346   5.157  14.206  0.3647 -0.5247  0.9236
 2893TIP3    H230095   6.344   5.133  14.355 -1.2946  1.5268  1.2820
 2894TIP3   OH230096   6.333   6.174   1.720  0.0269 -0.2615  0.4239
 2894TIP3    H130097   6.410   6.141   1.674  0.5126 -0.5376  1.4224
 2894TIP3    H230098   6.276   6.097   1.728  0.1441 -0.3210  0.6900
 2895TIP3   OH230099   5.830   1.192   5.414 -0.2122  0.5139 -0.2809
 2895TIP3    H130100   5.904   1.143   5.378  1.1442 -0.2741  3.1720
 2895TIP3    H230101   5.864   1.280   5.428 -1.2857  1.3254 -2.4062
 2896TIP3   OH230102   4.919   5.987   2.501  0.6699 -0.2908  0.1429
 2896TIP3    H130103   4.944   5.970   2.410  1.3921  0.1239  0.2543
 2896TIP3    H230104   4.866   6.066   2.497  2.2695  0.8468  0.2612
 2897TIP3   OH230105   6.020   2.452  12.898  0.1154  0.1924 -0.4492
 2897TIP3    H130106   5.982   2.531  12.936  0.0675  0.1719 -0.4541
 2897TIP3    H230107   5.963   2.381  12.927  1.5380 -0.1900  1.6049
 2898TIP3   OH230108   3.444   6.623  13.719  0.3967  0.3607 -0.0053
 2898TIP3    H130109   3.375   6.627  13.785  0.2398 -1.0525 -0.0669
 2898TIP3    H230110   3.444   6.711  13.680 -1.4427  0.3869 -0.0706
 2899TIP3   OH230111   0.956   3.874   3.397  0.4903  0.2655 -0.3047
 2899TIP3    H130112   0.925   3.840   3.313 -2.0265 -0.0875  0.6995
 2899TIP3    H230113   0.975   3.796   3.449  1.5153  0.4838 -0.3311
 2900TIP3   OH230114   2.240   1.237   2.946 -0.6429  0.5124  0.4195
 2900TIP3    H130115   2.311   1.185   2.909 -0.1971  2.4301 -1.7171
 2900TIP3    H230116   2.161   1.199   2.909 -0.3532  1.0080 -0.7774
 2901TIP3   OH230117   4.266   2.598   0.208 -0.1402 -0.8831 -0.8745
 2901TIP3    H130118   4.203   2.577   0.139 -1.0253  2.3477 -1.2327
 2901TIP3    H230119   4.231   2.679   0.247  1.9868 -0.9129  1.2808
 2902TIP3   OH230120   4.226   6.019   3.181 -0.1458  1.0264  0.2501
 2902TIP3    H130121   4.170   6.090   3.150  0.2782  0.9249 -0.8013
 2902TIP3    H230122   4.315   6.053   3.170  0.2522 -0.6550 -3.1202
 2903TIP3   OH230123   5.903   3.881  15.051 -0.3975  0.6866 -0.3473
 2903TIP3    H130124   5.995   3.863  15.033 -0.3943  0.7117 -0.3558
 2903TIP3    H230125   5.872   3.928  14.974 -0.5956  0.0652 -0.6506
 2904TIP3   OH230126   4.598   5.879  10.682  0.1922  0.2602 -0.3670
 2904TIP3    H130127   4.662   5.890  10.611  2.3399 -0.2194  1.3967
 2904TIP3    H230128   4.587   5.785  10.689 -1.7238  0.3556 -1.4360
 2905TIP3   OH230129   3.154   6.004   1.460  0.2807 -0.1131  0.0526
 2905TIP3    H130130   3.240   6.043   1.443 -0.1634  1.5820  1.4259
 2905TIP3    H230131   3.092   6.075   1.444 -0.5788 -0.2128  2.5677
 2906TIP3   OH230132   3.417   5.240  15.607  0.0237 -0.1609  0.3978
 2906TIP3    H130133   3.406   5.335  15.617 -1.7574 -0.1276 -1.3136
 2906TIP3    H230134   3.349   5.202  15.663 -1.2435 -0.2939 -1.1540
 2907TIP3   OH230135   0.896   2.873  15.455 -0.9458  0.1700  0.3645
 2907TIP3    H130136   0.809   2.895  15.488 -1.1498 -0.9638  0.6336
 2907TIP3    H230137   0.936   2.821  15.525 -0.1337  0.4850  0.1483
 2908TIP3   OH230138   5.030   2.701  11.043 -0.1656  0.1233 -0.3488
 2908TIP3    H130139   5.051   2.793  11.027  1.8828  0.0606  1.5019
 2908TIP3    H230140   5.104   2.653  11.008  0.1295 -0.5720  1.1378
 2909TIP3   OH230141   6.244   3.265   3.186 -0.0888  0.3809  0.7575
 2909TIP3    H130142   6.236   3.349   3.140 -1.6589  0.1238  0.4771
 2909TIP3    H230143   6.192   3.277   3.265 -0.1015 -0.2323  0.8464
 2910TIP3   OH230144   5.526   2.662   0.153 -0.3024  0.2197  0.4286
 2910TIP3    H130145   5.563   2.589   0.106  0.4059  0.8466 -0.0031
 2910TIP3    H230146   5.480   2.713   0.087 -0.2170  0.5264  0.6019
 2911TIP3   OH230147   0.694   3.059  10.959 -0.3532 -0.1501  0.3881
 2911TIP3    H130148   0.677   3.058  11.053  2.5187  1.9538  1.0726
 2911TIP3    H230149   0.611   3.035  10.919 -1.5758 -1.4919  3.4368
 2912TIP3   OH230150   2.197   4.187   2.690  0.2472 -0.1087 -0.4334
 2912TIP3    H130151   2.253   4.258   2.721 -1.1098  0.1426  1.6676
 2912TIP3    H230152   2.113   4.201   2.736 -0.7195 -1.8758 -1.5558
 2913TIP3   OH230153   1.040   5.547  14.163  0.2692  0.1220  0.2818
 2913TIP3    H130154   1.021   5.633  14.201  0.4518 -0.3593  1.5234
 2913TIP3    H230155   1.080   5.566  14.078 -1.2408  1.2298 -0.2247
 2914TIP3   OH230156   5.698   3.703  12.498 -0.8925 -0.2399 -0.1914
 2914TIP3    H130157   5.714   3.661  12.582 -0.6843 -0.4170 -0.3171
 2914TIP3    H230158   5.677   3.631  12.438  0.4262 -0.2829 -0.6374
 2915TIP3   OH230159   3.902   5.599   0.948 -0.2111 -0.3455  0.3688
 2915TIP3    H130160   3.902   5.695   0.953 -1.0649 -0.3345  0.3704
 2915TIP3    H230161   3.883   5.580   0.857  1.1067 -0.5275  0.1133
 2916TIP3   OH230162   0.902   3.821   5.735 -0.1894 -0.4967 -0.5200
 2916TIP3    H130163   0.825   3.877   5.722 -0.4119 -0.3774  1.0738
 2916TIP3    H230164   0.932   3.843   5.824  1.6055 -0.6469 -1.0603
 2917TIP3   OH230165   5.992   1.631  14.302 -0.0624 -0.2403  0.2070
 2917TIP3    H130166   6.079   1.652  14.267 -0.0165  0.6543  0.8292
 2917TIP3    H230167   5.931   1.675  14.242 -0.0049  0.7803  0.8752
 2918TIP3   OH230168   6.114   6.570   4.948  0.6022  0.4569  0.0012
 2918TIP3    H130169   6.111   6.515   4.869  1.0536 -0.6395  0.7268
 2918TIP3    H230170   6.061   6.523   5.012 -1.6967  2.4495 -0.2613
 2919TIP3   OH230171   0.607   5.235  16.096  0.4486  0.6760  0.0008
 2919TIP3    H130172   0.606   5.152  16.048 -0.0991 -0.0615  1.2303
 2919TIP3    H230173   0.666   5.291  16.046 -0.0231 -0.0795 -1.4630
 2920TIP3   OH230174   4.276   3.644  13.374 -1.1109  0.5472  0.5348
 2920TIP3    H130175   4.363   3.653  13.413 -1.1200 -2.3708  1.4763
 2920TIP3    H230176   4.293   3.623  13.282 -0.9435  2.3961  0.1130
 2921TIP3   OH230177   6.660   0.313  12.950 -0.3822 -0.4572 -0.3855
 2921TIP3    H130178   6.627   0.324  12.861  0.4395  0.0066 -0.6504
 2921TIP3    H230179   6.707   0.394  12.968  1.1695 -1.3224 -0.3002
 2922TIP3   OH230180   5.196   4.252  12.236  0.2930 -1.0165  0.1265
 2922TIP3    H130181   5.229   4.306  12.164 -0.0598 -1.0199 -0.0386
 2922TIP3    H230182   5.242   4.285  12.313 -0.2961 -0.1226  0.1126
 2923TIP3   OH230183   5.457   3.091   5.979  0.3485 -0.3477  0.3657
 2923TIP3    H130184   5.371   3.130   5.964 -0.0457 -1.4869 -0.4336
 2923TIP3    H230185   5.498   3.149   6.043  0.1220  1.8427 -1.3564
 2924TIP3   OH230186   2.257   6.129   1.056  0.1163 -0.0078  0.8164
 2924TIP3    H130187   2.314   6.054   1.070  1.1429  0.7446  0.7748
 2924TIP3    H230188   2.314   6.196   1.018 -1.4389 -0.3103 -2.4198
 2925TIP3   OH230189   6.414   5.065  13.819  0.4434 -0.1290 -0.1592
 2925TIP3    H130190   6.322   5.083  13.799 -0.0736 -2.1880  0.0947
 2925TIP3    H230191   6.457   5.064  13.733 -0.0091 -0.2734 -0.3893
 2926TIP3   OH230192   4.441   3.835  12.053 -0.1052 -0.5017 -0.4143
 2926TIP3    H130193   4.464   3.861  12.142  1.9640 -1.2289 -0.6832
 2926TIP3    H230194   4.407   3.915  12.012  1.0590  0.4249  0.3684
 2927TIP3   OH230195   3.060   0.801  15.520 -0.3549  0.0936 -0.1674
 2927TIP3    H130196   3.152   0.806  15.496 -0.5981  0.5858 -1.0199
 2927TIP3    H230197   3.013   0.797  15.436 -1.2857  2.7943  0.1354
 2928TIP3   OH230198   6.509   0.368  11.127 -0.0508  0.1427 -0.3003
 2928TIP3    H130199   6.568   0.415  11.187 -1.0219  0.3737  0.5220
 2928TIP3    H230200   6.429   0.420  11.129 -0.3280 -0.2420 -1.2809
 2929TIP3   OH230201   0.422   5.158   0.555 -0.0591  0.5614  0.9888
 2929TIP3    H130202   0.368   5.150   0.476  1.4763  3.4039 -0.5425
 2929TIP3    H230203   0.363   5.191   0.622 -1.2402 -1.2127  0.8938
 2930TIP3   OH230204   2.722   4.297   3.206  0.5055 -0.9826  0.3240
 2930TIP3    H130205   2.661   4.294   3.279 -1.4322  1.1443 -1.0669
 2930TIP3    H230206   2.720   4.208   3.170 -4.0079 -0.4980 -1.2452
 2931TIP3   OH230207   0.113   0.570   2.571  0.3110 -0.5774 -0.2169
 2931TIP3    H130208   0.111   0.561   2.476 -2.4798 -1.0751 -0.2019
 2931TIP3    H230209   0.129   0.663   2.585  3.9299 -0.9397 -1.0010
 2932TIP3   OH230210   2.569   5.655  14.654 -0.3263 -0.3157  0.5427
 2932TIP3    H130211   2.571   5.741  14.697  0.1893 -0.4358  0.7688
 2932TIP3    H230212   2.478   5.627  14.660 -0.1991 -0.5141  1.9352
 2933TIP3   OH230213   4.858   0.825  13.284  0.1448 -1.1158 -0.0544
 2933TIP3    H130214   4.786   0.792  13.231  0.3903  0.9913 -1.8164
 2933TIP3    H230215   4.936   0.784  13.247  0.5359  1.6947 -2.7294
 2934TIP3   OH230216   4.538   6.202   3.396  0.0056  0.5117 -0.0018
 2934TIP3    H130217   4.551   6.184   3.302 -0.4110 -0.7553  0.1745
 2934TIP3    H230218   4.471   6.141   3.423 -0.2629  1.2444  1.0241
 2935TIP3   OH230219   4.031   1.666   2.906 -0.4459 -0.2738 -0.5550
 2935TIP3    H130220   3.972   1.694   2.976 -0.5333  0.1621 -0.7970
 2935TIP3    H230221   4.092   1.606   2.948 -0.2630  0.2824 -0.0202
 2936TIP3   OH230222   4.495   3.585  13.154  0.0700  0.0365  0.1930
 2936TIP3    H130223   4.582   3.550  13.176 -0.0266  0.2322  0.9151
 2936TIP3    H230224   4.468   3.535  13.077  0.9932  0.2490 -0.2815
 2937TIP3   OH230225   1.630   3.082   4.359  0.3833  0.0161  0.0314
 2937TIP3    H130226   1.708   3.090   4.303 -0.3850  1.5306 -0.8879
 2937TIP3    H230227   1.665   3.068   4.447  1.6485 -1.0891 -0.6081
 2938TIP3   OH230228   5.783   3.535  10.593 -0.4733 -0.8677  0.2410
 2938TIP3    H130229   5.823   3.554  10.678 -0.1127  0.2440 -0.1615
 2938TIP3    H230230   5.696   3.500  10.615 -1.0282  0.9353  1.0614
 2939TIP3   OH230231   6.460   4.126  15.212  0.1506 -0.2797 -0.1809
 2939TIP3    H130232   6.554   4.124  15.196  0.5844  2.0738  1.5329
 2939TIP3    H230233   6.422   4.159  15.130  0.7474 -1.2935 -0.8962
 2940TIP3   OH230234   2.738   0.232  10.068 -0.6209  0.0832 -0.0796
 2940TIP3    H130235   2.748   0.320  10.104 -0.0192  0.1672 -0.4277
 2940TIP3    H230236   2.650   0.205  10.093 -1.3530  1.3435 -1.1542
 2941TIP3   OH230237   4.467   5.868  13.874  0.7768 -0.5769  0.0180
 2941TIP3    H130238   4.425   5.950  13.848  1.7852  0.2249  0.7665
 2941TIP3    H230239   4.465   5.813  13.796 -1.4875 -0.5385 -0.0123
 2942TIP3   OH230240   4.906   2.101  11.876 -0.1349  0.7261  0.2538
 2942TIP3    H130241   4.827   2.079  11.827 -0.7056  0.3500  1.3095
 2942TIP3    H230242   4.946   2.017  11.897  1.3247  0.9279 -1.4296
 2943TIP3   OH230243   4.717   5.190   5.646  0.4670  1.1708 -0.3499
 2943TIP3    H130244   4.769   5.195   5.566 -1.9283  1.1698 -2.0173
 2943TIP3    H230245   4.709   5.281   5.675  0.4341  1.2975 -0.7460
 2944TIP3   OH230246   4.698   3.864  17.011 -0.1185 -0.3562 -0.1588
 2944TIP3    H130247   4.685   3.957  17.031  1.3673 -0.4020  1.2197
 2944TIP3    H230248   4.772   3.838  17.066  0.2524 -2.0769 -1.4029
 2945TIP3   OH230249   1.610   1.729  11.221 -0.0048  0.0978 -0.1406
 2945TIP3    H130250   1.600   1.824  11.221  1.4144  0.2736 -0.4934
 2945TIP3    H230251   1.622   1.705  11.313  0.1218  0.3255 -0.0970
 2946TIP3   OH230252   0.999   4.330  17.070 -0.0591  0.1018  0.7194
 2946TIP3    H130253   0.998   4.335  16.975  0.9985  0.8287  0.7399
 2946TIP3    H230254   0.913   4.362  17.097  0.0813  1.0491  0.0600
 2947TIP3   OH230255   4.008   6.769   1.580  0.0108  0.6548  0.0827
 2947TIP3    H130256   4.085   6.766   1.636 -0.9077  0.8398  1.3990
 2947TIP3    H230257   4.030   6.715   1.504  1.2323  0.3069  0.6787
 2948TIP3   OH230258   3.552   3.419   5.397 -0.1566  0.0166  0.4261
 2948TIP3    H130259   3.465   3.413   5.359  0.8990  1.7054 -2.6608
 2948TIP3    H230260   3.611   3.421   5.322  2.2260  2.9947  2.1186
 2949TIP3   OH230261   1.067   1.083   3.977 -0.0618 -0.3312 -0.1199
 2949TIP3    H130262   1.153   1.055   4.009 -0.2653 -3.4186 -1.9567
 2949TIP3    H230263   1.016   1.100   4.057  1.9649  0.9080  1.0089
 2950TIP3   OH230264   3.034   3.277   0.892 -0.1493 -0.1675 -0.6139
 2950TIP3    H130265   3.051   3.227   0.972  0.4298  0.0196 -0.6088
 2950TIP3    H230266   2.939   3.281   0.885 -0.2059 -0.1216  0.1078
 2951TIP3   OH230267   3.036   6.440  15.912  0.5250 -0.1807  0.1900
 2951TIP3    H130268   2.986   6.362  15.936  2.7110 -2.6628 -2.5350
 2951TIP3    H230269   2.982   6.484  15.847  0.4497 -1.0409 -0.3456
 2952TIP3   OH230270   6.050   2.884  11.653  0.1868  0.5574 -0.4717
 2952TIP3    H130271   6.011   2.962  11.613  2.1175  2.1970  0.5878
 2952TIP3    H230272   6.029   2.892  11.746  1.0645  0.2774 -0.2378
 2953TIP3   OH230273   4.367   5.673   5.514  0.5999 -0.0624 -0.3210
 2953TIP3    H130274   4.312   5.603   5.481 -0.6856  0.6354  0.2672
 2953TIP3    H230275   4.414   5.705   5.437  0.1867 -0.6713 -0.8395
 2954TIP3   OH230276   6.782   3.841  15.374  0.1749  0.1216  0.0591
 2954TIP3    H130277   6.834   3.899  15.318 -1.0328 -0.3590 -1.6379
 2954TIP3    H230278   6.825   3.756  15.367 -0.4800 -0.1457 -0.8954
 2955TIP3   OH230279   1.472   4.116  11.550  0.1316 -0.4315  0.2140
 2955TIP3    H130280   1.419   4.070  11.484 -0.3733 -0.1153  0.3933
 2955TIP3    H230281   1.423   4.195  11.569  0.6490 -0.1597  0.4299
 2956TIP3   OH230282   5.134   0.923   2.265 -0.2227  0.2838 -0.0355
 2956TIP3    H130283   5.225   0.954   2.272 -0.1958  0.1817  0.0661
 2956TIP3    H230284   5.110   0.900   2.354 -1.1896  2.6738  0.4030
 2957TIP3   OH230285   5.627   5.066  14.509  0.8684  0.3326 -0.2397
 2957TIP3    H130286   5.643   5.158  14.491  1.1617  0.8349  2.2999
 2957TIP3    H230287   5.612   5.061  14.603 -0.3352 -2.0616 -0.4694
 2958TIP3   OH230288   0.535   0.328   0.123  0.7470  0.2441 -0.5911
 2958TIP3    H130289   0.546   0.310   0.217  0.6427  0.6140 -0.5095
 2958TIP3    H230290   0.506   0.244   0.087  1.4403 -0.0819 -0.4049
 2959TIP3   OH230291   1.746   4.637  13.291 -0.0029  0.2560  0.7842
 2959TIP3    H130292   1.812   4.698  13.256 -1.3690  1.4623  0.2289
 2959TIP3    H230293   1.662   4.680  13.274 -1.0610 -2.0175 -0.0942
 2960TIP3   OH230294   2.310   5.345  11.495  0.2319  0.4607  0.5204
 2960TIP3    H130295   2.240   5.304  11.546 -1.3807  0.3076 -1.6749
 2960TIP3    H230296   2.390   5.313  11.535 -0.9179  0.3474  2.9123
 2961TIP3   OH230297   2.419   2.800  13.659  0.5660 -0.8479 -0.1920
 2961TIP3    H130298   2.405   2.759  13.574 -1.0122  2.0208 -1.4798
 2961TIP3    H230299   2.504   2.845  13.650 -0.3803  0.8981 -1.0066
 2962TIP3   OH230300   0.259   3.921   1.986  0.2887 -0.2982 -0.2782
 2962TIP3    H130301   0.253   4.012   1.956  0.2893  0.1650  1.0535
 2962TIP3    H230302   0.233   3.925   2.078  1.7134 -1.4293  0.1968
 2963TIP3   OH230303   2.289   4.787   1.525 -0.8135  0.5575  0.8060
 2963TIP3    H130304   2.221   4.746   1.579  0.5642 -1.9051  0.8543
 2963TIP3    H230305   2.372   4.755   1.562  0.2192 -0.9031 -2.3872
 2964TIP3   OH230306   2.584   5.703  14.118  0.4763  0.0484  0.3391
 2964TIP3    H130307   2.545   5.719  14.204  0.2601 -1.4245  0.5482
 2964TIP3    H230308   2.537   5.627  14.084  0.8770  0.3322 -0.8842
 2965TIP3   OH230309   3.545   4.126  15.508 -0.3488 -0.0703  0.0445
 2965TIP3    H130310   3.621   4.088  15.463  0.6482  1.4090  0.4247
 2965TIP3    H230311   3.562   4.110  15.601 -1.1070 -0.7861  0.0688
 2966TIP3   OH230312   4.251   6.431   1.363  0.2934 -0.3529 -0.0167
 2966TIP3    H130313   4.271   6.348   1.319  0.5618  0.0413 -0.6491
 2966TIP3    H230314   4.234   6.406   1.454 -2.2110 -1.4669 -0.6902
 2967TIP3   OH230315   0.393   6.502  10.167 -0.2183  0.0300 -0.3731
 2967TIP3    H130316   0.434   6.565  10.226  0.0433  0.0901 -0.6180
 2967TIP3    H230317   0.345   6.555  10.104 -0.3428 -0.0289 -0.3288
 2968TIP3   OH230318   6.177   6.010  15.620  0.1638 -0.8260 -0.3391
 2968TIP3    H130319   6.164   6.075  15.689 -1.4762  0.7280 -1.9832
 2968TIP3    H230320   6.129   5.932  15.651 -0.1232 -0.3338  0.4882
 2969TIP3   OH230321   2.511   5.748  15.678  0.0309  0.3127 -0.2580
 2969TIP3    H130322   2.575   5.815  15.653 -0.8037  1.0515 -0.4849
 2969TIP3    H230323   2.563   5.673  15.706  0.9880  1.0487 -0.0399
 2970TIP3   OH230324   4.730   4.715  15.530 -0.3384  0.0674  0.1127
 2970TIP3    H130325   4.806   4.714  15.471  2.1191  1.0166  2.9892
 2970TIP3    H230326   4.737   4.633  15.579 -1.2578  0.1283  0.3658
 2971TIP3   OH230327   4.441   4.825  12.161 -0.0027  0.1018  0.1379
 2971TIP3    H130328   4.434   4.739  12.203 -0.8096 -0.4880 -1.1338
 2971TIP3    H230329   4.361   4.832  12.108  1.2379  0.5170 -1.7663
 2972TIP3   OH230330   3.710   3.682  12.682  0.4019  0.3550 -0.0954
 2972TIP3    H130331   3.769   3.723  12.746  0.3492  0.7393 -0.2920
 2972TIP3    H230332   3.623   3.714  12.706  0.3856  0.5231 -0.3737
 2973TIP3   OH230333   4.202   1.001   1.261 -0.1925  0.6711 -0.3415
 2973TIP3    H130334   4.150   1.028   1.186  0.0857 -0.1053 -0.8224
 2973TIP3    H230335   4.167   1.052   1.334 -1.5165  0.2890 -0.6914
 2974TIP3   OH230336   6.662   0.410  13.345  0.0755 -0.4552  0.0598
 2974TIP3    H130337   6.730   0.350  13.315  0.7802  0.5733 -0.4394
 2974TIP3    H230338   6.708   0.492  13.364 -1.0323  0.3183 -0.4705
 2975TIP3   OH230339   1.120   5.366   3.666  0.5165  1.0187 -0.1821
 2975TIP3    H130340   1.188   5.356   3.600 -1.4212 -1.7520 -2.0275
 2975TIP3    H230341   1.059   5.429   3.627  0.2072  0.6529 -0.2997
 2976TIP3   OH230342   5.500   0.645  12.190  0.0161 -0.0737  0.4935
 2976TIP3    H130343   5.440   0.630  12.117 -1.1079  1.3996  1.0479
 2976TIP3    H230344   5.546   0.562  12.202 -1.7653 -1.1951 -0.1222
 2977TIP3   OH230345   1.944   0.150   6.993 -0.1174  0.8026  0.0583
 2977TIP3    H130346   2.006   0.151   6.921  0.5886 -0.0277  0.6329
 2977TIP3    H230347   1.987   0.097   7.061 -1.4647  0.1420  0.4379
 2978TIP3   OH230348   0.019   5.902   1.846 -0.7799  0.2049  0.1419
 2978TIP3    H130349  -0.016   5.826   1.801 -1.7142  0.8742 -0.3034
 2978TIP3    H230350  -0.036   5.975   1.817 -0.0110  1.0279  0.6704
 2979TIP3   OH230351   1.110   6.689   0.966  0.0055  0.2855  0.3464
 2979TIP3    H130352   1.071   6.617   1.016  0.5669 -0.1075  0.2256
 2979TIP3    H230353   1.081   6.675   0.876 -1.4240  1.2807  0.6239
 2980TIP3   OH230354   2.458   1.922  15.651  0.2626 -0.0710  0.0330
 2980TIP3    H130355   2.406   1.866  15.709 -1.9033 -0.1542 -1.8402
 2980TIP3    H230356   2.459   1.874  15.567  0.8722  1.3214 -0.7873
 2981TIP3   OH230357   6.397   1.364   1.154 -0.3101  0.3357 -0.3280
 2981TIP3    H130358   6.376   1.281   1.111  1.2775  0.7327 -1.9895
 2981TIP3    H230359   6.465   1.342   1.217 -0.6769  0.2096  0.0288
 2982TIP3   OH230360   3.944   1.489   3.389  0.5083 -0.0137 -0.4683
 2982TIP3    H130361   3.947   1.472   3.483 -0.5360  1.3903 -0.1456
 2982TIP3    H230362   3.887   1.421   3.354  2.0764 -1.4504 -0.3507
 2983TIP3   OH230363   4.807   0.758   5.443  0.5646 -0.2534  0.4088
 2983TIP3    H130364   4.738   0.800   5.392  0.0866 -3.0229 -1.4571
 2983TIP3    H230365   4.762   0.690   5.494  1.7506 -1.3449  0.0569
 2984TIP3   OH230366   1.334   6.650  11.217  0.3248  0.2088 -0.3713
 2984TIP3    H130367   1.398   6.718  11.236  0.3538 -0.0241  0.4168
 2984TIP3    H230368   1.386   6.572  11.200  0.2693 -0.0608  0.5886
 2985TIP3   OH230369   5.935   4.137   4.157  0.1464  0.1479 -0.2537
 2985TIP3    H130370   5.947   4.062   4.099 -0.6219  2.4292 -3.6835
 2985TIP3    H230371   6.023   4.158   4.188  0.5483 -1.2988 -0.3438
 2986TIP3   OH230372   6.578   6.289  16.345  0.0235  0.4499  0.1241
 2986TIP3    H130373   6.541   6.287  16.433 -2.3114  0.1962 -0.7915
 2986TIP3    H230374   6.504   6.266  16.287  1.9655 -1.5750 -1.7452
 2987TIP3   OH230375   6.421   5.703   2.126  0.3274 -0.2155 -0.0252
 2987TIP3    H130376   6.491   5.647   2.092 -0.1754 -0.1629 -1.2236
 2987TIP3    H230377   6.340   5.667   2.088 -0.1581  0.4550  0.3338
 2988TIP3   OH230378   2.260   0.568   5.985  1.2670  0.0515 -0.0076
 2988TIP3    H130379   2.341   0.597   6.026  1.1778  0.4618 -0.1178
 2988TIP3    H230380   2.215   0.517   6.053  0.7446  1.3830  0.6947
 2989TIP3   OH230381   1.935   1.405   4.647 -0.0530 -0.3818 -0.7024
 2989TIP3    H130382   1.986   1.450   4.579 -1.8267 -1.5235 -2.9272
 2989TIP3    H230383   1.926   1.315   4.615 -0.3238 -1.1864  1.4657
 2990TIP3   OH230384   6.115   6.497   4.690  0.2162 -0.5142 -0.4042
 2990TIP3    H130385   6.166   6.570   4.655  2.3221 -2.0230 -0.6394
 2990TIP3    H230386   6.043   6.486   4.628 -0.6865  1.8775  0.1127
 2991TIP3   OH230387   3.039   1.119  13.006  0.1392 -0.1615  0.4348
 2991TIP3    H130388   3.031   1.087  13.096  1.7328 -0.1223  0.6170
 2991TIP3    H230389   2.956   1.096  12.965 -1.8229  2.2704  2.6384
 2992TIP3   OH230390   5.090   4.957   2.939  0.4033  0.0480  0.0233
 2992TIP3    H130391   5.084   5.049   2.913  1.0693 -0.1009 -0.6915
 2992TIP3    H230392   5.042   4.910   2.870 -1.0215 -0.0584  1.0381
 2993TIP3   OH230393   5.481   5.384   2.888 -0.0845  0.1730 -0.1762
 2993TIP3    H130394   5.499   5.474   2.861 -0.0587 -0.1279 -1.2094
 2993TIP3    H230395   5.520   5.330   2.819  2.1744 -0.7407  1.6671
 2994TIP3   OH230396   1.048   0.190  13.935  0.4798 -0.0749 -0.0069
 2994TIP3    H130397   1.138   0.216  13.917 -0.0575  1.1827 -1.0694
 2994TIP3    H230398   1.053   0.096  13.951  1.8009 -0.3035 -1.4878
 2995TIP3   OH230399   3.367   5.960   3.800  0.4244 -0.2513 -0.1374
 2995TIP3    H130400   3.324   6.030   3.751 -0.5725 -0.9732 -0.3303
 2995TIP3    H230401   3.429   5.922   3.738 -0.7770 -1.1121 -0.8665
 2996TIP3   OH230402   2.931   1.809  15.114 -0.9263 -0.1126 -0.3353
 2996TIP3    H130403   2.852   1.819  15.166 -0.2687 -1.2680  0.9503
 2996TIP3    H230404   3.003   1.820  15.176 -0.0957 -0.4052 -1.2080
 2997TIP3   OH230405   1.646   3.783  12.730 -0.7631  0.1077 -0.1043
 2997TIP3    H130406   1.616   3.837  12.658  1.9250 -0.5619 -1.8632
 2997TIP3    H230407   1.694   3.843  12.787 -0.3592  0.1087 -0.4467
 2998TIP3   OH230408   5.301   0.239  15.246  0.2775 -0.0453 -0.6569
 2998TIP3    H130409   5.267   0.149  15.251 -1.5717  0.6043  4.2900
 2998TIP3    H230410   5.370   0.242  15.312  0.5785  2.0802 -1.0060
 2999TIP3   OH230411   1.443   6.620   5.701 -0.0448  0.0549 -0.3480
 2999TIP3    H130412   1.486   6.608   5.617  0.0556 -1.1377 -0.1451
 2999TIP3    H230413   1.511   6.602   5.766 -0.2116  0.6075 -0.0148
 3000TIP3   OH230414   0.161   0.849   2.622  0.0240 -0.2359  0.1839
 3000TIP3    H130415   0.248   0.864   2.659 -0.2311  1.5700  0.1350
 3000TIP3    H230416   0.167   0.882   2.533 -0.6237 -0.3971  0.0775
 3001TIP3   OH230417   1.433   1.824   1.152  0.6424 -0.3853 -0.3337
 3001TIP3    H130418   1.455   1.821   1.059 -0.5000  0.2155 -0.6284
 3001TIP3    H230419   1.437   1.916   1.175 -1.5816 -0.2141 -0.4236
 3002TIP3   OH230420   6.430   2.485  11.948  0.0179  0.3472 -0.0857
 3002TIP3    H130421   6.495   2.448  12.008  0.6592 -2.7232 -2.4050
 3002TIP3    H230422   6.476   2.554  11.901  1.2946 -0.9584 -0.8291
 3003TIP3   OH230423   2.267   1.123  14.529 -0.5317  0.2342  0.0099
 3003TIP3    H130424   2.299   1.091  14.613 -0.6091 -0.7048 -0.3050
 3003TIP3    H230425   2.231   1.210  14.548 -2.5814 -0.8265  1.4074
 3004TIP3   OH230426   0.336   0.461   2.191 -0.9599  0.0368 -0.1120
 3004TIP3    H130427   0.262   0.521   2.200  1.0829  2.7697 -0.1829
 3004TIP3    H230428   0.327   0.424   2.104 -1.6279  1.2435 -0.5808
 3005TIP3   OH230429   6.406   3.718  12.990 -0.0094  0.5531  0.1912
 3005TIP3    H130430   6.421   3.678  13.075 -2.2804  1.5462  1.1567
 3005TIP3    H230431   6.474   3.784  12.982  1.2668 -0.6863  0.4175
 3006TIP3   OH230432   3.037   6.416   4.233  0.1434 -0.5408 -0.3400
 3006TIP3    H130433   2.985   6.446   4.159 -0.5551 -0.2158  0.2740
 3006TIP3    H230434   3.127   6.437   4.209  0.0542 -1.4383 -1.5648
 3007TIP3   OH230435   5.481   2.149   1.655 -0.5473  1.0043  0.1406
 3007TIP3    H130436   5.397   2.192   1.638 -2.0100 -1.2667  1.1492
 3007TIP3    H230437   5.488   2.081   1.589  0.7260  1.3681 -0.1419
 3008TIP3   OH230438   1.091   2.792  16.000 -0.0312  0.0616  0.0405
 3008TIP3    H130439   1.075   2.812  16.093  0.2096  2.1714 -0.3213
 3008TIP3    H230440   1.061   2.702  15.990 -0.6187 -0.0264  2.0357
 3009TIP3   OH230441   2.679   3.362  14.754  0.5898 -0.4609  0.2432
 3009TIP3    H130442   2.665   3.418  14.831  0.8241  1.0788 -0.7774
 3009TIP3    H230443   2.674   3.423  14.680 -1.4348 -2.1613 -1.1119
 3010TIP3   OH230444   6.591   1.958  11.831  0.4889  0.2227 -0.1868
 3010TIP3    H130445   6.568   1.892  11.897  1.2817 -0.0193 -0.1389
 3010TIP3    H230446   6.648   1.912  11.770  0.1737  0.5862 -0.7598
 3011TIP3   OH230447   5.154   5.219  14.716 -0.2998  0.1914 -0.5243
 3011TIP3    H130448   5.139   5.125  14.727  0.8629  0.0889  0.4068
 3011TIP3    H230449   5.210   5.226  14.639  1.1220 -0.0567  0.4474
 3012TIP3   OH230450   2.224   2.189   1.782 -0.0752  0.0670 -0.2071
 3012TIP3    H130451   2.281   2.113   1.789  0.9798  0.8474 -0.1324
 3012TIP3    H230452   2.230   2.216   1.691  0.4603  0.7356  0.0164
 3013TIP3   OH230453   0.978   4.630  16.600  0.2062 -0.0115 -0.2766
 3013TIP3    H130454   0.950   4.678  16.678 -1.1246  1.2835 -1.4647
 3013TIP3    H230455   0.897   4.616  16.551  1.0873 -0.1235 -1.7662
 3014TIP3   OH230456   1.682   1.581  13.492  0.1697  0.0112 -0.2339
 3014TIP3    H130457   1.672   1.567  13.398  0.3498 -1.3590 -0.0567
 3014TIP3    H230458   1.599   1.621  13.519  0.7856  2.1474 -1.2558
 3015TIP3   OH230459   5.764   3.137  11.201 -0.0198  0.0813  0.1395
 3015TIP3    H130460   5.697   3.121  11.267 -0.1943 -2.3736 -0.5513
 3015TIP3    H230461   5.789   3.050  11.170  1.9554  1.0427 -1.1516
 3016TIP3   OH230462   0.285   0.282   3.103  0.1079 -0.0614 -0.2210
 3016TIP3    H130463   0.327   0.367   3.116  1.3084 -0.3793 -1.7305
 3016TIP3    H230464   0.192   0.301   3.102  0.3315  1.1515  0.0443
 3017TIP3   OH230465   4.090   2.993  14.994  0.2759  0.2067  0.2677
 3017TIP3    H130466   4.171   2.955  14.958  0.5743 -0.2757  1.3976
 3017TIP3    H230467   4.116   3.080  15.023  0.4998 -0.0934  0.9897
 3018TIP3   OH230468   1.534   2.283   0.552  0.4176 -0.1205 -0.7085
 3018TIP3    H130469   1.542   2.188   0.551 -0.4298 -0.2093 -1.9514
 3018TIP3    H230470   1.501   2.304   0.639 -2.3843 -1.3042 -1.3747
 3019TIP3   OH230471   2.649   6.472  16.571  0.2764 -0.4960 -0.4200
 3019TIP3    H130472   2.727   6.421  16.549 -0.1229 -1.2012 -0.2384
 3019TIP3    H230473   2.609   6.426  16.644  0.3821  0.5899  0.3504
 3020TIP3   OH230474   4.424   1.648  13.680 -0.4579  0.0972  0.9826
 3020TIP3    H130475   4.353   1.640  13.744  0.3371 -1.0164  1.7787
 3020TIP3    H230476   4.474   1.567  13.690  1.4729  1.2524  1.1202
 3021TIP3   OH230477   1.726   3.191  11.649 -0.7057  0.7912 -0.3571
 3021TIP3    H130478   1.797   3.162  11.592 -1.4521 -0.6172 -0.6194
 3021TIP3    H230479   1.769   3.238  11.721  0.4456  0.2444 -0.6815
 3022TIP3   OH230480   1.836   3.157  16.898 -0.0456  0.0472 -0.1313
 3022TIP3    H130481   1.803   3.110  16.822 -1.2949 -0.6576  0.8147
 3022TIP3    H230482   1.766   3.220  16.920 -0.6131 -1.0946  1.5719
 3023TIP3   OH230483   5.950   2.484  16.757  0.0624 -0.3958 -0.6124
 3023TIP3    H130484   6.036   2.506  16.794  0.3167 -2.3936  0.0945
 3023TIP3    H230485   5.967   2.414  16.695 -1.1036 -1.2091 -0.0532
 3024TIP3   OH230486   5.186   5.230   2.820 -0.3310  0.0185 -0.4895
 3024TIP3    H130487   5.170   5.241   2.914  1.5317 -0.7590 -0.0426
 3024TIP3    H230488   5.164   5.315   2.782 -2.4824 -0.0770  0.4096
 3025TIP3   OH230489   2.744   2.577  16.379 -0.8595 -0.2298  0.1932
 3025TIP3    H130490   2.675   2.581  16.446 -0.9871  0.2087  0.0355
 3025TIP3    H230491   2.718   2.642  16.314 -0.9192 -0.8837 -0.4608
 3026TIP3   OH230492   2.361   3.135   2.224 -0.5536  0.1904 -0.0755
 3026TIP3    H130493   2.448   3.136   2.265  0.0388  0.8688 -1.3061
 3026TIP3    H230494   2.302   3.107   2.294  0.8951 -2.2416  0.2986
 3027TIP3   OH230495   2.912   2.674  11.302  0.5639  0.1376  0.2907
 3027TIP3    H130496   2.823   2.704  11.284  0.5803 -0.2004 -0.3731
 3027TIP3    H230497   2.968   2.747  11.275  0.5626 -0.1928 -0.6319
 3028TIP3   OH230498   1.665   2.250   0.256 -0.2695 -0.2805 -0.0053
 3028TIP3    H130499   1.702   2.197   0.326  0.1571 -1.8440 -1.3383
 3028TIP3    H230500   1.639   2.332   0.298  0.9089 -0.7600  1.7533
 3029TIP3   OH230501   3.411   4.620   4.547  0.6429  0.5287  0.3637
 3029TIP3    H130502   3.334   4.630   4.490  1.6887 -0.1740 -1.2393
 3029TIP3    H230503   3.480   4.589   4.489  1.8462  0.0195  1.9952
 3030TIP3   OH230504   0.596   0.891  14.806  0.4865  0.4267 -1.0544
 3030TIP3    H130505   0.606   0.798  14.786  0.0389  0.3994 -1.1862
 3030TIP3    H230506   0.605   0.935  14.721 -1.3046  0.3212 -1.3552
 3031TIP3   OH230507   1.347   6.149   2.962 -0.4016  1.0320 -0.8542
 3031TIP3    H130508   1.396   6.216   3.009  0.3467  0.8218 -1.3188
 3031TIP3    H230509   1.413   6.098   2.917 -0.9429 -0.1384 -0.3685
 3032TIP3   OH230510   0.059   0.024   3.790 -0.4532 -0.3153  0.2547
 3032TIP3    H130511   0.077  -0.027   3.869  1.3156 -0.0071  0.1048
 3032TIP3    H230512   0.127   0.091   3.789 -2.3743  1.7320  0.1254
 3033TIP3   OH230513   0.160   4.656  16.430 -0.5116  0.0947  0.0856
 3033TIP3    H130514   0.144   4.622  16.518 -0.8104  1.3995  0.5635
 3033TIP3    H230515   0.144   4.750  16.438 -0.1720  0.2853 -1.2807
 3034TIP3   OH230516   1.058   1.116  14.840  0.0134 -0.3700  0.3201
 3034TIP3    H130517   1.073   1.196  14.892 -0.5458 -0.1490  0.1400
 3034TIP3    H230518   1.146   1.080  14.827  0.0795 -1.6299  3.3008
 3035TIP3   OH230519   3.130   2.363   3.833  0.5088  0.5231  0.0243
 3035TIP3    H130520   3.094   2.321   3.755  1.4289 -1.7758  0.7480
 3035TIP3    H230521   3.060   2.355   3.898  1.2739 -1.6125  0.6727
 3036TIP3   OH230522   4.955   6.182  15.849 -0.2474  0.1832  0.0732
 3036TIP3    H130523   5.005   6.131  15.913  0.0939 -0.2304 -0.5135
 3036TIP3    H230524   4.881   6.216  15.899  0.7870  1.0953  1.0501
 3037TIP3   OH230525   5.488   4.844  11.723  0.7861 -0.1625 -0.0562
 3037TIP3    H130526   5.465   4.754  11.698 -1.0758  0.6332 -1.5012
 3037TIP3    H230527   5.434   4.862  11.800 -2.9186  1.2245 -2.6254
 3038TIP3   OH230528   2.549   2.250  14.208 -0.0472 -0.5184 -0.0636
 3038TIP3    H130529   2.454   2.246  14.196 -0.2885  2.2572  0.3166
 3038TIP3    H230530   2.561   2.295  14.291  1.5330  1.5960 -1.3330
 3039TIP3   OH230531   1.730   4.554  11.552 -0.6932 -0.0961 -0.6119
 3039TIP3    H130532   1.714   4.589  11.464  0.5060 -0.8395 -1.1471
 3039TIP3    H230533   1.693   4.466  11.550 -0.3605 -0.2390 -0.4850
 3040TIP3   OH230534   4.434   0.798   2.413  0.2769 -0.2528 -0.4119
 3040TIP3    H130535   4.390   0.728   2.461  2.2427 -0.7854  0.7144
 3040TIP3    H230536   4.471   0.755   2.336 -1.6576  0.3259 -1.7227
 3041TIP3   OH230537   4.581   3.338  15.803 -0.5770  0.1304  0.4157
 3041TIP3    H130538   4.503   3.387  15.829 -0.3018  0.6912  0.2172
 3041TIP3    H230539   4.654   3.396  15.826 -0.1192 -1.0117  1.9821
 3042TIP3   OH230540   5.978   0.390   5.806 -0.2495  0.2050  0.1581
 3042TIP3    H130541   5.957   0.369   5.897 -0.0662 -1.0678 -0.0749
 3042TIP3    H230542   6.056   0.339   5.787 -0.2746  0.4734 -0.7122
 3043TIP3   OH230543   4.288   2.433   3.500  0.5270 -0.1347 -0.2990
 3043TIP3    H130544   4.198   2.438   3.534  0.4428 -0.1533 -0.5110
 3043TIP3    H230545   4.333   2.507   3.539  1.3959 -2.0015  2.5662
 3044TIP3   OH230546   1.256   2.332   2.831 -0.4427  0.3277  0.3296
 3044TIP3    H130547   1.171   2.350   2.790 -0.2535  0.1277 -0.1610
 3044TIP3    H230548   1.315   2.399   2.794 -0.4023  0.5168  0.7285
 3045TIP3   OH230549   6.604   1.355  11.917 -0.2389 -0.4498  0.1975
 3045TIP3    H130550   6.688   1.367  11.961  0.2057 -1.6435 -0.2811
 3045TIP3    H230551   6.627   1.323  11.830 -1.1467  0.6417 -0.4799
 3046TIP3   OH230552   2.707   6.165  14.547  0.1121  0.2555 -0.3715
 3046TIP3    H130553   2.617   6.163  14.581 -0.1295  2.2885 -0.7079
 3046TIP3    H230554   2.713   6.090  14.489 -1.6074  0.4604 -0.8665
 3047TIP3   OH230555   2.045   2.719  12.545  0.2101  0.1779  0.2161
 3047TIP3    H130556   2.060   2.788  12.481 -0.1267  0.5061  0.4942
 3047TIP3    H230557   1.958   2.684  12.524  1.4336 -2.0781 -1.7243
 3048TIP3   OH230558   4.403   5.797   1.593 -0.0008 -0.2627  0.1000
 3048TIP3    H130559   4.387   5.773   1.684 -0.9823  2.6377  0.7953
 3048TIP3    H230560   4.443   5.719   1.554  0.3243 -1.6361  2.9506
 3049TIP3   OH230561   4.879   3.596   3.683 -0.2448 -0.1452  0.2360
 3049TIP3    H130562   4.844   3.605   3.771  0.9726  1.3610  0.6089
 3049TIP3    H230563   4.946   3.664   3.677  0.1860 -0.6835 -1.6118
 3050TIP3   OH230564   3.079   5.073   0.272  0.0294 -0.1119 -0.2384
 3050TIP3    H130565   3.059   5.050   0.362 -0.7630  2.2515  0.2666
 3050TIP3    H230566   3.142   5.144   0.278  0.6076 -0.4679 -1.5899
 3051TIP3   OH230567   4.126   2.626   2.937  0.1609  0.0224 -0.0555
 3051TIP3    H130568   4.122   2.616   2.842  2.8803  0.5295 -0.3197
 3051TIP3    H230569   4.159   2.715   2.951  0.8905 -0.4170  1.2945
 3052TIP3   OH230570   1.580   2.949  16.236 -0.6325  0.0661  0.1891
 3052TIP3    H130571   1.519   3.011  16.276 -0.9898 -0.4181  0.4188
 3052TIP3    H230572   1.548   2.863  16.265  0.3196 -0.1811  0.5161
 3053TIP3   OH230573   0.284   1.412   2.896  0.1860  0.1286 -0.3012
 3053TIP3    H130574   0.196   1.451   2.896  1.3612  3.0958 -1.0568
 3053TIP3    H230575   0.326   1.450   2.974  0.7322 -1.5036  0.2275
 3054TIP3   OH230576   4.386   4.014   1.838 -0.2331 -0.5985 -0.6790
 3054TIP3    H130577   4.375   3.919   1.852 -0.7781 -0.5480 -0.7307
 3054TIP3    H230578   4.383   4.025   1.743 -0.7201 -0.4754 -0.6560
 3055TIP3   OH230579   1.987   1.514  13.164 -0.0070  0.0957  0.0314
 3055TIP3    H130580   1.972   1.431  13.121  0.2888  0.2802 -0.4351
 3055TIP3    H230581   2.041   1.564  13.102 -1.3132  1.1530 -0.3082
 3056TIP3   OH230582   5.253   6.791  16.363 -0.5886 -0.3143 -0.8674
 3056TIP3    H130583   5.306   6.816  16.288 -0.5233 -0.6858 -0.9470
 3056TIP3    H230584   5.218   6.873  16.397  1.5056  0.1577  0.2940
 3057TIP3   OH230585   1.439   1.880  13.807 -0.0493 -0.0372 -0.3335
 3057TIP3    H130586   1.350   1.856  13.832  0.1846  0.0955  0.6570
 3057TIP3    H230587   1.491   1.802  13.823  0.4423  0.6021  1.4791
 3058TIP3   OH230588   3.119   3.578   5.140 -0.1304 -0.1587 -0.2157
 3058TIP3    H130589   3.088   3.536   5.060 -2.6670 -0.3483  0.7802
 3058TIP3    H230590   3.078   3.529   5.211  0.2326  1.3870  1.1327
 3059TIP3   OH230591   1.273   6.114   1.505 -0.5676 -0.2080  0.0353
 3059TIP3    H130592   1.216   6.167   1.449  0.0476 -0.8073 -1.2130
 3059TIP3    H230593   1.357   6.113   1.459  1.3039  2.6734  3.0041
 3060TIP3   OH230594   2.178   6.203  13.707 -0.1997  0.2036  0.4202
 3060TIP3    H130595   2.104   6.173  13.760 -0.8604 -0.3495 -0.7752
 3060TIP3    H230596   2.251   6.147  13.734 -1.0333 -1.4747 -0.6695
 3061TIP3   OH230597   2.929   1.710   3.110 -0.5974 -0.4262  0.2494
 3061TIP3    H130598   2.970   1.679   3.030  1.0056  0.2123  0.7777
 3061TIP3    H230599   2.835   1.694   3.098 -0.5926  1.0157 -2.3703
 3062TIP3   OH230600   6.132   1.631  13.480 -0.3026 -0.7010 -0.3317
 3062TIP3    H130601   6.044   1.638  13.442 -0.3623  1.7962  0.0744
 3062TIP3    H230602   6.149   1.718  13.517  1.7941 -1.5344  0.8378
 3063TIP3   OH230603   3.006   2.860   3.238  0.3602  0.4182 -0.0304
 3063TIP3    H130604   3.073   2.928   3.240 -0.7055  1.5332 -0.7560
 3063TIP3    H230605   3.043   2.791   3.183  1.1360  0.7380  0.0723
 3064TIP3   OH230606   0.486   6.514   3.546  0.1385  0.3491 -0.0988
 3064TIP3    H130607   0.512   6.567   3.470  1.1728  1.3452  0.8980
 3064TIP3    H230608   0.391   6.517   3.546 -0.2612 -3.2244 -3.7721
 3065TIP3   OH230609   5.383   4.872   3.443 -0.6684 -0.0679  0.2662
 3065TIP3    H130610   5.455   4.820   3.407 -0.2015 -0.8394  2.1730
 3065TIP3    H230611   5.372   4.838   3.532 -3.2960  0.1600  0.0837
 3066TIP3   OH230612   1.479   3.729   4.369 -0.0753  0.1258 -0.1481
 3066TIP3    H130613   1.529   3.703   4.445 -0.0230 -2.8473 -1.0855
 3066TIP3    H230614   1.533   3.795   4.326  0.5252  0.8263  1.6063
 3067TIP3   OH230615   0.698   4.828  14.826  0.3080 -0.8145 -0.1718
 3067TIP3    H130616   0.622   4.884  14.809 -0.3607 -1.3098  1.0587
 3067TIP3    H230617   0.697   4.765  14.753  1.2181  0.8589 -1.7045
 3068TIP3   OH230618   1.403   0.073   5.800  0.1809  0.0214 -0.3287
 3068TIP3    H130619   1.414  -0.021   5.783 -0.7567 -0.1553 -0.0053
 3068TIP3    H230620   1.325   0.097   5.750  1.0387  0.8799 -1.3020
 3069TIP3   OH230621   3.083   3.753  16.810  0.4272 -0.1731 -0.3481
 3069TIP3    H130622   3.075   3.786  16.720  0.2492  2.8051  0.6436
 3069TIP3    H230623   3.175   3.769  16.832 -0.0030  1.0296  0.6373
 3070TIP3   OH230624   3.254   3.686  15.243  0.1616  0.3699 -0.7368
 3070TIP3    H130625   3.202   3.656  15.169 -0.6408 -0.7721  0.2513
 3070TIP3    H230626   3.200   3.751  15.287  1.1438  1.9743 -1.8205
 3071TIP3   OH230627   5.983   5.383   3.970 -0.0783 -0.2860 -0.3972
 3071TIP3    H130628   5.948   5.294   3.978 -0.0698 -0.1305  4.7108
 3071TIP3    H230629   5.911   5.440   3.996  0.6531  1.0146 -1.1156
 3072TIP3   OH230630   0.121   5.941   3.413 -0.2733 -0.0181 -0.2214
 3072TIP3    H130631   0.078   5.856   3.406  0.1526 -0.2477 -0.0719
 3072TIP3    H230632   0.214   5.921   3.418 -0.2567  0.3610  1.6913
 3073TIP3   OH230633   1.561   6.043  12.499 -0.1769 -0.3985 -0.0138
 3073TIP3    H130634   1.491   6.089  12.544  1.4106  0.1991  1.9646
 3073TIP3    H230635   1.556   5.953  12.531 -0.1663 -0.3984 -0.0118
 3074TIP3   OH230636   4.401   0.416  15.876  0.7438 -0.2619  0.3711
 3074TIP3    H130637   4.331   0.373  15.829  1.9069 -0.8239 -0.9115
 3074TIP3    H230638   4.476   0.357  15.869  1.5261  0.5788  1.1899
 3075TIP3   OH230639   3.457   0.442  10.513  0.1394  0.1591  0.7305
 3075TIP3    H130640   3.457   0.501  10.437  0.2975  1.4137  1.6579
 3075TIP3    H230641   3.536   0.390  10.503  0.6491  0.9567  0.4928
 3076TIP3   OH230642   4.842   0.400   3.519  0.4260 -0.2355  0.3442
 3076TIP3    H130643   4.807   0.312   3.527 -0.4748  0.1513  0.7770
 3076TIP3    H230644   4.919   0.390   3.463 -0.7392 -1.0065 -1.1923
 3077TIP3   OH230645   1.707   6.762   2.646  0.3309  0.6068  0.2536
 3077TIP3    H130646   1.707   6.670   2.619  0.1772  0.4690  0.7187
 3077TIP3    H230647   1.618   6.792   2.629  0.5472  0.8532 -0.4974
 3078TIP3   OH230648   6.234   0.062   4.683  0.4307 -0.2410 -0.3599
 3078TIP3    H130649   6.326   0.071   4.708  0.3229  1.2731 -0.3848
 3078TIP3    H230650   6.233  -0.008   4.618  1.5674 -0.2900 -0.3428
 3079TIP3   OH230651   3.100   1.863  15.337  0.2080 -0.6273  0.2239
 3079TIP3    H130652   3.130   1.952  15.353 -0.8186 -0.2577  0.1580
 3079TIP3    H230653   3.054   1.838  15.418 -3.2924  0.5340 -1.2097
 3080TIP3   OH230654   5.386   2.017  13.971 -0.1868  0.2197  0.4782
 3080TIP3    H130655   5.380   2.099  14.019  0.6310 -0.1112  1.1789
 3080TIP3    H230656   5.297   1.999  13.941 -0.1558  2.0591 -0.8933
 3081TIP3   OH230657   4.301   1.779  16.389  0.7761  0.0527 -0.1192
 3081TIP3    H130658   4.370   1.845  16.393  1.7861 -0.9738  0.0294
 3081TIP3    H230659   4.244   1.807  16.318  1.1631  1.0912 -0.0336
 3082TIP3   OH230660   2.873   5.623  14.389  0.4981  0.2067  0.0706
 3082TIP3    H130661   2.823   5.570  14.450 -0.6369  0.2518 -0.7891
 3082TIP3    H230662   2.896   5.701  14.439  0.2550 -0.1026  0.6751
 3083TIP3   OH230663   4.336   2.879   1.809  0.0969  0.0018 -0.0037
 3083TIP3    H130664   4.365   2.863   1.719  1.1439  0.9386  0.1373
 3083TIP3    H230665   4.348   2.795   1.853  0.1678 -0.3062 -0.5971
 3084TIP3   OH230666   5.530   4.748   2.391 -0.0663  0.4148  0.5771
 3084TIP3    H130667   5.546   4.802   2.313  1.3122 -0.8718 -0.0727
 3084TIP3    H230668   5.554   4.660   2.364  0.0417 -0.1277  2.3624
 3085TIP3   OH230669   5.190   5.197   3.085 -0.5111 -0.0366 -0.5722
 3085TIP3    H130670   5.218   5.108   3.108 -0.2660  0.1148 -0.2785
 3085TIP3    H230671   5.225   5.252   3.155 -0.1776  0.3697 -1.0477
 3086TIP3   OH230672   5.562   2.836   4.687 -0.2489 -0.0334 -0.2932
 3086TIP3    H130673   5.549   2.789   4.605 -1.3152 -2.7494  1.2924
 3086TIP3    H230674   5.559   2.768   4.754 -1.5742  2.2861  2.1896
 3087TIP3   OH230675   1.209   1.640  16.897  0.1388  0.0477  0.6019
 3087TIP3    H130676   1.163   1.593  16.828 -0.7676  1.7502 -0.0257
 3087TIP3    H230677   1.139   1.676  16.952  0.6540  2.0454  0.0615
 3088TIP3   OH230678   2.024   0.255  12.720 -0.3927  0.0075  0.0600
 3088TIP3    H130679   2.041   0.272  12.628  0.7271  1.6772  0.5104
 3088TIP3    H230680   2.046   0.338  12.764  1.9046 -1.5228  2.1302
 3089TIP3   OH230681   5.708   0.471  16.621 -0.2651  0.1220 -0.4909
 3089TIP3    H130682   5.779   0.521  16.580  1.4963  0.1178  2.2717
 3089TIP3    H230683   5.743   0.383  16.630  0.3766  0.5895  2.8099
 3090TIP3   OH230684   6.677   5.963   2.590 -0.3766 -0.2646 -0.0915
 3090TIP3    H130685   6.581   5.964   2.590 -0.4072  1.6462  1.7203
 3090TIP3    H230686   6.702   6.055   2.594  1.5601 -0.7344 -0.6837
 3091TIP3   OH230687   2.280   6.344  11.318  0.0036 -0.4747 -0.4329
 3091TIP3    H130688   2.321   6.338  11.231 -0.9053  0.2370 -0.9240
 3091TIP3    H230689   2.352   6.370  11.376  0.2551  0.8752 -1.2997
 3092TIP3   OH230690   1.482   1.776  13.257 -0.0773 -0.1046  0.3748
 3092TIP3    H130691   1.412   1.755  13.195  0.7595  0.6278 -0.8510
 3092TIP3    H230692   1.530   1.694  13.267  1.0988  0.2798 -1.6988
 3093TIP3   OH230693   3.535   4.462   3.766 -0.4330 -0.2558  0.4219
 3093TIP3    H130694   3.626   4.487   3.778 -0.7415  0.9076  0.4570
 3093TIP3    H230695   3.519   4.474   3.672 -0.6702 -0.0105  0.4927
 3094TIP3   OH230696   3.514   2.853   0.457 -1.0509 -0.0691 -0.8343
 3094TIP3    H130697   3.466   2.842   0.375 -0.9534  0.9501 -1.0492
 3094TIP3    H230698   3.498   2.945   0.481  0.2690  0.1131 -0.5818
 3095TIP3   OH230699   0.147   0.989  14.373  0.1055  0.3341  0.7523
 3095TIP3    H130700   0.203   1.065  14.356  0.9200 -0.7383 -1.8126
 3095TIP3    H230701   0.058   1.022  14.362  0.2985  1.4234  2.1195
 3096TIP3   OH230702   2.419   2.545  13.840  0.0033  0.0477  0.2321
 3096TIP3    H130703   2.434   2.639  13.842 -0.7040  0.1854 -0.4071
 3096TIP3    H230704   2.505   2.507  13.826  0.1582  0.6667 -0.6083
 3097TIP3   OH230705   5.318   0.986   0.392 -0.2640  0.8154 -0.5222
 3097TIP3    H130706   5.255   1.025   0.331 -0.6496  1.7664  0.4640
 3097TIP3    H230707   5.348   1.058   0.446  1.2221  0.2610 -0.5434
 3098TIP3   OH230708   6.731   4.255   2.636  0.1730 -0.6596  0.3714
 3098TIP3    H130709   6.727   4.168   2.676  1.0602 -0.1342  1.6646
 3098TIP3    H230710   6.654   4.301   2.672  1.2818  0.0019  2.0399
 3099TIP3   OH230711   2.716   1.423  11.103 -0.3105 -0.3821  0.5040
 3099TIP3    H130712   2.696   1.441  11.011 -1.6395 -1.0849  0.6295
 3099TIP3    H230713   2.809   1.403  11.103  0.3045  2.1519 -0.2647
 3100TIP3   OH230714   6.369   0.341  16.262 -0.3399  1.0415  0.0603
 3100TIP3    H130715   6.448   0.332  16.316 -0.1322  1.6514 -0.1325
 3100TIP3    H230716   6.341   0.251  16.245 -0.8672  0.8224  1.8592
 3101TIP3   OH230717   5.389   4.236   2.972  0.5521 -0.2513 -0.5801
 3101TIP3    H130718   5.382   4.216   3.065  1.6061  0.1734 -0.3936
 3101TIP3    H230719   5.329   4.174   2.929  1.5423 -1.8130  0.2068
 3102TIP3   OH230720   2.627   1.219   1.888  0.4226 -0.4788 -0.3927
 3102TIP3    H130721   2.642   1.245   1.979 -2.5143  0.8295 -0.1742
 3102TIP3    H230722   2.651   1.126   1.885  0.6753 -0.5146  1.6612
 3103TIP3   OH230723   5.170   5.790  12.387 -0.0629 -0.5272 -0.1826
 3103TIP3    H130724   5.237   5.731  12.422 -0.1500  0.4314  1.7587
 3103TIP3    H230725   5.181   5.871  12.437 -0.8427  0.6334 -1.8083
 3104TIP3   OH230726   0.131   2.084  12.378  0.5121  0.2848  0.4760
 3104TIP3    H130727   0.114   2.162  12.431  2.0880 -0.5510  2.3533
 3104TIP3    H230728   0.100   2.011  12.432  1.1221 -0.5296 -0.2444
 3105TIP3   OH230729   4.047   4.495   4.889 -0.1022 -0.3513 -0.3154
 3105TIP3    H130730   3.981   4.539   4.941  0.6759 -0.0276  0.4115
 3105TIP3    H230731   4.106   4.564   4.859  0.0209 -0.6543 -0.7955
 3106TIP3   OH230732   4.553   0.442   4.778 -0.4248  0.3627  1.3182
 3106TIP3    H130733   4.572   0.502   4.706 -3.2763  1.5636  1.4412
 3106TIP3    H230734   4.558   0.497   4.856 -0.0323 -0.3008  1.7657
 3107TIP3   OH230735   6.065   6.228  16.198 -0.1631  0.2436 -0.5832
 3107TIP3    H130736   6.041   6.231  16.291 -0.1364 -0.4783 -0.5523
 3107TIP3    H230737   6.107   6.143  16.186 -1.0518 -0.0920 -1.4643
 3108TIP3   OH230738   3.678   0.140   5.982  0.3582  0.2222  0.4701
 3108TIP3    H130739   3.737   0.068   5.959  0.1369  0.8514 -2.4676
 3108TIP3    H230740   3.609   0.098   6.034  1.2678 -1.2916  0.5262
 3109TIP3   OH230741   6.469   2.600   3.579 -0.4900  0.3615  0.2638
 3109TIP3    H130742   6.563   2.612   3.567  0.1324 -2.2992  1.5416
 3109TIP3    H230743   6.429   2.639   3.502  1.5708  2.2073  0.0248
 3110TIP3   OH230744   4.842   0.173  16.390 -0.1065 -0.3726  0.2651
 3110TIP3    H130745   4.899   0.181  16.466  0.7178 -0.8849 -0.2841
 3110TIP3    H230746   4.756   0.153  16.426 -0.2313  1.5964  1.1836
 3111TIP3   OH230747   1.482   6.125  15.880 -0.0785  0.5629 -0.0535
 3111TIP3    H130748   1.567   6.089  15.906 -0.1135  0.7785  0.3698
 3111TIP3    H230749   1.466   6.089  15.793  0.8572  1.2438 -0.5217
 3112TIP3   OH230750   0.581   2.234  13.409  0.0444  0.0596 -0.8137
 3112TIP3    H130751   0.558   2.321  13.442  1.0769 -0.2145  0.7574
 3112TIP3    H230752   0.600   2.247  13.316 -1.5875  1.1577 -1.0316
 3113TIP3   OH230753   3.791   5.209   4.220 -0.2857 -0.1394  1.0533
 3113TIP3    H130754   3.812   5.180   4.309  0.9940  0.7313  1.0666
 3113TIP3    H230755   3.827   5.297   4.214  0.4090 -0.4832 -0.5833
 3114TIP3   OH230756   6.272   4.022   3.190 -0.6020 -0.1398 -0.6018
 3114TIP3    H130757   6.248   3.996   3.279  0.6835  0.9565  0.1000
 3114TIP3    H230758   6.358   3.982   3.176  0.8501  2.5231  0.0332
 3115TIP3   OH230759   6.231   2.107   6.388 -0.0700  0.4146 -0.4475
 3115TIP3    H130760   6.274   2.188   6.416 -0.7989  0.0040  2.0840
 3115TIP3    H230761   6.275   2.038   6.438 -1.1179 -0.4429 -0.6823
 3116TIP3   OH230762   3.715   0.157   5.005  0.0369 -0.5417  0.5787
 3116TIP3    H130763   3.747   0.246   5.015  0.2916 -0.6567  0.7915
 3116TIP3    H230764   3.730   0.136   4.913 -1.0619  0.0321  0.2483
 3117TIP3   OH230765   4.489   2.863  10.373 -0.1098  0.1196  0.4489
 3117TIP3    H130766   4.409   2.894  10.415  0.2013  0.3609  0.8790
 3117TIP3    H230767   4.526   2.941  10.332 -0.7649 -0.2466 -0.8879
 3118TIP3   OH230768   5.645   3.262  10.646  0.7027  0.6927  0.3018
 3118TIP3    H130769   5.578   3.326  10.622  1.9023  1.8972  0.1013
 3118TIP3    H230770   5.604   3.177  10.627 -1.4056  1.2902  1.8169
 3119TIP3   OH230771   4.073   3.485   3.633 -0.1064 -0.4874 -0.3301
 3119TIP3    H130772   4.075   3.535   3.715 -0.6240 -0.1668 -0.5056
 3119TIP3    H230773   4.097   3.396   3.658  1.1296 -0.0902 -0.0651
 3120TIP3   OH230774   4.813   6.568   3.490  0.6494 -0.0901  0.1665
 3120TIP3    H130775   4.740   6.621   3.522 -0.7450 -1.3668 -0.7037
 3120TIP3    H230776   4.836   6.512   3.564  1.3550  0.9105  0.7206
 3121TIP3   OH230777   3.107   3.814  16.341  0.0182  0.1142 -0.3530
 3121TIP3    H130778   3.113   3.725  16.308  1.8784  0.9526 -2.5672
 3121TIP3    H230779   3.159   3.813  16.421  1.2977 -0.4921 -1.1624
 3122TIP3   OH230780   2.071   1.092   1.539 -0.1404 -0.1999  0.8594
 3122TIP3    H130781   2.102   1.174   1.500 -2.0637  1.1744  2.0617
 3122TIP3    H230782   2.057   1.113   1.631  0.9837 -2.4031  1.5965
 3123TIP3   OH230783   1.891   5.132   5.977 -0.4412  0.1247 -0.2954
 3123TIP3    H130784   1.986   5.133   5.986 -0.6585 -0.1648  3.2897
 3123TIP3    H230785   1.866   5.041   5.994 -1.4433  0.6153  1.0569
 3124TIP3   OH230786   3.536   1.981   1.321  0.0789 -0.2585  0.3132
 3124TIP3    H130787   3.472   2.041   1.282 -0.9581 -1.4700  0.0839
 3124TIP3    H230788   3.608   1.979   1.257  0.4734  1.2538  0.6587
 3125TIP3   OH230789   6.743   6.453  16.029  0.2726 -0.0278 -0.0894
 3125TIP3    H130790   6.788   6.369  16.035  1.0254  0.4513  1.7036
 3125TIP3    H230791   6.811   6.514  15.999 -0.2996 -0.0621 -1.5070
 3126TIP3   OH230792   6.737   5.471   1.009  0.7421 -0.6372  0.4324
 3126TIP3    H130793   6.662   5.452   1.065  0.7640 -2.2535 -0.0466
 3126TIP3    H230794   6.778   5.386   0.993  1.2982 -0.0961 -1.2593
 3127TIP3   OH230795   2.214   3.587  13.355  0.1190 -0.2816 -0.2810
 3127TIP3    H130796   2.214   3.666  13.301 -0.8314 -0.4299 -0.5219
 3127TIP3    H230797   2.219   3.515  13.293  0.4172 -0.4255 -0.0914
 3128TIP3   OH230798   6.103   2.580   1.047  0.1288  0.0249 -0.6362
 3128TIP3    H130799   6.124   2.629   1.126 -1.8665  0.2895 -0.2191
 3128TIP3    H230800   6.130   2.491   1.065  0.2614  0.2119  0.0995
 3129TIP3   OH230801   0.745   4.400   5.043 -0.5824 -0.2951 -0.2994
 3129TIP3    H130802   0.782   4.454   5.114  0.1921 -0.6472 -0.4242
 3129TIP3    H230803   0.820   4.376   4.990 -1.0036 -1.0238 -0.5741
 3130TIP3   OH230804   4.453   1.040   4.993  0.0443  0.0698 -0.1130
 3130TIP3    H130805   4.443   1.078   4.905 -1.7702 -1.4767 -0.6505
 3130TIP3    H230806   4.527   0.981   4.985  0.7596  0.9493 -0.1930
 3131TIP3   OH230807   0.082   5.177   4.913  0.0804 -0.6890  0.2430
 3131TIP3    H130808   0.168   5.220   4.910 -1.2842  2.2198 -0.0867
 3131TIP3    H230809   0.081   5.132   4.997  0.9329  1.5839  1.5667
 3132TIP3   OH230810   6.649   4.922  13.556  0.1435  0.7352  0.4834
 3132TIP3    H130811   6.624   5.007  13.520 -0.7440  0.7939  1.1988
 3132TIP3    H230812   6.691   4.876  13.484 -1.5415  0.8563 -0.6319
 3133TIP3   OH230813   0.064   1.574  16.724 -0.4293  0.1167  0.1326
 3133TIP3    H130814   0.057   1.522  16.644 -0.7501  0.0069  0.2319
 3133TIP3    H230815  -0.022   1.568  16.764 -0.2953  0.2428  0.4436
 3134TIP3   OH230816   1.730   0.208  13.848 -0.1506 -0.0444  0.3289
 3134TIP3    H130817   1.652   0.158  13.871 -1.1670  0.3595 -1.9436
 3134TIP3    H230818   1.798   0.142  13.833 -1.7711 -1.0488 -3.8094
 3135TIP3   OH230819   0.877   2.465   3.834  0.1469 -0.7619 -0.1751
 3135TIP3    H130820   0.946   2.481   3.898  0.4001  1.1462 -0.8612
 3135TIP3    H230821   0.819   2.541   3.840 -0.7548 -1.3374 -1.0651
 3136TIP3   OH230822   5.135   5.022   2.527 -0.3612  0.2702 -0.1579
 3136TIP3    H130823   5.231   5.024   2.524 -0.3617 -0.2963 -0.7517
 3136TIP3    H230824   5.114   4.944   2.578 -0.5041 -0.1017 -0.7708
 3137TIP3   OH230825   4.370   3.880  16.185  0.3042 -0.3734 -0.2109
 3137TIP3    H130826   4.290   3.856  16.233 -0.5718  1.0417 -0.9140
 3137TIP3    H230827   4.350   3.860  16.094 -0.1805  2.1281 -0.7313
 3138TIP3   OH230828   2.455   6.161   0.205 -0.4303  0.1320  0.2401
 3138TIP3    H130829   2.382   6.215   0.232  2.0599  2.2959  3.4300
 3138TIP3    H230830   2.461   6.093   0.273  0.6635  0.1505  0.1787
 3139TIP3   OH230831   1.715   5.925  16.032 -0.0252  0.4140 -0.4914
 3139TIP3    H130832   1.735   5.840  16.071 -1.9314  0.4666  0.7393
 3139TIP3    H230833   1.675   5.904  15.948 -1.3940  0.0031  0.2283
 3140TIP3   OH230834   0.137   2.485  13.802 -0.3556  0.3529  0.1845
 3140TIP3    H130835   0.159   2.432  13.726 -1.2379  0.8011 -0.4000
 3140TIP3    H230836   0.202   2.461  13.868  0.1843 -0.3213 -0.5796
 3141TIP3   OH230837   1.848   2.774  15.812 -0.1669  0.3230  0.3928
 3141TIP3    H130838   1.878   2.815  15.731 -3.6912  0.7258 -0.8978
 3141TIP3    H230839   1.816   2.688  15.786 -1.1129  0.3535  1.3626
 3142TIP3   OH230840   2.407   3.862  16.676  0.1027 -0.1767  0.3494
 3142TIP3    H130841   2.479   3.872  16.615  0.2539 -0.4170  0.4862
 3142TIP3    H230842   2.347   3.801  16.633 -1.1508  1.7447 -0.7901
 3143TIP3   OH230843   1.885   3.998   1.289 -0.1016 -0.1665 -0.0960
 3143TIP3    H130844   1.884   3.973   1.381 -0.9651 -1.4061 -0.4311
 3143TIP3    H230845   1.956   4.063   1.283 -1.0148  1.0991  1.7162
 3144TIP3   OH230846   4.871   1.472  16.767 -0.1460 -0.3017  0.0695
 3144TIP3    H130847   4.939   1.429  16.820 -0.8369 -2.8621 -1.0211
 3144TIP3    H230848   4.809   1.403  16.746 -3.1890  1.9447  1.0200
 3145TIP3   OH230849   5.721   1.896  11.598 -0.1126 -0.1734 -0.3122
 3145TIP3    H130850   5.803   1.937  11.571  0.0146 -0.4743 -0.3866
 3145TIP3    H230851   5.658   1.922  11.531  0.8497 -3.3514 -2.7000
 3146TIP3   OH230852   3.664   6.323   0.514 -0.6437 -0.3307 -0.6492
 3146TIP3    H130853   3.620   6.247   0.553 -2.4733  0.7624 -0.4284
 3146TIP3    H230854   3.756   6.298   0.508 -0.6816 -1.5110  2.0942
 3147TIP3   OH230855   1.660   5.023   0.279 -0.6711  0.3967  0.2104
 3147TIP3    H130856   1.711   5.097   0.245 -1.5598  0.6898 -0.5196
 3147TIP3    H230857   1.632   4.976   0.201 -1.7489  0.3976  0.5823
 3148TIP3   OH230858   0.726   6.468   6.050 -0.4668 -0.5005 -0.7645
 3148TIP3    H130859   0.739   6.562   6.034 -0.7430 -0.5484 -1.2948
 3148TIP3    H230860   0.773   6.425   5.978 -2.0574 -0.7128 -1.7322
 3149TIP3   OH230861   1.529   1.326   0.511  0.2360 -0.8481 -0.0226
 3149TIP3    H130862   1.459   1.347   0.573  1.2328 -0.1536  0.9249
 3149TIP3    H230863   1.559   1.411   0.479  2.2413 -0.9083  1.4683
 3150TIP3   OH230864   2.666   6.369   3.331 -0.7059 -0.1992 -0.7443
 3150TIP3    H130865   2.628   6.456   3.314  1.8532  0.4726 -3.9267
 3150TIP3    H230866   2.667   6.362   3.426 -1.4909  3.0570 -0.3723
 3151TIP3   OH230867   5.306   5.093   4.548  0.0752 -0.3083  0.2070
 3151TIP3    H130868   5.277   5.175   4.590 -1.8934 -0.2994 -1.0513
 3151TIP3    H230869   5.351   5.045   4.618  0.9247  1.6546  1.0766
 3152TIP3   OH230870   0.789   4.548   5.614  0.7691  0.1723 -0.6232
 3152TIP3    H130871   0.794   4.531   5.708 -0.1245  0.7604 -0.4578
 3152TIP3    H230872   0.871   4.592   5.593  0.7423  0.5186 -0.0165
 3153TIP3   OH230873   4.257   6.020  15.907 -0.0438  0.2986  0.3699
 3153TIP3    H130874   4.304   6.054  15.984 -0.2313  0.2508  0.5045
 3153TIP3    H230875   4.242   5.928  15.927  0.8276  0.0294 -0.1713
 3154TIP3   OH230876   3.181   2.456   0.450 -0.0205  0.1505  0.2816
 3154TIP3    H130877   3.210   2.478   0.362  0.8090  0.4588  0.6270
 3154TIP3    H230878   3.140   2.370   0.440  0.5244 -0.0480 -0.3141
 3155TIP3   OH230879   4.829   2.243   0.576 -0.6237  0.0909 -0.2715
 3155TIP3    H130880   4.744   2.275   0.546 -1.8518 -0.7486  2.0613
 3155TIP3    H230881   4.814   2.151   0.597  1.1334 -0.3304 -0.6999
 3156TIP3   OH230882   5.784   2.860   3.220  0.0613 -0.5281 -0.0892
 3156TIP3    H130883   5.806   2.833   3.310 -0.3937 -0.6386 -0.0067
 3156TIP3    H230884   5.859   2.832   3.168 -0.5301 -2.3041 -0.0640
 3157TIP3   OH230885   4.371   2.660  13.195  0.2651  0.6781  0.1312
 3157TIP3    H130886   4.402   2.721  13.261 -0.0064 -0.1667  1.0582
 3157TIP3    H230887   4.428   2.675  13.119  1.4873  0.6999  1.0311
 3158TIP3   OH230888   6.283   6.183  13.818 -0.2915 -0.5106 -0.1371
 3158TIP3    H130889   6.376   6.193  13.798 -0.2062 -0.1751  0.4138
 3158TIP3    H230890   6.276   6.205  13.911 -0.7672 -1.5155  0.0708
 3159TIP3   OH230891   4.085   2.478  10.968 -0.0865 -0.2436  0.5196
 3159TIP3    H130892   4.028   2.546  10.932 -0.2988 -0.3553  0.6418
 3159TIP3    H230893   4.069   2.401  10.913  0.4821 -0.0698  0.1037
 3160TIP3   OH230894   0.803   5.064   1.613 -0.7334 -0.4770 -0.5628
 3160TIP3    H130895   0.834   5.002   1.679 -0.7859  1.2323  1.1723
 3160TIP3    H230896   0.764   5.135   1.664 -0.2645  1.1990 -2.4181
 3161TIP3   OH230897   4.606   6.329   1.449 -0.1987 -0.5411  0.1141
 3161TIP3    H130898   4.560   6.388   1.508  0.9523  0.0491  0.4645
 3161TIP3    H230899   4.587   6.362   1.362  0.7010  0.5905  0.3189
 3162TIP3   OH230900   2.276   0.301   3.287 -0.2907  0.2267  0.2544
 3162TIP3    H130901   2.194   0.302   3.335  1.6312 -0.5730  3.9395
 3162TIP3    H230902   2.319   0.383   3.310  0.1839  0.3921 -1.1535
 3163TIP3   OH230903   2.286   1.547  13.717 -0.2355 -0.0932 -0.3315
 3163TIP3    H130904   2.204   1.498  13.721 -0.6483  0.5855 -0.3075
 3163TIP3    H230905   2.354   1.480  13.717 -0.7799 -0.6572 -0.0143
 3164TIP3   OH230906   2.866   1.078   0.707  0.5062  0.0145  0.9583
 3164TIP3    H130907   2.894   1.157   0.661  0.5614 -0.6066 -0.0888
 3164TIP3    H230908   2.828   1.111   0.789 -1.5690  1.3068 -0.4357
 3165TIP3   OH230909   3.641   0.961  15.318 -0.1009  0.1057  0.4322
 3165TIP3    H130910   3.724   0.996  15.285 -0.4238 -0.2627 -0.8303
 3165TIP3    H230911   3.646   0.973  15.412  0.9415  1.0696  0.2821
 3166TIP3   OH230912   0.520   4.405   5.743  0.1777  0.5497  0.0996
 3166TIP3    H130913   0.451   4.441   5.687 -0.2116  1.8958  1.3723
 3166TIP3    H230914   0.600   4.413   5.691  0.1505  3.5384  0.3448
 3167TIP3   OH230915   4.541   2.780  15.107 -0.0732 -0.1944 -0.5022
 3167TIP3    H130916   4.636   2.767  15.099  0.2023  1.0512  0.5591
 3167TIP3    H230917   4.531   2.849  15.172 -1.7209 -0.2295 -0.6777
 3168TIP3   OH230918   6.251   4.476  11.074  0.1710  0.4562 -0.2015
 3168TIP3    H130919   6.246   4.424  10.994  0.5333  0.3971 -0.1862
 3168TIP3    H230920   6.238   4.566  11.045 -2.4116  0.2141  0.0006
 3169TIP3   OH230921   1.685   3.100  15.820  0.3987  0.0879 -0.3266
 3169TIP3    H130922   1.600   3.143  15.830  1.2221  1.5773  0.6328
 3169TIP3    H230923   1.708   3.071  15.908  0.8009 -0.4827 -0.6127
 3170TIP3   OH230924   4.779   5.113   0.171  0.1785  0.8046  0.2586
 3170TIP3    H130925   4.823   5.198   0.175  0.1368  0.9885 -1.9866
 3170TIP3    H230926   4.709   5.126   0.107 -2.1952  0.0561  2.5381
 3171TIP3   OH230927   5.053   2.799  13.490 -0.1440 -0.3789 -0.0857
 3171TIP3    H130928   5.064   2.893  13.508 -1.7802 -0.2245  0.2782
 3171TIP3    H230929   5.098   2.756  13.563 -0.0652  0.1380  0.1805
 3172TIP3   OH230930   0.753   2.766  11.486 -0.5159  0.1585 -0.2363
 3172TIP3    H130931   0.732   2.687  11.435 -1.9863 -0.2071  0.8609
 3172TIP3    H230932   0.797   2.733  11.565 -1.7658  0.3272  0.5655
 3173TIP3   OH230933   5.393   5.597  12.406 -0.3905  0.4887  0.2378
 3173TIP3    H130934   5.445   5.569  12.331  0.8388  0.1166  1.1853
 3173TIP3    H230935   5.332   5.526  12.423  0.8233 -0.4311  0.9131
 3174TIP3   OH230936   4.403   1.352   1.817  0.0688  0.3538  0.4812
 3174TIP3    H130937   4.437   1.299   1.745  1.4127  1.6489  0.1064
 3174TIP3    H230938   4.309   1.358   1.801  0.2525  0.0647 -0.7899
 3175TIP3   OH230939   4.113   0.711   0.849 -0.2376  0.1257 -0.8457
 3175TIP3    H130940   4.189   0.706   0.790  0.4633  2.2516 -0.2041
 3175TIP3    H230941   4.148   0.687   0.935 -0.1808  1.4381 -0.4843
 3176TIP3   OH230942   1.904   4.196   0.551  0.3319  0.4827  0.0296
 3176TIP3    H130943   1.859   4.222   0.631  1.5627  1.2867  0.4821
 3176TIP3    H230944   1.861   4.247   0.482 -1.7398 -1.2995 -0.1068
 3177TIP3   OH230945   4.758   5.901   2.106  0.0506 -0.4300  0.5524
 3177TIP3    H130946   4.769   5.806   2.110 -0.8332 -0.6225 -0.8726
 3177TIP3    H230947   4.762   5.921   2.012  0.0617  0.9155  0.8284
 3178TIP3   OH230948   6.370   4.254  11.936  0.4994 -0.3448  0.5420
 3178TIP3    H130949   6.401   4.297  12.016  1.3455 -1.0346  0.6000
 3178TIP3    H230950   6.344   4.166  11.965 -0.2291 -0.2388  0.2431
 3179TIP3   OH230951   2.503   0.837  17.062 -0.7585  0.3227  0.7779
 3179TIP3    H130952   2.568   0.903  17.087  0.5353 -1.2910  1.9606
 3179TIP3    H230953   2.520   0.819  16.970  1.6009 -1.1540  1.4160
 3180TIP3   OH230954   0.067   2.332  15.008 -0.1504  0.4896  0.2058
 3180TIP3    H130955   0.097   2.265  15.069  2.0034  0.0774 -1.2273
 3180TIP3    H230956   0.057   2.286  14.925 -0.3517  1.6018 -0.4051
 3181TIP3   OH230957   4.442   6.396  14.693 -0.1118  0.1114 -0.7540
 3181TIP3    H130958   4.511   6.462  14.684 -0.1596  0.1027 -1.2549
 3181TIP3    H230959   4.452   6.362  14.781 -1.5958  2.5041  0.4534
 3182TIP3   OH230960   3.321   2.738  13.485 -0.6639  0.3316  0.3771
 3182TIP3    H130961   3.384   2.797  13.525 -1.7584 -0.6945  3.9945
 3182TIP3    H230962   3.259   2.795  13.439  0.3503  1.6449  0.5872
 3183TIP3   OH230963   5.596   4.477  13.188 -0.6864  0.1516  0.2328
 3183TIP3    H130964   5.656   4.512  13.254  1.0744 -2.7785  0.3480
 3183TIP3    H230965   5.509   4.491  13.224  0.1883 -0.8331  2.9441
 3184TIP3   OH230966   5.198   1.772  12.182 -0.1419 -0.2074  0.1891
 3184TIP3    H130967   5.208   1.741  12.092 -0.2242 -1.2162  0.5135
 3184TIP3    H230968   5.285   1.802  12.207  0.5772 -2.5001  0.6828
 3185TIP3   OH230969   0.849   5.375  11.844  0.1977 -0.0171  0.8208
 3185TIP3    H130970   0.811   5.305  11.791  1.2651  0.8799 -1.2613
 3185TIP3    H230971   0.797   5.452  11.822  0.2862  0.2629  1.5569
 3186TIP3   OH230972   0.634   6.808  15.058 -0.8954  0.2300 -0.7750
 3186TIP3    H130973   0.554   6.814  15.110 -0.0583  0.0085  0.5616
 3186TIP3    H230974   0.631   6.885  15.002 -0.9602  1.4478  0.8416
 3187TIP3   OH230975   5.213   1.277   4.498 -0.4490  0.4063 -0.3266
 3187TIP3    H130976   5.292   1.225   4.482 -0.4036  1.0101 -2.4396
 3187TIP3    H230977   5.168   1.232   4.570  0.4202 -1.5831 -0.9606
 3188TIP3   OH230978   0.224   6.101   1.776  0.4042 -0.9291  0.2831
 3188TIP3    H130979   0.319   6.097   1.783  0.3088 -0.4131  2.8978
 3188TIP3    H230980   0.194   6.017   1.811 -0.1252 -1.5484 -1.5389
 3189TIP3   OH230981   6.600   2.833   4.789 -0.5068  0.0808  0.4562
 3189TIP3    H130982   6.567   2.745   4.808  1.4687 -0.4928  1.5629
 3189TIP3    H230983   6.598   2.839   4.693 -2.3496 -0.4491  0.4217
 3190TIP3   OH230984   6.522   1.957   0.781 -0.2955 -0.6920  0.1500
 3190TIP3    H130985   6.504   2.036   0.730 -0.2757 -1.3730 -0.9222
 3190TIP3    H230986   6.605   1.976   0.826  0.1626 -0.4338 -0.7835
 3191TIP3   OH230987   3.777   5.765   5.156  0.4199  0.2264  0.6599
 3191TIP3    H130988   3.833   5.747   5.080  0.8116 -0.3011  1.0716
 3191TIP3    H230989   3.838   5.781   5.228  0.0601  1.4154  0.7240
 3192TIP3   OH230990   0.555   3.602  13.305  0.7678 -0.2574 -0.1658
 3192TIP3    H130991   0.543   3.568  13.216  1.3813 -0.4207 -0.1902
 3192TIP3    H230992   0.474   3.650  13.323 -0.1717 -1.8152 -0.0865
 3193TIP3   OH230993   1.420   3.061   2.778  0.2656  0.3992  0.2306
 3193TIP3    H130994   1.415   3.040   2.871 -0.4910  0.3920  0.1909
 3193TIP3    H230995   1.331   3.048   2.745  0.9843 -2.0117 -1.0171
 3194TIP3   OH230996   0.802   5.759   5.798  0.3697 -0.4671  0.3066
 3194TIP3    H130997   0.870   5.808   5.752 -0.5267 -0.2029 -0.7827
 3194TIP3    H230998   0.783   5.811   5.877 -0.3667  0.8323 -0.6812
 3195TIP3   OH230999   0.668   2.001  12.060  0.2352 -0.1071 -0.4749
 3195TIP3    H131000   0.646   2.088  12.092  1.7833  0.8356 -1.8195
 3195TIP3    H231001   0.639   2.001  11.968  0.3838 -0.9635 -0.5344
 3196TIP3   OH231002   1.097   2.488  11.918 -0.0098 -0.9661 -0.9635
 3196TIP3    H131003   1.071   2.442  11.838  0.1399 -0.7576 -1.1312
 3196TIP3    H231004   1.168   2.545  11.891  0.3940 -1.2796 -0.5745
 3197TIP3   OH231005   3.250   5.039  17.028 -0.1035 -0.0640  0.0015
 3197TIP3    H131006   3.273   5.105  16.962 -0.8092 -0.8789 -1.0984
 3197TIP3    H231007   3.275   5.079  17.111  0.2910  1.2328 -0.7065
 3198TIP3   OH231008   4.929   2.677   4.582  0.0275 -0.0162 -0.1898
 3198TIP3    H131009   4.904   2.640   4.667  1.1886  1.9104  1.0872
 3198TIP3    H231010   5.022   2.700   4.593 -0.0400  1.0828 -1.6638
 3199TIP3   OH231011   2.110   3.427   5.430 -0.4933 -0.1722 -0.6384
 3199TIP3    H131012   2.017   3.424   5.450 -0.1908  0.5913  1.0506
 3199TIP3    H231013   2.153   3.427   5.515  0.8965  5.0389 -1.0055
 3200TIP3   OH231014   3.772   4.788  15.263  0.0236  0.2025 -0.0323
 3200TIP3    H131015   3.747   4.829  15.346 -0.8004  1.5094 -0.8959
 3200TIP3    H231016   3.691   4.751  15.229  0.4141 -0.5931 -0.1385
 3201TIP3   OH231017   0.745   0.861  15.185  0.0733  0.3051 -0.9744
 3201TIP3    H131018   0.678   0.920  15.152 -0.9876 -1.0843 -1.3875
 3201TIP3    H231019   0.722   0.845  15.276 -0.1486 -0.1377 -1.1040
 3202TIP3   OH231020   3.253   1.652  16.378  0.3602  0.2178  0.1943
 3202TIP3    H131021   3.240   1.628  16.287 -0.4136  0.4888  0.2311
 3202TIP3    H231022   3.343   1.623  16.398 -0.5064 -2.7089  0.2770
 3203TIP3   OH231023   2.723   4.631  16.396  0.5672 -0.2847 -0.6282
 3203TIP3    H131024   2.793   4.566  16.391  0.4164 -0.3505 -3.8862
 3203TIP3    H231025   2.642   4.579  16.398  0.4732 -0.1873  2.1694
 3204TIP3   OH231026   3.076   5.079  13.138 -0.1180 -0.1623  0.1434
 3204TIP3    H131027   3.002   5.140  13.132  0.7107  0.7140 -1.5192
 3204TIP3    H231028   3.059   5.014  13.070  1.9091  1.5195 -2.0911
 3205TIP3   OH231029   5.942   1.998  11.999 -0.1472  0.4778  0.3562
 3205TIP3    H131030   5.870   2.040  12.046 -0.4247  1.5419 -0.9449
 3205TIP3    H231031   6.020   2.044  12.028 -0.1821  0.3832  0.6001
 3206TIP3   OH231032   5.537   4.469  12.638  0.0897  0.1344 -0.3018
 3206TIP3    H131033   5.550   4.558  12.604  1.6244 -0.3524 -1.0742
 3206TIP3    H231034   5.565   4.475  12.730  0.6503  0.3441 -0.4839
 3207TIP3   OH231035   6.779   2.187  11.805  0.4040  0.5577  0.2672
 3207TIP3    H131036   6.862   2.143  11.825 -0.3872 -1.3645 -0.4158
 3207TIP3    H231037   6.712   2.125  11.833 -0.8944  2.7883  2.4027
 3208TIP3   OH231038   5.751   0.062   0.395 -0.1641 -0.5102 -0.2095
 3208TIP3    H131039   5.817   0.092   0.333  1.0553 -0.6507  0.9687
 3208TIP3    H231040   5.796  -0.001   0.451 -0.1644  1.9922  2.9402
 3209TIP3   OH231041   5.941   6.391   0.351 -0.2507  0.1605  0.3198
 3209TIP3    H131042   6.017   6.447   0.337  0.6236 -1.0194  0.1815
 3209TIP3    H231043   5.946   6.326   0.281 -1.6495  0.3336  0.0431
 3210TIP3   OH231044   0.551   3.466   1.139  0.1943 -0.3373  0.0265
 3210TIP3    H131045   0.501   3.447   1.219  0.4316  0.0781  0.2746
 3210TIP3    H231046   0.608   3.538   1.163  0.6185 -0.5354 -0.3833
 3211TIP3   OH231047   4.212   2.751   4.445  0.8597 -0.0176 -0.1906
 3211TIP3    H131048   4.134   2.806   4.457  1.4240  1.0776 -1.3622
 3211TIP3    H231049   4.248   2.741   4.533  0.1073  0.5366  0.1903
 3212TIP3   OH231050   5.528   2.563   1.153  0.1097  0.2713 -0.0589
 3212TIP3    H131051   5.618   2.590   1.135  0.7877 -1.5412  0.3795
 3212TIP3    H231052   5.519   2.571   1.248  0.4348 -1.2208  0.1272
 3213TIP3   OH231053   2.278   5.831  15.607 -0.3189  0.1557  0.3056
 3213TIP3    H131054   2.356   5.824  15.661  0.7421  0.7908 -1.0729
 3213TIP3    H231055   2.274   5.749  15.558  0.5759  0.8350 -0.9732
 3214TIP3   OH231056   3.800   1.079  13.212  0.2990  0.7342 -0.2958
 3214TIP3    H131057   3.864   1.108  13.277 -1.2216 -0.4650  1.8729
 3214TIP3    H231058   3.738   1.152  13.206 -0.1813  0.4197  0.5383
 3215TIP3   OH231059   4.788   0.660  16.628  0.0616 -0.3326 -0.1153
 3215TIP3    H131060   4.707   0.611  16.612 -0.1109  0.5084 -2.1319
 3215TIP3    H231061   4.763   0.752  16.618  1.4260 -0.0932 -1.8935
 3216TIP3   OH231062   6.529   5.374   2.194  0.4528  0.3194  0.0777
 3216TIP3    H131063   6.459   5.340   2.137 -0.4846  0.2210  1.2523
 3216TIP3    H231064   6.486   5.391   2.277  1.5504  1.5739  0.4256
 3217TIP3   OH231065   4.630   5.605  12.385  0.2459  0.1124  0.1804
 3217TIP3    H131066   4.620   5.698  12.402 -0.1670 -0.2722  2.3466
 3217TIP3    H231067   4.725   5.590  12.387  0.3974  0.6826 -1.5760
 3218TIP3   OH231068   4.572   5.058  14.035 -0.2883  0.2291  0.0772
 3218TIP3    H131069   4.575   4.992  14.104 -1.7564 -0.2389 -0.2952
 3218TIP3    H231070   4.587   5.141  14.081 -2.0422  0.0099  1.1115
 3219TIP3   OH231071   1.423   0.851   2.793 -0.0719  0.3191 -0.9694
 3219TIP3    H131072   1.508   0.836   2.835 -0.3604 -2.5411 -1.1871
 3219TIP3    H231073   1.429   0.804   2.710 -1.5196  0.9377 -1.4444
 3220TIP3   OH231074   3.607   3.055  10.953 -0.3822 -0.5659  0.2965
 3220TIP3    H131075   3.548   3.037  11.026 -1.1317 -0.4534 -0.2726
 3220TIP3    H231076   3.694   3.058  10.993 -0.8731  0.5369  1.3765
 3221TIP3   OH231077   5.570   3.079   1.468  0.7322  0.1946  0.1973
 3221TIP3    H131078   5.523   3.157   1.439  0.2434  0.8179  2.4636
 3221TIP3    H231079   5.501   3.018   1.494  1.1379 -0.3949 -0.0897
 3222TIP3   OH231080   1.115   4.744  17.034 -0.2457  0.0025 -0.2305
 3222TIP3    H131081   1.117   4.839  17.031 -0.1615 -0.0182 -1.0016
 3222TIP3    H231082   1.203   4.717  17.007  0.2957 -0.2819  1.6228
 3223TIP3   OH231083   4.578   2.297   0.147  0.5212  0.1708 -0.1271
 3223TIP3    H131084   4.617   2.210   0.160  1.3823  0.2729 -1.7130
 3223TIP3    H231085   4.649   2.358   0.167 -0.2378  0.5557  1.4974
 3224TIP3   OH231086   4.430   5.039   1.520  0.3580 -0.3675  0.3647
 3224TIP3    H131087   4.438   5.133   1.501 -1.7960 -0.0732  0.7044
 3224TIP3    H231088   4.382   5.004   1.445  3.7230 -1.8863 -1.3214
 3225TIP3   OH231089   0.214   5.063  15.772 -0.1249 -0.1002  0.5856
 3225TIP3    H131090   0.125   5.083  15.744 -0.3681  0.0240  1.4171
 3225TIP3    H231091   0.267   5.136  15.740  0.2382 -1.5343 -2.4713
 3226TIP3   OH231092   3.564   6.202  13.051  0.4558 -0.5221  0.1785
 3226TIP3    H131093   3.561   6.137  12.981  2.6116 -1.0535  0.5247
 3226TIP3    H231094   3.529   6.281  13.012 -0.7556 -1.4532 -0.7140
 3227TIP3   OH231095   6.313   0.919  15.881  0.2917  0.0900  0.0530
 3227TIP3    H131096   6.305   0.832  15.842  0.2089 -0.0556  0.3857
 3227TIP3    H231097   6.392   0.914  15.935 -2.5461 -1.7053  4.7429
 3228TIP3   OH231098   6.034   4.731   4.757 -0.3723 -0.3948  0.3030
 3228TIP3    H131099   5.983   4.784   4.818  0.4988  1.2891 -0.3766
 3228TIP3    H231100   5.984   4.733   4.675 -0.7494 -1.3559  0.4862
 3229TIP3   OH231101   5.743   1.159   2.122  0.4508  0.0518 -0.4320
 3229TIP3    H131102   5.833   1.128   2.118  0.4414  0.1085 -2.7865
 3229TIP3    H231103   5.745   1.246   2.083 -0.4341  0.5699  0.6404
 3230TIP3   OH231104   3.912   1.756  16.781  0.2935  0.2066  0.2930
 3230TIP3    H131105   3.860   1.768  16.860 -0.2689  1.0821 -0.1884
 3230TIP3    H231106   3.971   1.831  16.780  0.0824  0.3725 -0.2650
 3231TIP3   OH231107   3.257   4.561   5.137 -0.5457  0.2420 -0.0075
 3231TIP3    H131108   3.236   4.467   5.138  0.6459 -0.0547  0.8489
 3231TIP3    H231109   3.274   4.581   5.045  3.4698 -1.4939  0.1288
 3232TIP3   OH231110   1.137   1.067   1.813 -0.1743  0.7117  0.6663
 3232TIP3    H131111   1.230   1.043   1.807 -0.2880  0.1785  1.0083
 3232TIP3    H231112   1.135   1.159   1.784  0.3373  0.4760 -0.1647
 3233TIP3   OH231113   5.900   4.144  13.966  0.1199  0.5319  0.0235
 3233TIP3    H131114   5.942   4.211  13.912 -0.3640  1.5243  0.8521
 3233TIP3    H231115   5.806   4.156  13.951  0.0130  0.3461  0.5219
 3234TIP3   OH231116   1.071   1.877   0.935  0.0050  0.7362 -0.0915
 3234TIP3    H131117   1.109   1.916   0.856  0.8945 -0.6175 -0.3687
 3234TIP3    H231118   1.082   1.783   0.922 -1.6168  0.4028  0.7844
 3235TIP3   OH231119   0.463   2.273   5.515 -0.1616  0.0128 -0.9749
 3235TIP3    H131120   0.544   2.304   5.475  0.1277  0.4847 -0.0527
 3235TIP3    H231121   0.474   2.290   5.609 -0.9960 -0.6651 -0.7379
 3236TIP3   OH231122   1.009   3.181   0.588 -0.0687 -0.1306 -0.3130
 3236TIP3    H131123   1.095   3.182   0.631  0.0233  1.3239 -0.4823
 3236TIP3    H231124   0.956   3.122   0.642  0.4723  0.4833  0.9361
 3237TIP3   OH231125   5.144   2.793   0.955  0.1319  0.0592 -0.2834
 3237TIP3    H131126   5.172   2.823   1.041  0.0778 -0.2119 -0.1684
 3237TIP3    H231127   5.132   2.698   0.966 -0.8411  0.1633 -0.3180
 3238TIP3   OH231128   0.674   3.760  16.423 -0.0477  0.0763 -0.4048
 3238TIP3    H131129   0.691   3.785  16.514  0.6402  0.2514 -0.5781
 3238TIP3    H231130   0.593   3.709  16.427 -0.5119  0.8408  0.1876
 3239TIP3   OH231131   4.286   5.768  11.368  0.6707 -0.3811 -0.2290
 3239TIP3    H131132   4.278   5.862  11.353  0.4503 -0.3286  0.2059
 3239TIP3    H231133   4.228   5.750  11.442  0.0900 -0.9890 -0.8175
 3240TIP3   OH231134   6.337   6.461   0.970 -0.2513  0.0891 -0.1025
 3240TIP3    H131135   6.381   6.456   0.886  1.2750 -1.4302  0.7315
 3240TIP3    H231136   6.275   6.388   0.969  0.6437 -0.7007  0.5339
 3241TIP3   OH231137   3.722   4.592  15.634  0.3536 -0.0840  0.2802
 3241TIP3    H131138   3.671   4.580  15.554 -0.5806 -2.2783  1.1310
 3241TIP3    H231139   3.810   4.562  15.612  0.2990  0.0541 -0.1320
 3242TIP3   OH231140   1.608   2.449   4.434 -0.5525  0.5178 -0.2054
 3242TIP3    H131141   1.525   2.430   4.390 -1.5164  1.4222  1.1386
 3242TIP3    H231142   1.641   2.363   4.461  0.9560 -0.2865 -4.0275
 3243TIP3   OH231143   2.326   1.535   2.188 -0.1692  0.2685  0.4584
 3243TIP3    H131144   2.413   1.548   2.152 -0.8865  1.5781 -0.9122
 3243TIP3    H231145   2.324   1.443   2.215  1.3265 -0.0090 -0.3067
 3244TIP3   OH231146   2.582   0.819  16.622 -0.4480  0.0896 -0.3382
 3244TIP3    H131147   2.549   0.806  16.533  0.3838 -0.3903 -0.5840
 3244TIP3    H231148   2.630   0.902  16.618 -2.3674  1.2957  0.2548
 3245TIP3   OH231149   3.546   0.290  13.421  0.2484 -0.2830 -0.1724
 3245TIP3    H131150   3.590   0.340  13.490  0.6815 -1.6442  0.5912
 3245TIP3    H231151   3.455   0.318  13.425  0.4495  0.3118  0.3575
 3246TIP3   OH231152   3.925   4.690  11.869  0.3519 -0.4362 -0.1194
 3246TIP3    H131153   3.985   4.708  11.942  0.4028  0.4058 -0.3632
 3246TIP3    H231154   3.847   4.653  11.911 -0.3846  1.7476  0.6026
 3247TIP3   OH231155   0.755   5.659   3.278  0.2077 -0.0748  0.1421
 3247TIP3    H131156   0.748   5.690   3.188 -0.0752  1.5892  0.6971
 3247TIP3    H231157   0.824   5.714   3.317  1.9430 -2.2693  0.3752
 3248TIP3   OH231158   1.522   0.596   1.098  0.2113  0.1102 -0.0289
 3248TIP3    H131159   1.479   0.542   1.163 -0.5611  1.5100  0.6761
 3248TIP3    H231160   1.593   0.542   1.064  0.4893 -0.7402  1.8032
 3249TIP3   OH231161   2.347   4.445  10.958  0.1577  0.2343  0.4141
 3249TIP3    H131162   2.366   4.517  10.898 -0.7829 -0.0255 -0.2160
 3249TIP3    H231163   2.406   4.374  10.930  2.5746  1.3574  2.3211
 3250TIP3   OH231164   0.114   4.180   6.056  0.1781  0.1397 -0.5709
 3250TIP3    H131165   0.150   4.193   6.143 -0.0978  1.8106 -0.6800
 3250TIP3    H231166   0.185   4.139   6.006 -0.0908 -2.0675  0.7384
 3251TIP3   OH231167   5.081   1.324   4.281 -0.2393 -0.1396  0.1643
 3251TIP3    H131168   5.122   1.324   4.367 -0.7600  0.2483  0.4225
 3251TIP3    H231169   5.107   1.241   4.242  1.8571  0.6294 -0.2105
 3252TIP3   OH231170   1.692   0.148   1.870  0.0081  0.2397  0.5256
 3252TIP3    H131171   1.602   0.143   1.902 -0.3253 -1.4281 -0.5584
 3252TIP3    H231172   1.701   0.237   1.837 -1.3043  0.3738  0.5087
 3253TIP3   OH231173   5.393   5.007   1.601 -0.0823 -0.1721  0.4823
 3253TIP3    H131174   5.394   5.082   1.661 -1.7311  0.3261 -0.0581
 3253TIP3    H231175   5.397   5.046   1.514 -1.7559 -0.6389  0.1667
 3254TIP3   OH231176   3.467   1.049   1.766  0.0401  0.4784  0.2395
 3254TIP3    H131177   3.478   0.964   1.809  3.4598  0.8195  0.3411
 3254TIP3    H231178   3.461   1.112   1.838 -3.2443  0.3903  0.1826
 3255TIP3   OH231179   4.890   1.466  14.274  0.2707  0.3378  0.4650
 3255TIP3    H131180   4.892   1.404  14.347  1.1995  0.4828  0.5741
 3255TIP3    H231181   4.934   1.420  14.203  0.8109  0.8025  0.4927
 3256TIP3   OH231182   0.189   5.800  12.053  0.6739 -0.3583  0.3177
 3256TIP3    H131183   0.211   5.859  12.125 -0.9300 -0.0245  0.5697
 3256TIP3    H231184   0.094   5.806  12.045  0.7319 -1.0409 -1.2791
 3257TIP3   OH231185   2.164   6.786  15.307 -0.5208  0.0221  0.3934
 3257TIP3    H131186   2.110   6.819  15.379  0.1456  0.8163  0.5463
 3257TIP3    H231187   2.254   6.805  15.334 -0.1976 -0.7031 -0.1434
 3258TIP3   OH231188   0.123   3.363  12.685  0.1629 -0.3876  0.0117
 3258TIP3    H131189   0.109   3.305  12.611  2.1122 -2.0254  0.8428
 3258TIP3    H231190   0.127   3.451  12.646 -0.8191 -1.0008 -1.5379
 3259TIP3   OH231191   1.413   6.165   1.742  0.0157 -0.4136 -0.0632
 3259TIP3    H131192   1.452   6.248   1.717  1.2458 -1.0741 -0.4176
 3259TIP3    H231193   1.342   6.151   1.679 -1.0873  0.9827  0.8203
 3260TIP3   OH231194   3.915   3.450   2.572 -0.2298 -0.1265 -0.0863
 3260TIP3    H131195   3.831   3.479   2.609  0.5843  1.7125  0.4272
 3260TIP3    H231196   3.922   3.499   2.490  0.6389  0.2859  0.2200
 3261TIP3   OH231197   3.101   5.272  11.587  0.2843 -0.5157 -0.0499
 3261TIP3    H131198   3.072   5.326  11.513  1.6662  0.8678  0.3540
 3261TIP3    H231199   3.021   5.250  11.635 -0.4834 -0.2998 -1.1942
 3262TIP3   OH231200   3.593   3.188  14.069 -0.3829 -0.6881  0.1306
 3262TIP3    H131201   3.684   3.192  14.039 -1.0071 -0.2149 -1.8596
 3262TIP3    H231202   3.597   3.145  14.154  1.6173 -1.3921 -0.2834
 3263TIP3   OH231203   3.750   0.854  12.319 -0.7032 -0.0155  0.0119
 3263TIP3    H131204   3.792   0.939  12.330  0.8305 -0.7315  0.0531
 3263TIP3    H231205   3.740   0.844  12.224 -1.6993  0.5749  0.0519
 3264TIP3   OH231206   0.738   2.226   4.421 -0.3902 -0.0163 -0.1141
 3264TIP3    H131207   0.643   2.229   4.418 -0.3758  1.5049  0.0941
 3264TIP3    H231208   0.759   2.182   4.503 -0.9406  1.0283  0.6126
 3265TIP3   OH231209   2.556   6.267   6.581  0.2005  0.6765 -0.2526
 3265TIP3    H131210   2.625   6.201   6.591 -0.3690  0.1070 -0.0132
 3265TIP3    H231211   2.532   6.289   6.671  0.7677  1.6296 -0.3194
 3266TIP3   OH231212   6.722   0.998  15.089 -0.7040  0.6240 -0.1717
 3266TIP3    H131213   6.817   1.010  15.097 -0.5616  1.3467 -2.2191
 3266TIP3    H231214   6.704   0.916  15.136  0.9469  0.3970  0.1411
 3267TIP3   OH231215   6.356   1.722  12.550  0.0358 -0.1647  0.7275
 3267TIP3    H131216   6.262   1.737  12.536 -0.0254  0.3318  1.5807
 3267TIP3    H231217   6.399   1.782  12.490 -0.2018  0.0601  0.7772
 3268TIP3   OH231218   6.772   0.440   2.733  0.2871 -0.2328 -0.0819
 3268TIP3    H131219   6.833   0.474   2.668  0.7882  0.7593  0.8663
 3268TIP3    H231220   6.749   0.352   2.702  2.8935 -1.0133 -0.0149
 3269TIP3   OH231221   2.446   1.191   4.902  0.3078 -0.0483  0.5101
 3269TIP3    H131222   2.413   1.118   4.850  0.9405  0.1320 -0.1579
 3269TIP3    H231223   2.469   1.151   4.986 -0.3547 -0.4106  0.5295
 3270TIP3   OH231224   4.765   2.545   0.153 -0.3837  0.3072  0.4697
 3270TIP3    H131225   4.838   2.585   0.200  0.5815  0.7873 -1.3374
 3270TIP3    H231226   4.688   2.595   0.179  0.2460  1.0269  0.9524
 3271TIP3   OH231227   6.118   0.635  11.692 -0.1617  0.3043  0.3829
 3271TIP3    H131228   6.049   0.626  11.627 -0.7176  2.5753  0.5854
 3271TIP3    H231229   6.170   0.555  11.683 -0.8723  0.0371 -2.0655
 3272TIP3   OH231230   1.775   4.716   2.299  0.3363 -0.5601 -0.7611
 3272TIP3    H131231   1.708   4.648   2.289  0.2305 -0.3105 -1.7976
 3272TIP3    H231232   1.730   4.797   2.277  0.4151 -0.1023  0.6381
 3273TIP3   OH231233   2.616   2.623   5.146 -0.6638  0.2707 -0.2279
 3273TIP3    H131234   2.610   2.537   5.188 -0.3474  0.1367 -0.4488
 3273TIP3    H231235   2.684   2.611   5.079  0.7818  1.2173  0.9999
 3274TIP3   OH231236   3.617   0.355   4.624  0.3075 -0.5256 -0.4048
 3274TIP3    H131237   3.524   0.340   4.606  0.0900 -0.5362  0.6699
 3274TIP3    H231238   3.623   0.358   4.719  1.3264  0.0582 -0.4706
 3275TIP3   OH231239   6.130   6.711   3.780 -0.8476 -0.0433 -0.1580
 3275TIP3    H131240   6.064   6.775   3.802 -0.3046  0.6193 -0.4262
 3275TIP3    H231241   6.207   6.762   3.754  0.3269 -0.7672  1.6848
 3276TIP3   OH231242   1.835   5.411  16.814  0.3092  0.0413 -0.0777
 3276TIP3    H131243   1.896   5.351  16.770 -2.4337 -1.4214 -2.1610
 3276TIP3    H231244   1.793   5.459  16.743  0.2448  2.3357  1.4032
 3277TIP3   OH231245   2.353   1.682  12.477 -0.6255  0.0918  0.1077
 3277TIP3    H131246   2.370   1.761  12.425  0.2789 -0.1038  0.0852
 3277TIP3    H231247   2.406   1.693  12.556  1.0120 -1.3178 -0.7306
 3278TIP3   OH231248   4.081   6.497  13.948 -0.4086  0.1578 -0.0315
 3278TIP3    H131249   3.987   6.506  13.965 -0.3647  1.4125 -0.3591
 3278TIP3    H231250   4.103   6.409  13.981 -1.5744  0.0672  0.5656
 3279TIP3   OH231251   4.411   1.598  14.285 -0.3934  0.6640 -0.1824
 3279TIP3    H131252   4.433   1.509  14.258 -0.1835  0.4096  0.8097
 3279TIP3    H231253   4.479   1.653  14.245  1.5956 -0.0087  2.0661
 3280TIP3   OH231254   1.396   6.217  15.144 -0.4557  0.5994  0.5790
 3280TIP3    H131255   1.458   6.251  15.209 -1.0651  3.9752 -0.4030
 3280TIP3    H231256   1.451   6.190  15.070 -0.0017  0.6223  0.9025
 3281TIP3   OH231257   4.942   1.747  12.484  0.1304 -0.4184 -0.1002
 3281TIP3    H131258   5.037   1.736  12.482  0.2221  0.2397  0.2090
 3281TIP3    H231259   4.929   1.839  12.460 -0.5458 -1.0238 -2.2973
 3282TIP3   OH231260   3.776   5.755   2.362 -0.4204 -0.6841  0.0381
 3282TIP3    H131261   3.716   5.789   2.295 -1.5667 -0.8431  0.9499
 3282TIP3    H231262   3.837   5.701   2.314 -2.0994 -1.9668 -0.7423
 3283TIP3   OH231263   2.783   6.363  11.592 -0.5074 -0.5673  0.3926
 3283TIP3    H131264   2.713   6.312  11.632 -3.2404 -0.2533 -3.3721
 3283TIP3    H231265   2.836   6.299  11.544 -1.2189 -0.4040 -0.6593
 3284TIP3   OH231266   0.043   5.127  11.614  0.4106 -0.6900 -0.6698
 3284TIP3    H131267  -0.033   5.139  11.557  0.6124  2.8720 -0.3752
 3284TIP3    H231268   0.108   5.085  11.558 -0.3212  0.2460 -2.2874
 3285TIP3   OH231269   4.991   3.266   5.939 -0.6492 -0.2070 -0.0378
 3285TIP3    H131270   4.931   3.194   5.923 -0.2283 -0.6541  0.3805
 3285TIP3    H231271   4.997   3.272   6.034  2.3560 -2.2350  0.0373
 3286TIP3   OH231272   0.352   0.744  12.578  0.3954 -0.1733 -0.1370
 3286TIP3    H131273   0.281   0.746  12.642  1.0863 -0.9519  0.6701
 3286TIP3    H231274   0.428   0.710  12.626  1.4424  1.0128 -0.8689
 3287TIP3   OH231275   4.136   4.579   1.444  0.4056 -0.0442 -0.6288
 3287TIP3    H131276   4.086   4.530   1.510  0.3484 -0.1417 -0.7437
 3287TIP3    H231277   4.224   4.585   1.480  0.2476  0.3612 -0.2991
 3288TIP3   OH231278   6.082   1.463  12.377  0.4656 -0.2447 -0.4080
 3288TIP3    H131279   6.093   1.535  12.315  3.3491  0.7072  1.0288
 3288TIP3    H231280   6.126   1.389  12.335  0.6806 -0.1539 -0.3429
 3289TIP3   OH231281   3.596   2.545   3.416  0.5926 -0.0501 -0.1251
 3289TIP3    H131282   3.657   2.596   3.363  1.4371 -1.3869 -0.5008
 3289TIP3    H231283   3.511   2.585   3.399  1.3076  1.7429  0.2664
 3290TIP3   OH231284   6.584   5.349   2.937  0.7750  0.0368  0.0101
 3290TIP3    H131285   6.659   5.326   2.882  0.3334 -0.8268 -0.2257
 3290TIP3    H231286   6.619   5.345   3.026  0.8308 -1.0764 -0.0551
 3291TIP3   OH231287   1.474   6.764  14.554 -0.1695  0.0871  0.4120
 3291TIP3    H131288   1.537   6.693  14.569 -0.7868 -0.4541  0.5031
 3291TIP3    H231289   1.422   6.766  14.634  0.1610  0.9838  0.6122
 3292TIP3   OH231290   5.086   0.998  16.174  0.8279 -0.1618  0.2408
 3292TIP3    H131291   4.996   0.978  16.147  1.1955 -0.7959 -0.5463
 3292TIP3    H231292   5.076   1.050  16.254 -0.2378 -0.2164  0.1543
 3293TIP3   OH231293   0.416   6.257  13.622  0.0131 -0.0292 -0.1695
 3293TIP3    H131294   0.382   6.204  13.549  0.1561 -0.6787  0.2258
 3293TIP3    H231295   0.422   6.196  13.695 -0.2753  0.6482  0.4390
 3294TIP3   OH231296   2.552   5.248   3.068  0.0761  0.0584  0.0998
 3294TIP3    H131297   2.622   5.294   3.020 -0.9942  2.0997  0.3988
 3294TIP3    H231298   2.538   5.301   3.146 -0.8131 -1.1575  0.7887
 3295TIP3   OH231299   0.431   2.269   1.469  0.3507  0.1145 -0.1409
 3295TIP3    H131300   0.383   2.266   1.387 -1.7522  0.9579  1.0043
 3295TIP3    H231301   0.511   2.317   1.448  0.6525 -1.0936 -2.0261
 3296TIP3   OH231302   6.052   0.011  15.361  0.0128 -0.0820 -0.2762
 3296TIP3    H131303   5.991  -0.063  15.357 -1.6951  1.3044 -1.1140
 3296TIP3    H231304   6.000   0.084  15.394  0.7196  1.5520 -2.4721
 3297TIP3   OH231305   4.616   3.323  13.233 -0.1527  0.0291  0.5722
 3297TIP3    H131306   4.695   3.378  13.227  1.7059 -2.5281  0.0463
 3297TIP3    H231307   4.577   3.328  13.146 -0.2559  0.7876  0.6477
 3298TIP3   OH231308   5.803   5.793   0.702  0.3717  1.1013 -0.3194
 3298TIP3    H131309   5.799   5.877   0.748 -0.4651  0.8877  0.0004
 3298TIP3    H231310   5.763   5.730   0.762 -1.9469  1.0374 -1.7994
 3299TIP3   OH231311   4.124   6.269  11.632  0.4947 -0.3419  0.1391
 3299TIP3    H131312   4.115   6.329  11.705 -0.7386  2.8549 -2.3758
 3299TIP3    H231313   4.044   6.216  11.633 -2.0279  3.0536 -1.4650
 3300TIP3   OH231314   3.212   6.684   3.229  0.5122 -0.1425 -0.5890
 3300TIP3    H131315   3.297   6.712   3.194 -0.4026 -0.4786 -3.3879
 3300TIP3    H231316   3.169   6.766   3.255  1.3002  0.1187 -0.0747
 3301TIP3   OH231317   5.605   6.185   3.746 -0.3316  0.3536  0.2059
 3301TIP3    H131318   5.680   6.141   3.785 -0.3645  0.7738  0.7568
 3301TIP3    H231319   5.631   6.200   3.655 -0.2156 -0.5427  0.0845
 3302TIP3   OH231320   0.939   4.054   2.941  0.8015  0.1794  0.0811
 3302TIP3    H131321   0.946   3.966   2.904  0.1288  0.3827 -0.5401
 3302TIP3    H231322   0.881   4.101   2.882 -1.2176  0.1961  1.9373
 3303TIP3   OH231323   2.361   4.918   3.902 -0.2862 -0.5630  0.0631
 3303TIP3    H131324   2.280   4.948   3.944 -0.8817 -2.9046  0.6835
 3303TIP3    H231325   2.414   4.883   3.973  0.7348 -0.2814 -0.5345
 3304TIP3   OH231326   1.007   2.384  11.679 -0.2170  0.1006 -0.2128
 3304TIP3    H131327   0.950   2.310  11.700  0.6398 -0.1016  1.6162
 3304TIP3    H231328   1.042   2.364  11.592 -1.7358 -0.5083 -0.7125
 3305TIP3   OH231329   5.570   2.012  16.247 -0.6494 -0.1002 -0.1469
 3305TIP3    H131330   5.629   2.025  16.173 -1.0674 -0.1443 -0.4958
 3305TIP3    H231331   5.526   2.096  16.258  1.6766  0.9476  2.1146
 3306TIP3   OH231332   3.604   0.921  17.030  0.0479 -0.6069  0.2438
 3306TIP3    H131333   3.673   0.936  16.966  0.7433 -2.1844  0.5671
 3306TIP3    H231334   3.583   1.008  17.064  1.3666 -0.0127 -0.3855
 3307TIP3   OH231335   0.185   1.759  13.415 -0.0964  0.0263 -0.1587
 3307TIP3    H131336   0.091   1.779  13.424 -0.0124  0.1610  0.5169
 3307TIP3    H231337   0.224   1.795  13.494  0.5128 -0.1421 -0.3794
 3308TIP3   OH231338   0.579   3.583  15.134 -0.2237 -0.0036 -0.3144
 3308TIP3    H131339   0.673   3.596  15.128 -0.0668 -0.5211  0.6976
 3308TIP3    H231340   0.559   3.520  15.065  0.2773 -0.3354 -0.1664
 3309TIP3   OH231341   2.729   0.866   1.351 -0.0926 -0.0299 -0.1666
 3309TIP3    H131342   2.795   0.861   1.420  0.7647  0.6390 -0.9195
 3309TIP3    H231343   2.708   0.960   1.345 -0.0233 -0.0622 -0.9383
 3310TIP3   OH231344   3.789   2.054   2.377  0.3755  0.7480  0.2889
 3310TIP3    H131345   3.866   2.015   2.336  0.0643 -1.9407  2.0240
 3310TIP3    H231346   3.716   2.026   2.322  0.4394  1.9517 -0.4485
 3311TIP3   OH231347   4.764   5.666  16.933 -0.0254  0.3503 -0.2013
 3311TIP3    H131348   4.713   5.688  16.855 -0.5246 -0.8766 -0.2589
 3311TIP3    H231349   4.700   5.624  16.991  0.3207  1.3089  0.9093
 3312TIP3   OH231350   3.005   1.213   4.733 -0.5985  0.4119 -0.2857
 3312TIP3    H131351   2.993   1.200   4.639 -0.7111 -1.7654 -0.0254
 3312TIP3    H231352   2.919   1.195   4.771 -0.4119  0.7012  0.2807
 3313TIP3   OH231353   5.989   1.380  11.329  0.0621  0.0154  0.2572
 3313TIP3    H131354   5.966   1.343  11.414  0.3525  0.6500  0.6192
 3313TIP3    H231355   6.067   1.330  11.301 -1.2791 -1.6684 -0.6583
 3314TIP3   OH231356   4.503   2.935  16.879 -0.0693  0.7219 -0.2307
 3314TIP3    H131357   4.444   2.881  16.932  0.2954  0.0228 -0.5275
 3314TIP3    H231358   4.586   2.887  16.879  0.3998  1.5161 -0.1172
 3315TIP3   OH231359   2.785   1.000   2.243  0.1297  0.5419 -0.3383
 3315TIP3    H131360   2.824   1.028   2.327  0.7233  0.3886 -0.5614
 3315TIP3    H231361   2.729   1.074   2.218  0.7908  1.0541 -0.3417
 3316TIP3   OH231362   6.166   3.272  13.370  0.3059 -0.0597 -0.0401
 3316TIP3    H131363   6.141   3.182  13.393  1.0913 -0.6033 -1.2174
 3316TIP3    H231364   6.259   3.277  13.391  0.8530 -0.3199 -2.2344
 3317TIP3   OH231365   1.842   3.160   4.698  0.0536  0.1914  0.6696
 3317TIP3    H131366   1.809   3.149   4.787 -0.5885  1.2781  0.5908
 3317TIP3    H231367   1.799   3.092   4.647 -0.7664  0.5160  0.9099
 3318TIP3   OH231368   2.750   5.017   3.500  0.2695  0.0791 -0.7869
 3318TIP3    H131369   2.774   4.941   3.447 -0.2808 -0.7893  0.1676
 3318TIP3    H231370   2.759   4.986   3.590  0.9740  1.4580 -0.3669
 3319TIP3   OH231371   6.652   6.506  12.421  0.0807 -0.3377  0.2908
 3319TIP3    H131372   6.641   6.580  12.362  1.7948 -0.1261  0.1904
 3319TIP3    H231373   6.652   6.429  12.363 -0.3261 -0.3104  0.2515
 3320TIP3   OH231374   0.280   4.394   0.324  0.3671 -0.4622 -0.4224
 3320TIP3    H131375   0.230   4.313   0.321  0.4594 -0.5166 -0.4861
 3320TIP3    H231376   0.327   4.391   0.407  0.1742 -0.3580 -0.3100
 3321TIP3   OH231377   3.063   5.064  15.464  0.5397  0.8481 -0.1262
 3321TIP3    H131378   3.137   5.045  15.406  0.5743 -0.3399  0.2787
 3321TIP3    H231379   3.068   4.997  15.532 -1.9520 -0.3758 -1.0597
 3322TIP3   OH231380   5.989   0.825   5.485 -0.0680  0.4917 -0.4187
 3322TIP3    H131381   5.903   0.790   5.509 -0.4195 -0.8434 -3.2005
 3322TIP3    H231382   5.983   0.919   5.504 -3.2614  1.0227 -3.1335
 3323TIP3   OH231383   4.113   2.752   1.428  0.3037 -0.4572 -0.0684
 3323TIP3    H131384   4.125   2.693   1.354  1.6543  0.1829 -0.3781
 3323TIP3    H231385   4.164   2.829   1.406  0.4950 -0.1408  1.3980
 3324TIP3   OH231386   0.548   2.475  17.080  0.4361  0.1515  0.3377
 3324TIP3    H131387   0.577   2.451  17.168  1.2028 -0.3365 -0.0405
 3324TIP3    H231388   0.628   2.504  17.036 -0.0086  0.7649 -0.0853
 3325TIP3   OH231389   2.523   5.985  11.036 -0.1966  0.2741  0.3297
 3325TIP3    H131390   2.517   5.892  11.059 -0.1097  0.5672  1.6308
 3325TIP3    H231391   2.541   5.986  10.942 -0.4701 -1.0167  0.2476
 3326TIP3   OH231392   1.793   6.227   3.383  0.2932  0.0266 -0.4466
 3326TIP3    H131393   1.819   6.144   3.344  1.9163 -0.3031  1.1910
 3326TIP3    H231394   1.778   6.285   3.309  1.1228 -1.1606 -1.5800
 3327TIP3   OH231395   6.724   4.212   1.093 -0.2993  0.6979 -0.2940
 3327TIP3    H131396   6.797   4.261   1.131 -0.4326  0.0284  0.8610
 3327TIP3    H231397   6.729   4.125   1.134 -0.7531  0.1012 -1.4448
 3328TIP3   OH231398   0.121   1.001   3.041 -0.6289  0.3425  0.1737
 3328TIP3    H131399   0.151   1.079   3.088 -0.1386  0.1364  0.2119
 3328TIP3    H231400   0.153   0.928   3.094 -0.5605  0.1122 -0.1821
 3329TIP3   OH231401   6.260   2.635   1.982 -0.6312 -0.6070 -0.3955
 3329TIP3    H131402   6.314   2.608   2.056  0.3136  1.8857 -0.0873
 3329TIP3    H231403   6.197   2.696   2.020 -2.0595 -1.5288 -1.1966
 3330TIP3   OH231404   4.286   2.297   2.795 -0.1100  0.5485  0.0456
 3330TIP3    H131405   4.277   2.202   2.792  1.1160  0.4310 -1.1113
 3330TIP3    H231406   4.204   2.330   2.759 -0.9604 -0.0079  1.3708
 3331TIP3   OH231407   0.355   1.032   6.129  0.0347 -0.7397 -0.0308
 3331TIP3    H131408   0.380   1.124   6.129 -1.2752 -0.3610  0.7875
 3331TIP3    H231409   0.267   1.030   6.167  0.6476 -2.4697  1.4814
 3332TIP3   OH231410   0.032   4.566   1.401 -0.6491  0.2813 -0.2236
 3332TIP3    H131411   0.055   4.500   1.335 -0.9244 -0.4306  0.3767
 3332TIP3    H231412  -0.032   4.622   1.357  0.1847  0.6370 -1.0025
 3333TIP3   OH231413   0.969   5.052   2.524  0.3552 -0.6173 -0.1367
 3333TIP3    H131414   1.039   5.044   2.459  1.7308  1.3666  0.9781
 3333TIP3    H231415   0.920   4.970   2.517  2.0732 -1.5927 -1.7785
 3334TIP3   OH231416   2.646   2.490   4.353  0.1539 -0.1037 -0.3320
 3334TIP3    H131417   2.601   2.564   4.313  2.3204  0.2585 -2.2583
 3334TIP3    H231418   2.633   2.418   4.292  1.3182 -0.2416 -0.4440
 3335TIP3   OH231419   6.760   3.990  12.419  0.9479 -0.0867  0.5813
 3335TIP3    H131420   6.801   3.986  12.333  1.3713  0.0229  0.7784
 3335TIP3    H231421   6.731   3.901  12.437  4.8434 -1.1925  2.2865
 3336TIP3   OH231422   0.607   0.331   4.633  0.1558  0.3512 -0.2509
 3336TIP3    H131423   0.683   0.347   4.577 -0.0692 -2.6045 -1.5730
 3336TIP3    H231424   0.629   0.251   4.681 -1.6875  0.0213  0.1207
 3337TIP3   OH231425   2.283   0.834   3.666  0.4932  0.9204 -0.0985
 3337TIP3    H131426   2.345   0.826   3.593  1.9366 -0.2838  1.1901
 3337TIP3    H231427   2.238   0.750   3.669  2.5689 -0.2645  2.1266
 3338TIP3   OH231428   0.345   1.634   3.406  0.4866  0.2932  0.6467
 3338TIP3    H131429   0.361   1.728   3.418  1.6944  0.0863  0.7637
 3338TIP3    H231430   0.391   1.612   3.325 -0.1031 -0.1332  0.4190
 3339TIP3   OH231431   2.385   6.645  11.295  0.1363 -0.2609 -0.3795
 3339TIP3    H131432   2.387   6.725  11.242 -1.0714  0.4471  0.5885
 3339TIP3    H231433   2.467   6.601  11.275  0.3665  0.7181 -1.7072
 3340TIP3   OH231434   1.479   5.998  16.257 -0.5892  0.5033  0.5375
 3340TIP3    H131435   1.531   6.064  16.210 -1.7179 -0.1034 -1.6995
 3340TIP3    H231436   1.528   5.982  16.338  0.3152  3.2208  0.6428
 3341TIP3   OH231437   6.684   2.539  12.185 -0.3300  0.3523  0.0883
 3341TIP3    H131438   6.738   2.545  12.263 -1.5248 -0.3387  0.9861
 3341TIP3    H231439   6.696   2.450  12.154  2.6569  1.4203 -2.4572
 3342TIP3   OH231440   3.102   3.099   1.984  0.5199 -0.1403  0.0413
 3342TIP3    H131441   3.016   3.142   1.993  0.4719 -0.5622  2.4135
 3342TIP3    H231442   3.131   3.087   2.075  2.3337 -1.5404 -0.6788
 3343TIP3   OH231443   0.732   2.505   2.637 -0.5534 -0.3751 -0.5140
 3343TIP3    H131444   0.772   2.590   2.620 -1.3189 -0.0846 -0.8691
 3343TIP3    H231445   0.655   2.524   2.689 -0.9313 -0.8198 -0.8980
 3344TIP3   OH231446   2.254   2.439  11.454 -0.3371  0.1932 -0.0046
 3344TIP3    H131447   2.174   2.491  11.456  0.2035  1.0811 -0.6190
 3344TIP3    H231448   2.321   2.497  11.493  0.4779  0.3610 -1.5479
 3345TIP3   OH231449   6.045   6.335   1.031  0.1902  0.4309  0.0160
 3345TIP3    H131450   6.001   6.265   1.080 -0.0814  0.4592 -0.1893
 3345TIP3    H231451   6.001   6.337   0.947  1.7499 -0.7847 -0.9037
 3346TIP3   OH231452   1.033   3.682   6.110 -0.7237  0.1202  0.0522
 3346TIP3    H131453   1.090   3.631   6.167 -0.8166  0.9804  0.9396
 3346TIP3    H231454   0.964   3.714   6.168  0.8660  3.6801  0.2306
 3347TIP3   OH231455   3.236   6.169  11.889  0.5391 -0.1017 -0.1093
 3347TIP3    H131456   3.307   6.107  11.871 -0.4332 -1.3724  0.2389
 3347TIP3    H231457   3.211   6.203  11.803  0.5725 -0.8028 -0.4069
 3348TIP3   OH231458   2.540   4.970  12.001  0.2523 -0.9705  0.6937
 3348TIP3    H131459   2.620   4.955  11.950  0.7362  2.6583  0.1484
 3348TIP3    H231460   2.472   4.979  11.935  0.1931  0.0506  0.8811
 3349TIP3   OH231461   5.124   5.855   0.674  0.4134 -0.3518  0.0376
 3349TIP3    H131462   5.092   5.836   0.762 -1.1752 -0.5350 -0.5476
 3349TIP3    H231463   5.177   5.778   0.651  0.2856 -0.6050  0.5703
 3350TIP3   OH231464   2.785   4.460  10.626  0.0923  0.3972 -0.0649
 3350TIP3    H131465   2.859   4.446  10.685 -0.7253 -1.0589  0.6693
 3350TIP3    H231466   2.737   4.377  10.627 -1.3192  1.1622 -0.8490
 3351TIP3   OH231467   6.519   5.784  16.865  0.1219 -0.4077 -0.5333
 3351TIP3    H131468   6.439   5.817  16.906  0.4355  0.0862 -0.3031
 3351TIP3    H231469   6.512   5.689  16.870 -1.0175 -0.4018 -1.6054
 3352TIP3   OH231470   1.469   0.827  12.774 -0.6852 -0.1565 -0.6881
 3352TIP3    H131471   1.436   0.797  12.859 -2.1992 -1.2267 -1.6093
 3352TIP3    H231472   1.437   0.762  12.711 -1.1660  1.5544 -2.3174
 3353TIP3   OH231473   4.158   0.150  12.689 -0.0441 -0.0194 -0.5300
 3353TIP3    H131474   4.140   0.232  12.642  0.0511 -0.1812 -0.8519
 3353TIP3    H231475   4.253   0.147  12.695  0.0088 -0.6656 -1.5319
 3354TIP3   OH231476   6.265   2.352   1.351  0.4418 -0.1488  0.3361
 3354TIP3    H131477   6.192   2.307   1.393  1.0730 -0.8656  0.6848
 3354TIP3    H231478   6.296   2.415   1.417  0.1966  0.0982  0.2179
 3355TIP3   OH231479   1.195   3.128  11.263 -0.2288  0.2226 -0.4143
 3355TIP3    H131480   1.130   3.198  11.257 -1.2465 -0.8377 -3.1850
 3355TIP3    H231481   1.260   3.149  11.196  1.8037  0.6712  1.5808
 3356TIP3   OH231482   6.333   1.345  15.247  0.2124  0.0319  0.5643
 3356TIP3    H131483   6.395   1.282  15.210 -0.5278  0.0762 -0.8005
 3356TIP3    H231484   6.362   1.430  15.214 -1.0680 -0.0410 -0.8401
 3357TIP3   OH231485   4.407   4.926   0.540 -0.1443 -0.1559  0.2446
 3357TIP3    H131486   4.368   5.006   0.574  0.7424  0.0479  0.8142
 3357TIP3    H231487   4.366   4.913   0.454 -1.0529  0.3317  0.6007
 3358TIP3   OH231488   0.042   2.140   2.453 -1.0134  0.3789 -0.4159
 3358TIP3    H131489  -0.033   2.108   2.404 -0.9119 -1.4725  0.5489
 3358TIP3    H231490   0.083   2.204   2.395 -0.4933 -2.1719 -3.1288
 3359TIP3   OH231491   3.612   2.161   1.562  0.5366 -0.2245 -0.0307
 3359TIP3    H131492   3.597   2.107   1.484 -0.7713 -0.0189  0.0516
 3359TIP3    H231493   3.539   2.223   1.562  1.8130  1.3363  0.0674
 3360TIP3   OH231494   2.003   1.542  11.613 -0.2034  0.2966  0.2019
 3360TIP3    H131495   2.047   1.600  11.676  0.0011  1.4903 -0.9922
 3360TIP3    H231496   2.069   1.524  11.547 -0.1165 -1.7453  0.7884
 3361TIP3   OH231497   1.020   3.834  15.271 -0.1415 -0.1853  0.6000
 3361TIP3    H131498   1.115   3.849  15.273 -0.2954  0.9721  0.1250
 3361TIP3    H231499   0.990   3.858  15.359  0.1397 -1.6400  1.1113
 3362TIP3   OH231500   2.190   4.966   4.457  0.7091  0.0047  0.2630
 3362TIP3    H131501   2.117   4.906   4.440 -0.5478  1.0182  1.8184
 3362TIP3    H231502   2.165   5.012   4.537  1.7363  2.4215 -0.7267
 3363TIP3   OH231503   5.711   2.530  14.958 -0.6500  0.4789 -0.3997
 3363TIP3    H131504   5.738   2.606  14.906  1.1365 -0.7609 -1.3871
 3363TIP3    H231505   5.627   2.557  14.997 -1.2198  2.1196 -2.5187
 3364TIP3   OH231506   6.683   6.584  16.576 -0.0255  0.2169  0.5171
 3364TIP3    H131507   6.649   6.632  16.501  0.5167  0.3781  0.3692
 3364TIP3    H231508   6.706   6.498  16.541  4.0035  1.4687 -0.5388
 3365TIP3   OH231509   2.710   6.116   1.118  0.1692  0.1826 -0.2653
 3365TIP3    H131510   2.680   6.204   1.094 -1.2585 -0.7226 -2.0244
 3365TIP3    H231511   2.630   6.070   1.144  0.9235 -0.5771  0.7735
 3366TIP3   OH231512   2.029   5.309   5.173 -0.7070  0.4405  1.2490
 3366TIP3    H131513   1.948   5.360   5.161  0.2512  1.6137 -0.7836
 3366TIP3    H231514   2.088   5.368   5.219 -0.2079  0.5045  0.5376
 3367TIP3   OH231515   5.127   1.519   4.060  0.9097  0.0540 -0.3442
 3367TIP3    H131516   5.146   1.459   4.133 -1.3064 -1.1812 -0.6859
 3367TIP3    H231517   5.088   1.596   4.102  0.2477 -0.3788 -0.1379
 3368TIP3   OH231518   6.766   2.426  16.761 -0.0958 -0.0644 -0.4811
 3368TIP3    H131519   6.806   2.340  16.753  1.2770  0.2232  2.1798
 3368TIP3    H231520   6.837   2.484  16.789 -1.4657  1.4249  0.1115
 3369TIP3   OH231521   5.057   1.335  12.324 -0.4254  0.1992 -0.4896
 3369TIP3    H131522   5.061   1.405  12.258 -0.0149 -0.6572 -1.4108
 3369TIP3    H231523   5.145   1.295  12.321 -0.8787 -0.8279 -0.5374
 3370TIP3   OH231524   5.325   3.444   0.210  0.7218 -0.3781  0.2165
 3370TIP3    H131525   5.420   3.440   0.224  0.6828  1.0894  1.0826
 3370TIP3    H231526   5.289   3.467   0.296 -0.1140  2.1751 -0.7102
 3371TIP3   OH231527   2.395   6.228  16.977  0.3767  0.2481 -0.0177
 3371TIP3    H131528   2.365   6.309  17.018 -0.4833  0.1979 -0.5251
 3371TIP3    H231529   2.329   6.163  17.001 -0.3218  0.2833 -1.6951
 3372TIP3   OH231530   1.972   4.699  14.261  0.2390 -0.1368 -0.2283
 3372TIP3    H131531   1.957   4.617  14.308  0.1995  0.2226  0.3964
 3372TIP3    H231532   1.900   4.756  14.290  1.4466  0.8326  1.0023
 3373TIP3   OH231533   3.855   5.485  12.091 -0.4828  0.2815 -0.5695
 3373TIP3    H131534   3.895   5.538  12.022 -2.0658  0.9393 -1.0327
 3373TIP3    H231535   3.761   5.503  12.084 -1.0311 -2.0485 -0.2897
 3374TIP3   OH231536   1.427   0.019   2.137 -0.5571  0.1748  0.4806
 3374TIP3    H131537   1.488  -0.055   2.140 -0.4043  0.3386  1.4581
 3374TIP3    H231538   1.346  -0.018   2.103  0.1325 -0.0020 -1.0574
 3375TIP3   OH231539   2.600   1.882  16.493  0.0537 -0.2857  0.7414
 3375TIP3    H131540   2.663   1.876  16.422 -0.1454  3.6066  0.0011
 3375TIP3    H231541   2.652   1.871  16.573  0.8413 -1.4703  0.0886
 3376TIP3   OH231542   6.443   5.618  16.238 -0.5407 -0.5034  0.3083
 3376TIP3    H131543   6.445   5.646  16.147 -0.1899  1.3374  0.8373
 3376TIP3    H231544   6.412   5.695  16.287  0.2371 -1.1063  1.8348
 3377TIP3   OH231545   6.205   3.126   0.476 -0.2970 -0.1215  0.5248
 3377TIP3    H131546   6.240   3.166   0.556 -0.9175  0.7497  0.3731
 3377TIP3    H231547   6.120   3.090   0.502  1.2834 -3.7068  1.3143
 3378TIP3   OH231548   4.889   4.848  14.173 -0.1457 -0.4175  0.4383
 3378TIP3    H131549   4.912   4.941  14.173 -0.5695 -0.2378 -2.0915
 3378TIP3    H231550   4.947   4.809  14.108 -1.9963 -1.3039 -0.7836
 3379TIP3   OH231551   5.989   6.507  11.968  0.2683 -0.5493  0.2971
 3379TIP3    H131552   6.007   6.418  11.998  0.6310 -0.7321 -0.4409
 3379TIP3    H231553   5.991   6.502  11.873 -0.5501  0.0879  0.2321
 3380TIP3   OH231554   0.670   2.763  13.805  0.5161 -0.4022  0.0425
 3380TIP3    H131555   0.629   2.709  13.737  1.1240  0.1810 -0.8163
 3380TIP3    H231556   0.689   2.702  13.876  2.2714 -1.6271 -1.3724
 3381TIP3   OH231557   2.473   3.566   5.823  0.2031 -0.7670 -0.5883
 3381TIP3    H131558   2.381   3.578   5.847 -0.3794  0.7104 -3.1258
 3381TIP3    H231559   2.522   3.600   5.898 -1.2061 -2.7173  1.3517
 3382TIP3   OH231560   4.150   4.851  11.771  0.4852 -0.1826 -0.7919
 3382TIP3    H131561   4.087   4.779  11.777  1.2587 -0.9180 -1.3106
 3382TIP3    H231562   4.109   4.913  11.709 -0.1633 -0.1828 -0.3716
 3383TIP3   OH231563   5.134   3.975  11.397 -0.1884  0.0730 -0.6279
 3383TIP3    H131564   5.136   3.881  11.417  0.0874 -0.1204 -1.5365
 3383TIP3    H231565   5.049   4.005  11.430 -0.0023 -0.3480  0.2789
 3384TIP3   OH231566   4.496   0.781   4.422 -0.8030  0.3314 -0.2099
 3384TIP3    H131567   4.504   0.686   4.414 -0.1633  0.2812  0.8442
 3384TIP3    H231568   4.405   0.799   4.398 -1.0766 -0.6088  0.0642
 3385TIP3   OH231569   4.522   0.357   3.153 -0.0936  0.5753 -0.2558
 3385TIP3    H131570   4.608   0.328   3.124 -0.8481  0.5126 -2.6519
 3385TIP3    H231571   4.540   0.415   3.226  2.0154  0.8452 -0.9120
 3386TIP3   OH231572   4.142   0.276  15.442 -0.0971 -0.4947  0.1478
 3386TIP3    H131573   4.212   0.213  15.426 -2.0804 -2.4431 -1.5741
 3386TIP3    H231574   4.121   0.266  15.534 -0.3966 -2.4470 -0.0961
 3387TIP3   OH231575   5.352   3.609  15.068 -0.0466 -0.4570 -0.2564
 3387TIP3    H131576   5.344   3.589  15.161 -0.7432 -0.4872 -0.3185
 3387TIP3    H231577   5.443   3.636  15.057  0.5375 -2.2055  0.0907
 3388TIP3   OH231578   2.356   6.409   2.789 -0.9771 -0.2318 -0.1666
 3388TIP3    H131579   2.367   6.489   2.839  0.4927  0.1453 -1.0348
 3388TIP3    H231580   2.421   6.348   2.825 -2.0806 -1.0672  0.4928
 3389TIP3   OH231581   3.030   6.648  16.158 -0.2106  0.6185  0.5684
 3389TIP3    H131582   2.939   6.626  16.177 -0.5057 -0.0785 -1.4050
 3389TIP3    H231583   3.055   6.588  16.088  0.8586  2.6040 -0.8628
 3390TIP3   OH231584   2.812   0.431   3.466  0.2082 -0.0119  0.4101
 3390TIP3    H131585   2.729   0.479   3.464  0.0306 -0.3027 -2.0054
 3390TIP3    H231586   2.860   0.463   3.389  0.8213 -2.3665 -0.2820
 3391TIP3   OH231587   6.390   4.734  14.301  0.2056 -0.6822 -0.1473
 3391TIP3    H131588   6.325   4.781  14.353  3.0090  2.7724  0.6153
 3391TIP3    H231589   6.370   4.756  14.210  0.1907  0.2047  0.0649
 3392TIP3   OH231590   4.114   4.826   1.189 -0.0852 -0.1363 -0.4118
 3392TIP3    H131591   4.044   4.813   1.253  0.3083  1.2530  0.3591
 3392TIP3    H231592   4.090   4.771   1.115 -1.2575 -0.7575  0.3960
 3393TIP3   OH231593   1.501   0.713  16.235 -0.3287 -0.1293  0.2213
 3393TIP3    H131594   1.515   0.622  16.208 -0.0184 -0.2912  0.9178
 3393TIP3    H231595   1.517   0.764  16.155  0.0427 -0.6398 -0.0383
 3394TIP3   OH231596   3.271   0.425   3.173  0.2106  0.3163 -0.2221
 3394TIP3    H131597   3.272   0.361   3.101 -2.0578 -1.0129  0.8274
 3394TIP3    H231598   3.270   0.510   3.129 -0.5979 -0.4457 -1.7772
 3395TIP3   OH231599   2.386   5.162  14.097  0.0118 -0.3119  0.7264
 3395TIP3    H131600   2.476   5.175  14.066 -0.4292 -2.8086 -2.1024
 3395TIP3    H231601   2.367   5.070  14.078 -3.5090  0.4069  0.0611
 3396TIP3   OH231602   3.546   6.494   1.391  0.4894  0.7654 -0.0481
 3396TIP3    H131603   3.548   6.419   1.331  0.5235  0.5171  0.2547
 3396TIP3    H231604   3.462   6.536   1.375  0.6573  0.9140 -0.5272
 3397TIP3   OH231605   3.610   3.989  13.756  0.3493  0.0828 -0.2233
 3397TIP3    H131606   3.683   3.999  13.817  0.6874  1.2823 -0.7802
 3397TIP3    H231607   3.546   4.054  13.784  0.5910  0.7870 -1.2214
 3398TIP3   OH231608   5.777   3.327   0.375  0.2479  0.0598  0.2916
 3398TIP3    H131609   5.845   3.288   0.320  2.2101  0.5268  2.2490
 3398TIP3    H231610   5.756   3.260   0.439 -0.7911  0.1141  0.0253
 3399TIP3   OH231611   5.313   5.646   2.176 -0.3030 -0.6354  0.0697
 3399TIP3    H131612   5.238   5.678   2.125  1.1376 -0.9283 -2.4155
 3399TIP3    H231613   5.332   5.560   2.139 -0.9011 -2.2075  3.1288
 3400TIP3   OH231614   4.450   6.349   5.572  0.5432 -0.4025 -0.3756
 3400TIP3    H131615   4.429   6.346   5.665 -1.3356  1.0182 -0.7010
 3400TIP3    H231616   4.444   6.258   5.543 -0.3168 -0.6753  0.5982
 3401TIP3   OH231617   6.129   4.736   1.880 -0.5323 -0.3435 -0.3207
 3401TIP3    H131618   6.047   4.686   1.874 -1.5979  1.1206  1.1901
 3401TIP3    H231619   6.119   4.790   1.959  1.7423  0.1682 -0.3148
 3402TIP3   OH231620   1.068   0.357   1.428  0.1389  0.4226  0.3616
 3402TIP3    H131621   0.978   0.388   1.422 -0.2456 -0.8639 -1.2448
 3402TIP3    H231622   1.120   0.437   1.437 -1.1567  1.1533  1.9409
 3403TIP3   OH231623   3.467   3.771  11.275 -0.1005 -0.4031  0.4994
 3403TIP3    H131624   3.407   3.839  11.306 -1.0913 -1.1002  0.1558
 3403TIP3    H231625   3.445   3.694  11.329  0.7361 -0.5666  0.6156
 3404TIP3   OH231626   2.769   0.712  11.483  0.2746  0.3477 -0.3513
 3404TIP3    H131627   2.812   0.736  11.565  0.2699 -0.5109 -0.0983
 3404TIP3    H231628   2.705   0.782  11.469  0.1163  0.3790  0.4871
 3405TIP3   OH231629   2.822   4.872   0.238 -0.3034  0.4573 -0.5202
 3405TIP3    H131630   2.770   4.946   0.268 -0.7177 -0.4147  0.9895
 3405TIP3    H231631   2.774   4.837   0.163 -0.6673  1.0467 -0.5657
 3406TIP3   OH231632   0.601   0.120   3.140  0.0961  0.4868  0.5800
 3406TIP3    H131633   0.615   0.177   3.216  0.7319  0.5552  0.4214
 3406TIP3    H231634   0.690   0.093   3.114 -0.1647 -0.1211  0.3080
 3407TIP3   OH231635   0.414   5.478   4.201  0.0022  0.3711 -0.0407
 3407TIP3    H131636   0.359   5.552   4.174 -0.8606  0.1580  1.0795
 3407TIP3    H231637   0.352   5.412   4.233  0.9380  0.3743  1.8646
 3408TIP3   OH231638   0.280   1.625   4.571  0.6279 -0.6267 -0.3621
 3408TIP3    H131639   0.225   1.677   4.513  0.3539  0.1217  0.5485
 3408TIP3    H231640   0.218   1.568   4.618  0.7542 -0.6575 -0.2306
 3409TIP3   OH231641   3.521   5.520  13.148  0.0486 -0.4694  0.0124
 3409TIP3    H131642   3.563   5.547  13.230 -0.8038 -2.0603  1.0271
 3409TIP3    H231643   3.568   5.440  13.123 -0.0466 -0.2869 -0.7728
 3410TIP3   OH231644   6.115   1.403  16.186 -0.5709 -0.0460  0.4737
 3410TIP3    H131645   6.132   1.459  16.111  1.3175 -0.8677  0.2470
 3410TIP3    H231646   6.200   1.364  16.208 -1.4041 -1.1527  1.9616
 3411TIP3   OH231647   6.694   5.662  12.702 -0.0409  0.8069  0.3243
 3411TIP3    H131648   6.672   5.731  12.639  0.3797  1.2343  0.6361
 3411TIP3    H231649   6.768   5.698  12.751 -0.1745  0.3532  0.8607
 3412TIP3   OH231650   5.543   5.879   0.642  0.2708  0.5253  0.2375
 3412TIP3    H131651   5.621   5.825   0.654 -0.7209 -0.8428  0.7511
 3412TIP3    H231652   5.541   5.936   0.719  0.5143  0.2684  0.4347
 3413TIP3   OH231653   3.766   2.093  13.653 -0.1124 -0.0372 -0.0350
 3413TIP3    H131654   3.735   2.082  13.743  1.3907 -0.6930  0.4299
 3413TIP3    H231655   3.689   2.125  13.605 -1.3404 -1.0405  1.1673
 3414TIP3   OH231656   2.333   1.500  11.718 -0.2070  0.2552  0.2708
 3414TIP3    H131657   2.343   1.465  11.630  2.2394  1.0229  0.1603
 3414TIP3    H231658   2.310   1.592  11.704  0.2729  0.4010  0.3991
 3415TIP3   OH231659   0.374   2.296   0.668  0.0592 -0.9511  0.1588
 3415TIP3    H131660   0.307   2.364   0.677 -0.1520 -1.2997  1.4099
 3415TIP3    H231661   0.436   2.313   0.739  1.0770 -0.9045 -0.7166
 3416TIP3   OH231662   4.048   0.840   5.960 -0.7610 -0.1494 -0.0626
 3416TIP3    H131663   4.143   0.841   5.965 -0.6906  0.7122 -1.2036
 3416TIP3    H231664   4.028   0.855   5.867 -2.0058 -0.2908  0.1600
 3417TIP3   OH231665   1.592   2.336  16.907  0.1880  0.2103 -0.4798
 3417TIP3    H131666   1.634   2.270  16.961 -0.5369  0.6746  0.7042
 3417TIP3    H231667   1.598   2.303  16.818  2.7522  0.1210 -0.3269
 3418TIP3   OH231668   5.935   2.315   1.573 -0.2684  0.8589 -0.4052
 3418TIP3    H131669   5.906   2.312   1.664 -0.2418  2.1917 -0.3299
 3418TIP3    H231670   5.946   2.224   1.548  0.0201  0.4772  1.0286
 3419TIP3   OH231671   6.027   2.978  14.965 -0.4787 -0.0830  0.3167
 3419TIP3    H131672   5.962   2.938  14.906  0.4867  0.0342 -0.8562
 3419TIP3    H231673   6.109   2.934  14.943  0.7360  2.7370 -1.3252
 3420TIP3   OH231674   2.257   3.748   3.686 -0.2181 -0.2100 -0.1391
 3420TIP3    H131675   2.179   3.796   3.714 -1.7539 -2.2634 -0.5913
 3420TIP3    H231676   2.303   3.728   3.767  0.6000  2.1515  0.0357
 3421TIP3   OH231677   2.457   6.415  14.805  0.9076 -0.0602 -0.3625
 3421TIP3    H131678   2.456   6.437  14.712 -0.2332 -0.2836 -0.4132
 3421TIP3    H231679   2.442   6.498  14.849  0.0768 -0.1727 -0.4298
 3422TIP3   OH231680   4.832   6.328  13.272 -0.4683 -0.1073 -0.4507
 3422TIP3    H131681   4.802   6.412  13.237 -0.9306  0.1816  0.5899
 3422TIP3    H231682   4.814   6.265  13.203 -1.5673  0.4096 -0.6594
 3423TIP3   OH231683   3.153   4.060   1.885  0.0476  0.1502  0.1322
 3423TIP3    H131684   3.151   3.966   1.905  1.4328  0.0758 -0.0151
 3423TIP3    H231685   3.226   4.094   1.936 -1.8273  1.6341  2.0516
 3424TIP3   OH231686   6.366   6.791  13.325  0.2048  0.4059  0.0927
 3424TIP3    H131687   6.452   6.780  13.364  0.4023 -2.7382 -0.9209
 3424TIP3    H231688   6.368   6.878  13.287  3.2952  0.1441 -0.6273
 3425TIP3   OH231689   6.578   4.025   2.963  0.1964  0.1292  0.2140
 3425TIP3    H131690   6.561   3.969   3.039  0.9579  0.3078  0.5224
 3425TIP3    H231691   6.569   3.966   2.888 -1.0642  0.0639  0.3981
 3426TIP3   OH231692   2.457   0.635   0.781  0.3306  0.1412  0.1761
 3426TIP3    H131693   2.541   0.676   0.803 -0.7149  1.5922  1.7430
 3426TIP3    H231694   2.438   0.577   0.854 -0.5364  0.6749  0.3950
 3427TIP3   OH231695   3.281   4.025   0.193  0.6120  0.0907 -0.4536
 3427TIP3    H131696   3.341   4.069   0.253  1.7443 -0.6982 -0.9846
 3427TIP3    H231697   3.198   4.072   0.204  0.5248 -0.5486  2.3361
 3428TIP3   OH231698   5.227   6.685   2.579  0.0959 -0.3474 -0.1532
 3428TIP3    H131699   5.316   6.677   2.543  0.1841 -0.6996  0.1358
 3428TIP3    H231700   5.180   6.738   2.515  0.7029  0.4327  0.0391
 3429TIP3   OH231701   6.566   5.692   1.186 -0.2108 -0.2194 -0.0564
 3429TIP3    H131702   6.560   5.675   1.092  0.9526  0.2059 -0.2268
 3429TIP3    H231703   6.568   5.605   1.227 -2.4849 -0.4254 -0.2553
 3430TIP3   OH231704   6.360   6.239   2.015 -0.2081 -0.2738  0.3133
 3430TIP3    H131705   6.365   6.247   1.920  1.2441 -1.7746  0.2128
 3430TIP3    H231706   6.377   6.146   2.032  0.1935  0.0801  2.0726
 3431TIP3   OH231707   1.776   5.954   2.537 -0.0941 -0.3678 -0.7245
 3431TIP3    H131708   1.785   6.012   2.462  0.3099 -1.2084 -1.3481
 3431TIP3    H231709   1.796   6.009   2.613 -0.8344  0.5779 -1.1955
 3432TIP3   OH231710   2.483   0.926  13.943  0.4651 -0.0485  0.5987
 3432TIP3    H131711   2.544   0.987  13.901 -1.0752  0.9464 -0.2519
 3432TIP3    H231712   2.535   0.846  13.955  2.3495  1.1910  1.1890
 3433TIP3   OH231713   3.995   1.340  15.095  0.4078  0.4442 -0.5376
 3433TIP3    H131714   3.958   1.428  15.096  0.4698  0.4757  0.9510
 3433TIP3    H231715   3.975   1.307  15.008 -0.1222  1.7143 -0.9235
 3434TIP3   OH231716   5.935   0.436   4.342 -0.5170 -0.1268  0.1007
 3434TIP3    H131717   5.979   0.355   4.316 -2.9027 -1.3902 -0.2320
 3434TIP3    H231718   5.952   0.496   4.269  1.5154 -0.1542  0.4840
 3435TIP3   OH231719   4.125   1.531  16.100 -0.6208 -0.4621  0.4005
 3435TIP3    H131720   4.112   1.469  16.028  0.2392  1.7044 -1.7632
 3435TIP3    H231721   4.215   1.562  16.089 -0.6010  0.2539  2.2000
 3436TIP3   OH231722   6.026   5.349   6.561  0.0244 -0.1671 -0.1114
 3436TIP3    H131723   6.022   5.253   6.562 -0.7074 -0.1437  0.9403
 3436TIP3    H231724   6.112   5.369   6.525  1.2527 -1.2736  2.0259
 3437TIP3   OH231725   4.980   1.311  14.056 -0.1367 -0.0925 -0.0976
 3437TIP3    H131726   4.933   1.374  14.002  1.6422  0.0042 -1.6220
 3437TIP3    H231727   5.036   1.264  13.994  3.2045  1.0866  1.7853
 3438TIP3   OH231728   6.209   4.118   2.091 -0.1944  0.2829 -0.1268
 3438TIP3    H131729   6.219   4.212   2.106  0.5821  0.2835 -0.5805
 3438TIP3    H231730   6.257   4.102   2.010 -0.4394 -0.4823 -0.1263
 3439TIP3   OH231731   3.523   4.102  13.510  0.4098 -0.5041  0.0308
 3439TIP3    H131732   3.580   4.061  13.576 -0.3055 -2.1066 -0.2984
 3439TIP3    H231733   3.486   4.029  13.461  0.4275  0.6249 -1.7723
 3440TIP3   OH231734   6.045   4.245  14.858 -0.3618 -0.2526 -0.0320
 3440TIP3    H131735   6.107   4.227  14.788 -0.8400  0.4599 -0.6501
 3440TIP3    H231736   5.989   4.315  14.824 -2.7818 -2.1948 -0.2650
 3441TIP3   OH231737   0.576   3.521   4.410 -0.0633  0.3387  0.5066
 3441TIP3    H131738   0.598   3.452   4.347  1.3933  0.0643  1.2628
 3441TIP3    H231739   0.496   3.561   4.376 -0.3245 -1.0099 -0.5210
 3442TIP3   OH231740   0.055   5.532  12.010 -0.5990  0.0720  0.1200
 3442TIP3    H131741   0.150   5.523  12.020 -0.7486 -0.4590  1.1522
 3442TIP3    H231742   0.045   5.577  11.926  0.5579  0.0028 -0.0827
 3443TIP3   OH231743   2.516   6.104  16.247 -0.2746  0.0292  0.0149
 3443TIP3    H131744   2.515   6.039  16.176  0.1012 -0.2606  0.2716
 3443TIP3    H231745   2.539   6.186  16.203 -0.6892 -0.0225 -0.3033
 3444TIP3   OH231746   5.659   6.126   5.666  0.8262 -0.3817 -0.4466
 3444TIP3    H131747   5.671   6.163   5.753  0.9596 -3.0131  0.7351
 3444TIP3    H231748   5.735   6.070   5.652 -0.1697 -1.5732 -1.3741
 3445TIP3   OH231749   0.976   0.835   2.200 -0.1297  0.0171 -0.2090
 3445TIP3    H131750   1.009   0.920   2.229 -1.0966  1.2143 -2.3831
 3445TIP3    H231751   0.985   0.837   2.105  0.3533 -2.5874 -0.2801
 3446TIP3   OH231752   3.536   1.840  13.404 -0.4789  0.1095  0.3486
 3446TIP3    H131753   3.532   1.928  13.442  1.8722 -0.3740  1.9311
 3446TIP3    H231754   3.529   1.781  13.479  2.8484 -0.9114  0.0010
 3447TIP3   OH231755   4.945   1.881   1.893  0.1934  0.2867  0.0603
 3447TIP3    H131756   4.942   1.956   1.835  0.2596  0.3778  0.1756
 3447TIP3    H231757   4.972   1.916   1.978  1.4050 -0.0496 -0.1733
 3448TIP3   OH231758   0.642   6.358   1.097  0.1054 -0.6241 -0.7266
 3448TIP3    H131759   0.700   6.324   1.165  0.7619 -0.3503 -1.1414
 3448TIP3    H231760   0.676   6.445   1.078 -1.6349  0.3601  0.4219
 3449TIP3   OH231761   3.523   4.204   3.873  0.1414  0.0860  0.2837
 3449TIP3    H131762   3.453   4.267   3.860  0.1845  0.0255 -0.2327
 3449TIP3    H231763   3.603   4.255   3.869  0.2407 -0.1500 -1.2357
 3450TIP3   OH231764   5.171   1.721   0.638  0.2221  0.3748  0.3047
 3450TIP3    H131765   5.218   1.797   0.603  1.6525 -0.5453  0.1278
 3450TIP3    H231766   5.197   1.648   0.582 -2.3468 -0.0180 -0.5140
 3451TIP3   OH231767   4.043   3.478   4.052 -0.2463 -0.3006  0.0463
 3451TIP3    H131768   3.952   3.469   4.022 -0.7000  1.3258  0.7859
 3451TIP3    H231769   4.095   3.429   3.988 -1.2031  2.3436 -3.0218
 3452TIP3   OH231770   3.344   5.958   5.508  0.3499 -0.2134  0.1412
 3452TIP3    H131771   3.318   6.006   5.587  1.4745 -0.1612  0.4975
 3452TIP3    H231772   3.384   5.878   5.540  1.5962  0.1956 -0.3206
 3453TIP3   OH231773   1.114   1.482  13.891  0.0017 -0.0714  0.4752
 3453TIP3    H131774   1.089   1.418  13.959 -0.0701  0.9305  1.4268
 3453TIP3    H231775   1.105   1.434  13.809 -2.2337 -0.6442  0.9747
 3454TIP3   OH231776   4.105   2.057   6.118 -0.0796 -0.3910  0.1350
 3454TIP3    H131777   4.138   2.073   6.030  0.2979 -2.6486 -0.2096
 3454TIP3    H231778   4.093   1.962   6.122 -1.5568 -0.2005  2.0142
 3455TIP3   OH231779   6.664   4.941   1.724  0.5993 -0.3076 -0.4061
 3455TIP3    H131780   6.586   4.974   1.680  0.1845  0.1971  0.6674
 3455TIP3    H231781   6.698   5.017   1.772  0.3198 -1.1107  1.1251
 3456TIP3   OH231782   2.966   2.672   0.128 -0.1128  0.8022 -0.1341
 3456TIP3    H131783   2.900   2.677   0.058  0.3532  1.6380 -0.5272
 3456TIP3    H231784   2.964   2.758   0.169 -0.5885  0.2260  1.0964
 3457TIP3   OH231785   0.952   5.784   3.470  0.4939 -0.6360 -0.5164
 3457TIP3    H131786   0.903   5.807   3.549 -1.4903 -0.8120 -1.6526
 3457TIP3    H231787   1.016   5.855   3.460 -0.2624  0.1970  0.3754
 3458TIP3   OH231788   0.654   3.300  14.314 -0.7393 -0.0427 -0.2328
 3458TIP3    H131789   0.670   3.219  14.362 -0.1040  0.7064  0.8595
 3458TIP3    H231790   0.740   3.339  14.303 -1.1813  1.3879  0.9303
 3459TIP3   OH231791   6.038   1.715  15.920  0.3719 -0.3288 -0.0163
 3459TIP3    H131792   5.969   1.775  15.890  0.3178 -1.1598 -1.6225
 3459TIP3    H231793   6.061   1.748  16.007 -0.8857  0.9615 -0.1280
 3460TIP3   OH231794   4.228   4.553  16.848 -0.6204 -0.0978  0.1624
 3460TIP3    H131795   4.315   4.514  16.852 -0.2237  0.7096 -0.2090
 3460TIP3    H231796   4.185   4.524  16.928  0.8875  1.5124  1.6663
 3461TIP3   OH231797   4.578   0.521  16.537  0.2655 -0.3863 -0.6734
 3461TIP3    H131798   4.547   0.515  16.447 -0.2887  1.5501 -0.6584
 3461TIP3    H231799   4.501   0.546  16.587  0.4776 -1.8181  0.4343
 3462TIP3   OH231800   1.322   6.546   1.622  0.2371 -0.2126 -0.5380
 3462TIP3    H131801   1.344   6.583   1.537 -0.4353  3.2543  0.6317
 3462TIP3    H231802   1.232   6.513   1.611 -0.1267  0.8910 -1.0328
 3463TIP3   OH231803   0.971   1.881  12.333 -0.6296  0.0931  0.0334
 3463TIP3    H131804   1.038   1.939  12.370  1.5578 -2.3450  0.1851
 3463TIP3    H231805   0.983   1.798  12.379 -2.7957 -0.8872 -1.0396
 3464TIP3   OH231806   4.988   2.402   1.887  0.1268 -0.0445 -0.0831
 3464TIP3    H131807   4.982   2.396   1.792  1.1478  0.5991 -0.2002
 3464TIP3    H231808   4.923   2.339   1.919 -0.7232  0.2429 -1.1919
 3465TIP3   OH231809   4.010   3.161   3.101  0.8649 -0.1339  0.8397
 3465TIP3    H131810   4.102   3.184   3.088  0.8679  0.3696  1.6346
 3465TIP3    H231811   3.962   3.238   3.070  0.7118 -0.4174  0.3766
 3466TIP3   OH231812   0.332   5.570   0.540 -0.4364 -0.1036  0.3488
 3466TIP3    H131813   0.252   5.570   0.487 -0.0364  1.8878 -0.3401
 3466TIP3    H231814   0.302   5.552   0.629 -1.1675 -3.0949 -0.4082
 3467TIP3   OH231815   1.030   5.933   0.363  0.3488  0.5752  0.0982
 3467TIP3    H131816   1.005   5.899   0.277 -0.5068  2.8148 -0.5937
 3467TIP3    H231817   1.023   5.857   0.421 -0.5205 -0.6531 -1.5231
 3468TIP3   OH231818   1.032   0.662  14.446  0.4019 -0.2952  0.1993
 3468TIP3    H131819   1.010   0.627  14.360 -0.2300  0.1035  0.1951
 3468TIP3    H231820   0.957   0.640  14.502  0.0186  0.9755  0.2113
 3469TIP3   OH231821   2.037   4.456   0.525 -0.0011  0.1551  0.1926
 3469TIP3    H131822   2.099   4.447   0.453 -1.1039 -2.3051 -0.5416
 3469TIP3    H231823   2.027   4.367   0.559  0.1835  1.1651  3.1832
 3470TIP3   OH231824   4.514   6.025  15.303  0.2380 -0.3805  0.0919
 3470TIP3    H131825   4.604   5.997  15.287  0.3471  0.1179 -0.1945
 3470TIP3    H231826   4.476   6.033  15.215  0.0882 -0.0298  0.1859
 3471TIP3   OH231827   2.538   1.493   5.816 -0.4209  0.7951  0.3232
 3471TIP3    H131828   2.468   1.440   5.779  0.9699 -0.6644 -0.3672
 3471TIP3    H231829   2.515   1.503   5.909 -2.0735  1.3319 -0.1194
 3472TIP3   OH231830   0.900   0.787   2.483  0.2899  0.0911 -0.4078
 3472TIP3    H131831   0.900   0.883   2.478  1.1085  0.1340  0.3004
 3472TIP3    H231832   0.855   0.760   2.403  1.5437  1.0356 -1.4909
 3473TIP3   OH231833   1.107   6.602   2.333 -0.4196  0.7301  0.1216
 3473TIP3    H131834   1.184   6.576   2.282 -0.0076  2.6477 -0.3334
 3473TIP3    H231835   1.135   6.594   2.424  1.3622  3.8473  0.0093
 3474TIP3   OH231836   6.496   3.851   1.409 -0.1630 -0.6900 -0.2433
 3474TIP3    H131837   6.464   3.772   1.365 -0.3531 -1.2588  0.8586
 3474TIP3    H231838   6.445   3.855   1.490  0.8439 -0.2288  0.3906
 3475TIP3   OH231839   1.272   2.169   6.230  0.1140 -0.1307 -0.5623
 3475TIP3    H131840   1.217   2.092   6.246 -0.2437  0.4712  1.3685
 3475TIP3    H231841   1.316   2.184   6.314 -0.9996  2.7034 -0.4068
 3476TIP3   OH231842   2.887   1.937  12.359  0.2382  0.3327  0.7644
 3476TIP3    H131843   2.944   1.937  12.435  2.7440 -0.4393 -0.9842
 3476TIP3    H231844   2.844   1.852  12.360 -0.7125  0.8013  1.9284
 3477TIP3   OH231845   1.540   4.547   2.253 -0.8240 -0.5394  0.6487
 3477TIP3    H131846   1.468   4.599   2.216 -0.2040  0.8986  1.3910
 3477TIP3    H231847   1.534   4.463   2.208  0.4190  1.3075 -3.4261
 3478TIP3   OH231848   2.886   5.308  14.629  0.0104 -0.2767  0.1820
 3478TIP3    H131849   2.836   5.231  14.654  2.4481 -1.0501  3.1982
 3478TIP3    H231850   2.830   5.382  14.651 -0.7988 -1.1490  1.1102
 3479TIP3   OH231851   3.810   3.591   3.616  0.2029  0.0607 -0.0424
 3479TIP3    H131852   3.834   3.684   3.619  0.7105 -0.0853  0.6324
 3479TIP3    H231853   3.893   3.544   3.624  0.0903 -0.4662 -1.7550
 3480TIP3   OH231854   0.301   3.329  16.045  0.0812  0.6681  0.2048
 3480TIP3    H131855   0.343   3.405  16.085 -1.3697  2.0183 -0.7670
 3480TIP3    H231856   0.218   3.320  16.090  0.0322 -0.0609 -0.0139
 3481TIP3   OH231857   1.705   4.867   3.531  0.0531 -0.1509 -0.2842
 3481TIP3    H131858   1.694   4.926   3.605 -0.3229 -1.8117  1.0602
 3481TIP3    H231859   1.669   4.915   3.456  0.4735  1.5861  0.5825
 3482TIP3   OH231860   3.774   0.180   6.269 -0.4548  0.7304 -0.1224
 3482TIP3    H131861   3.781   0.219   6.357 -0.9267  0.3613  0.0850
 3482TIP3    H231862   3.753   0.254   6.212  0.7746  1.1303 -0.0831
 3483TIP3   OH231863   6.171   2.247  11.614 -0.6076  0.2640 -0.4458
 3483TIP3    H131864   6.115   2.187  11.664 -0.1914  0.3132  0.0892
 3483TIP3    H231865   6.172   2.327  11.666  2.1858 -0.6008  1.0746
 3484TIP3   OH231866   6.720   3.486  14.009  0.2453 -0.0287  0.2476
 3484TIP3    H131867   6.666   3.549  13.962  0.0630 -0.5963 -0.3228
 3484TIP3    H231868   6.721   3.408  13.952  0.4167 -0.5573  0.9615
 3485TIP3   OH231869   4.465   0.135  15.320  0.3354 -0.0504  0.1644
 3485TIP3    H131870   4.420   0.076  15.379 -1.3250 -0.2709 -1.2265
 3485TIP3    H231871   4.470   0.218  15.367  0.9751 -0.7559  1.3903
 3486TIP3   OH231872   1.222   6.147  12.133  0.2635  0.2649  0.4974
 3486TIP3    H131873   1.145   6.092  12.119  0.8335 -0.6830  0.9830
 3486TIP3    H231874   1.281   6.125  12.061  0.6034  0.0211  0.8411
 3487TIP3   OH231875   1.007   1.374  15.663  0.9890 -0.5670  0.0117
 3487TIP3    H131876   1.026   1.403  15.574  1.7432 -2.7626 -0.5903
 3487TIP3    H231877   1.084   1.324  15.690  0.2392 -1.0315  1.4281
 3488TIP3   OH231878   1.524   4.686   2.769 -0.4521 -0.2212  0.3593
 3488TIP3    H131879   1.614   4.671   2.797 -0.2808 -0.3756 -0.2532
 3488TIP3    H231880   1.506   4.614   2.708 -0.7473  0.2152 -0.0676
 3489TIP3   OH231881   3.359   6.688  16.540 -0.1578  0.0077  0.0976
 3489TIP3    H131882   3.293   6.689  16.610  0.5611  0.5765  0.7859
 3489TIP3    H231883   3.436   6.649  16.582  0.2474  0.2587 -0.4106
 3490TIP3   OH231884   5.714   5.639   3.673 -0.6547 -0.0344 -0.1062
 3490TIP3    H131885   5.735   5.560   3.722 -1.2811 -0.0672  0.1132
 3490TIP3    H231886   5.626   5.623   3.638  0.1871 -0.4760 -2.1649
 3491TIP3   OH231887   6.731   1.966   4.666  0.1394  0.3679  0.3654
 3491TIP3    H131888   6.704   1.925   4.583 -0.5959  0.6393  0.4582
 3491TIP3    H231889   6.816   2.006   4.646  0.2261 -0.0331 -0.1041
 3492TIP3   OH231890   1.167   3.905   3.944 -0.1229  0.7047  0.3732
 3492TIP3    H131891   1.261   3.921   3.937 -0.0038  0.2377  0.7955
 3492TIP3    H231892   1.155   3.874   4.034 -0.5971  0.2198  0.1534
 3493TIP3   OH231893   0.324   4.591  11.366  0.1625 -0.0217 -0.6205
 3493TIP3    H131894   0.318   4.546  11.281 -0.2586 -2.0152  0.3966
 3493TIP3    H231895   0.248   4.560  11.415  1.1782 -0.0723  0.9979
 3494TIP3   OH231896   2.471   4.922   1.262  1.3601  0.3342  0.0840
 3494TIP3    H131897   2.487   4.934   1.168  2.8590  0.9715  0.3994
 3494TIP3    H231898   2.548   4.960   1.305  0.0152  1.4495  1.6442
 3495TIP3   OH231899   1.175   1.848   4.321  0.0779 -0.4236 -0.0000
 3495TIP3    H131900   1.138   1.925   4.278 -1.5896 -1.4638 -0.4839
 3495TIP3    H231901   1.120   1.834   4.398  1.1747 -0.3954  0.8225
 3496TIP3   OH231902   4.948   1.749  16.514 -0.0660 -0.6151  0.4584
 3496TIP3    H131903   5.001   1.756  16.435 -0.1560 -1.8819  0.2562
 3496TIP3    H231904   5.011   1.737  16.585  0.0782  1.6468  0.7822
 3497TIP3   OH231905   5.352   5.730   4.457  0.1256  0.0258 -0.2230
 3497TIP3    H131906   5.291   5.801   4.438  2.3831  2.2286  0.2402
 3497TIP3    H231907   5.400   5.717   4.375  0.0748 -0.5878 -0.1562
 3498TIP3   OH231908   6.680   2.333  16.440  0.4766 -0.3797 -0.0019
 3498TIP3    H131909   6.697   2.241  16.459  0.5853 -0.3768 -0.0839
 3498TIP3    H231910   6.759   2.378  16.470  1.7081 -0.6326 -2.6083
 3499TIP3   OH231911   5.300   1.326   3.530 -0.7694  0.2015 -0.4972
 3499TIP3    H131912   5.264   1.341   3.443 -0.4064  0.3992 -0.6158
 3499TIP3    H231913   5.386   1.369   3.528 -0.5976 -0.1244 -0.1689
 3500TIP3   OH231914   1.414   3.503  13.388 -0.1768  0.1407 -0.2625
 3500TIP3    H131915   1.414   3.569  13.319  0.1706 -0.5065 -0.9025
 3500TIP3    H231916   1.487   3.528  13.445  0.3375 -0.0179 -0.8351
 3501TIP3   OH231917   0.631   6.765  14.133 -0.0634 -0.3560 -0.0492
 3501TIP3    H131918   0.550   6.808  14.159 -0.0927 -0.5259  0.1411
 3501TIP3    H231919   0.670   6.824  14.069  0.5512  0.6183  1.1745
 3502TIP3   OH231920   3.478   1.288   6.307  0.2713  0.0434 -0.6007
 3502TIP3    H131921   3.502   1.251   6.392 -0.2069 -2.4533 -1.4683
 3502TIP3    H231922   3.560   1.322   6.271  0.9275 -0.9621 -0.0915
 3503TIP3   OH231923   3.472   0.330   5.267  0.1884 -0.1433 -0.1107
 3503TIP3    H131924   3.526   0.402   5.299 -0.2158 -0.2722  0.9072
 3503TIP3    H231925   3.526   0.252   5.278  1.5766  0.1827 -3.4441
 3504TIP3   OH231926   5.795   1.544   1.707 -0.4982 -0.7574  0.0577
 3504TIP3    H131927   5.866   1.583   1.655 -1.7131  0.1827 -0.9541
 3504TIP3    H231928   5.839   1.478   1.761  1.2027  0.0469 -0.2606
 3505TIP3   OH231929   4.083   0.133   3.564 -0.0061 -0.2871 -0.0428
 3505TIP3    H131930   4.132   0.052   3.580 -0.3857 -0.0975  2.3224
 3505TIP3    H231931   4.143   0.187   3.513  1.1079 -1.2011  0.2649
 3506TIP3   OH231932   4.706   5.794   0.495 -0.2221  0.2127  0.0317
 3506TIP3    H131933   4.719   5.881   0.533 -0.1721 -0.6069  1.9892
 3506TIP3    H231934   4.676   5.740   0.568  2.6527 -2.1616 -0.3560
 3507TIP3   OH231935   3.052   0.466  13.052 -0.1198 -0.4238  0.0242
 3507TIP3    H131936   2.997   0.470  12.974  1.6326  0.1750 -1.2522
 3507TIP3    H231937   3.085   0.376  13.053 -0.7898 -0.6703  0.5667
 3508TIP3   OH231938   1.816   3.088  14.429 -0.0935  0.2879 -0.2840
 3508TIP3    H131939   1.729   3.118  14.404 -0.6543 -0.7420  0.3535
 3508TIP3    H231940   1.872   3.111  14.355 -1.5364 -2.0409 -2.2445
 3509TIP3   OH231941   6.677   0.212   2.619  0.3439 -0.1412 -0.2264
 3509TIP3    H131942   6.608   0.223   2.685  1.0147 -1.6211  0.7604
 3509TIP3    H231943   6.721   0.131   2.643  2.0005  0.4018 -1.2568
 3510TIP3   OH231944   0.357   0.775  17.037  0.1942 -0.2003  0.2767
 3510TIP3    H131945   0.284   0.713  17.033  0.8629 -1.0942  1.2327
 3510TIP3    H231946   0.332   0.846  16.978 -1.6722 -0.2239  0.9783
 3511TIP3   OH231947   2.602   0.002  13.915  0.2180 -0.3438 -0.1552
 3511TIP3    H131948   2.671   0.068  13.907  1.0538 -0.9564  1.4575
 3511TIP3    H231949   2.585  -0.026  13.826  1.7887  0.1150 -0.6275
 3512TIP3   OH231950   6.506   1.306   2.660  0.4271  0.3877  0.3088
 3512TIP3    H131951   6.418   1.341   2.653 -0.8228 -2.3541  0.9676
 3512TIP3    H231952   6.527   1.274   2.573  1.0156  1.4497  0.0376
 3513TIP3   OH231953   6.175   0.743   1.301 -0.1140  0.4466 -0.0649
 3513TIP3    H131954   6.259   0.776   1.271  0.3924 -1.0301 -0.3054
 3513TIP3    H231955   6.194   0.657   1.338 -1.7913 -0.9076 -2.0979
 3514TIP3   OH231956   1.042   0.454   2.882  0.6790 -0.5484  0.0637
 3514TIP3    H131957   1.098   0.405   2.821  0.5154  1.1119 -1.5313
 3514TIP3    H231958   0.991   0.512   2.825  2.3545  2.9935  1.8323
 3515TIP3   OH231959   5.375   3.014   1.772  0.1070 -0.3935  0.2477
 3515TIP3    H131960   5.426   3.004   1.852  0.6683 -0.8804 -0.1610
 3515TIP3    H231961   5.347   2.926   1.750 -0.8715 -0.1329  0.4348
 3516TIP3   OH231962   6.456   6.170   5.632  0.6621  0.7461 -0.0987
 3516TIP3    H131963   6.523   6.123   5.682  0.5465  0.2996 -0.3626
 3516TIP3    H231964   6.395   6.103   5.603  0.6632  1.0149 -0.7438
 3517TIP3   OH231965   4.181   0.259  10.406  0.2453  0.5760  0.2517
 3517TIP3    H131966   4.165   0.353  10.395 -1.8004  0.1169 -1.2711
 3517TIP3    H231967   4.109   0.217  10.359  2.0201 -1.7739 -0.5538
 3518TIP3   OH231968   3.102   2.435  11.985 -0.2930 -0.5058 -0.0873
 3518TIP3    H131969   3.090   2.484  12.066  1.1181 -0.1780 -0.0672
 3518TIP3    H231970   3.082   2.499  11.916  0.2715 -0.2731 -0.0355
 3519TIP3   OH231971   5.350   4.720   2.032 -0.0384  0.2307 -0.0416
 3519TIP3    H131972   5.392   4.708   1.948 -1.5658  1.2693 -1.0089
 3519TIP3    H231973   5.326   4.813   2.035 -2.9589 -0.4167  0.0256
 3520TIP3   OH231974   4.638   6.088  13.624  0.0513  0.0657  0.0493
 3520TIP3    H131975   4.699   6.098  13.697 -0.9213 -0.4033  0.9542
 3520TIP3    H231976   4.615   6.178  13.600  0.5493  0.2292  0.1622
 3521TIP3   OH231977   5.350   3.478  13.431 -0.5419 -0.4501 -0.2391
 3521TIP3    H131978   5.358   3.566  13.467  0.0661 -0.5713 -0.0621
 3521TIP3    H231979   5.391   3.483  13.345 -0.5012 -0.5612 -0.2275
 3522TIP3   OH231980   4.381   2.135  14.774 -0.3068 -0.1921  0.3770
 3522TIP3    H131981   4.306   2.112  14.829  0.4697  0.2640  1.6648
 3522TIP3    H231982   4.384   2.230  14.776 -0.5845 -0.1262 -0.9411
 3523TIP3   OH231983   1.461   2.923  15.717  0.4104 -0.0312  0.3096
 3523TIP3    H131984   1.544   2.970  15.716  0.5956 -0.3605 -0.1033
 3523TIP3    H231985   1.457   2.878  15.633  0.4656 -1.1428  0.8740
 3524TIP3   OH231986   3.536   5.637   1.516  0.3746 -0.5969  0.8028
 3524TIP3    H131987   3.447   5.627   1.483  0.3503 -2.0637  1.2302
 3524TIP3    H231988   3.538   5.587   1.597  2.5145 -3.7444 -0.9676
 3525TIP3   OH231989   1.436   3.959   2.650 -0.3736  0.3924 -0.3942
 3525TIP3    H131990   1.367   3.961   2.716 -2.6241 -0.8814 -2.5195
 3525TIP3    H231991   1.508   4.009   2.689 -2.0335  0.8246  2.4196
 3526TIP3   OH231992   3.321   4.807   1.558 -0.3041  0.2436  0.4036
 3526TIP3    H131993   3.379   4.731   1.560 -0.2953  0.2537  0.5182
 3526TIP3    H231994   3.246   4.780   1.505 -0.3716  0.1072  0.5700
 3527TIP3   OH231995   2.830   5.302  15.117  0.0239 -0.2744 -0.3489
 3527TIP3    H131996   2.844   5.228  15.177 -0.9226  0.2696  0.5786
 3527TIP3    H231997   2.910   5.306  15.065  2.7890  1.7679  3.6002
 3528TIP3   OH231998   6.266   0.931  11.262 -0.1373 -0.5609 -0.0929
 3528TIP3    H131999   6.271   0.875  11.340 -3.5203 -0.6679  0.2237
 3528TIP3    H232000   6.283   0.872  11.189 -0.9413 -1.4249  0.3919
 3529TIP3   OH232001   4.800   2.703   2.057 -0.3261  0.0849  0.1282
 3529TIP3    H132002   4.774   2.646   1.984  0.5722 -1.9137  1.2600
 3529TIP3    H232003   4.893   2.684   2.070  0.2264  2.4706  0.0678
 3530TIP3   OH232004   5.615   3.968  13.087 -0.2134  0.7054 -0.3714
 3530TIP3    H132005   5.549   3.926  13.142  1.1541 -0.5624  0.3996
 3530TIP3    H232006   5.583   4.057  13.074 -1.5183  0.4599  0.8891
 3531TIP3   OH232007   1.805   1.354  15.744  0.7963  0.0271  0.1812
 3531TIP3    H132008   1.731   1.304  15.778 -1.2448  2.7647  0.1316
 3531TIP3    H232009   1.865   1.288  15.709 -1.4504 -2.3516  0.5193
 3532TIP3   OH232010   5.958   3.784   5.580 -0.0624 -0.0598 -0.0257
 3532TIP3    H132011   5.892   3.729   5.538  0.3376 -0.5407 -0.0355
 3532TIP3    H232012   6.028   3.723   5.604  0.8639  0.5882 -0.9795
 3533TIP3   OH232013   1.434   6.657  16.659 -0.1442 -0.2499  0.0274
 3533TIP3    H132014   1.523   6.630  16.635 -0.0581 -0.2582  0.3441
 3533TIP3    H232015   1.377   6.597  16.612  0.0172 -0.1772 -0.2605
 3534TIP3   OH232016   4.326   0.711  11.308 -0.0469 -0.2741 -0.2831
 3534TIP3    H132017   4.237   0.741  11.289  0.6936  1.8457 -0.5738
 3534TIP3    H232018   4.348   0.656  11.232 -0.8242 -0.1864 -0.5878
 3535TIP3   OH232019   5.327   6.648  15.527 -0.2340  0.8168 -0.3164
 3535TIP3    H132020   5.323   6.554  15.510  1.6613  0.8184 -1.0366
 3535TIP3    H232021   5.316   6.656  15.622 -1.3037 -0.0339 -0.3490
 3536TIP3   OH232022   4.910   3.730   0.074  0.4027 -0.1387 -0.0392
 3536TIP3    H132023   4.880   3.652   0.121 -0.6226 -0.4832 -1.1960
 3536TIP3    H232024   5.005   3.723   0.074  0.3617 -0.9392  0.6167
 3537TIP3   OH232025   5.399   2.181   3.707 -0.0506  0.3668  0.0450
 3537TIP3    H132026   5.365   2.203   3.620 -1.4281  0.0175  0.4707
 3537TIP3    H232027   5.447   2.259   3.735  1.2213  0.1411 -1.4019
 3538TIP3   OH232028   3.061   4.261  16.310 -0.4940 -0.3201 -0.3340
 3538TIP3    H132029   3.152   4.278  16.333 -0.6277 -0.9071  0.7187
 3538TIP3    H232030   3.056   4.166  16.302 -1.3506 -0.4352  1.2171
 3539TIP3   OH232031   6.758   4.164  14.514  0.1367  0.2843 -0.1258
 3539TIP3    H132032   6.693   4.164  14.444 -0.4097 -1.6020  0.3322
 3539TIP3    H232033   6.752   4.252  14.552 -0.2821  1.0055 -1.7406
 3540TIP3   OH232034   3.744   1.724   4.592  0.1451  0.4396  0.0992
 3540TIP3    H132035   3.765   1.814   4.565 -0.5915  0.3937 -0.6686
 3540TIP3    H232036   3.824   1.692   4.633  0.7661  1.0891 -0.5793
 3541TIP3   OH232037   6.200   1.260   1.692 -0.2773 -0.6524  0.4015
 3541TIP3    H132038   6.269   1.236   1.753  2.8198 -0.5255 -2.7434
 3541TIP3    H232039   6.201   1.190   1.626 -2.7488 -0.2648 -0.1525
 3542TIP3   OH232040   5.605   1.027   1.431 -0.5761 -0.1958 -0.2221
 3542TIP3    H132041   5.659   1.022   1.352 -0.6855  0.3259 -0.3333
 3542TIP3    H232042   5.621   1.115   1.466  0.3181 -0.7780  0.9485
 3543TIP3   OH232043   4.077   3.106   0.177 -0.4797  0.1714 -0.6378
 3543TIP3    H132044   4.023   3.118   0.255  0.0555  0.7067 -0.3369
 3543TIP3    H232045   4.157   3.155   0.196  0.4835 -1.3063 -0.7069
 3544TIP3   OH232046   3.041   0.399   3.648 -0.2092  0.1958 -0.0153
 3544TIP3    H132047   3.118   0.375   3.597 -1.4263 -1.2448 -1.2716
 3544TIP3    H232048   2.967   0.384   3.589 -1.5169  0.6984  1.4293
 3545TIP3   OH232049   5.320   0.120  15.742  0.4831 -0.3604  0.1093
 3545TIP3    H132050   5.281   0.103  15.827  0.2128 -1.3602 -0.2026
 3545TIP3    H232051   5.372   0.042  15.723  1.5499  0.3759 -0.0947
 3546TIP3   OH232052   0.297   0.824  11.410 -0.0694  0.0945  0.4595
 3546TIP3    H132053   0.285   0.896  11.473 -0.3618 -0.0591  0.5760
 3546TIP3    H232054   0.388   0.834  11.381  0.6682 -0.9275  2.2672
 3547TIP3   OH232055   3.742   5.680  10.724  0.5780 -0.3055  0.5266
 3547TIP3    H132056   3.660   5.727  10.740  0.5975 -0.0795 -0.0204
 3547TIP3    H232057   3.784   5.676  10.810 -0.4163 -1.2046  0.9959
 3548TIP3   OH232058   2.959   5.754   1.851  0.3960  0.1390  0.0792
 3548TIP3    H132059   2.884   5.695   1.855 -0.4422  1.1018 -0.9920
 3548TIP3    H232060   3.025   5.706   1.800  0.2200 -0.3776  0.3284
 3549TIP3   OH232061   1.998   6.526   6.147  0.0470 -0.3220  0.4159
 3549TIP3    H132062   1.905   6.514   6.164  0.3131  0.3818  2.7098
 3549TIP3    H232063   2.021   6.607   6.192  2.0738 -1.3037  1.2763
 3550TIP3   OH232064   4.901   4.154   5.625  0.4670  0.4478  0.3584
 3550TIP3    H132065   4.890   4.199   5.709  1.4696 -2.2552  2.0696
 3550TIP3    H232066   4.824   4.098   5.617 -0.3818  1.7685 -1.3479
 3551TIP3   OH232067   0.992   3.598  12.766  0.3135 -0.2570  0.2209
 3551TIP3    H132068   0.947   3.526  12.721  0.4738 -0.0721 -0.2318
 3551TIP3    H232069   1.070   3.558  12.804  0.7315 -0.1928 -0.5634
 3552TIP3   OH232070   0.706   5.807   1.635  0.4705  1.1147 -0.6072
 3552TIP3    H132071   0.618   5.841   1.624  0.6392  1.9911  0.5774
 3552TIP3    H232072   0.759   5.884   1.656  1.5422  0.6180 -1.4019
 3553TIP3   OH232073   5.149   5.913   1.928 -0.8862  0.6061 -0.5988
 3553TIP3    H132074   5.145   5.840   1.866  0.3086  1.8141 -2.1778
 3553TIP3    H232075   5.063   5.912   1.972 -0.5190 -2.4029  0.2906
 3554TIP3   OH232076   5.095   6.005  15.471 -0.6222 -0.3163 -0.3231
 3554TIP3    H132077   5.060   6.092  15.452 -0.0649 -0.1813 -0.7618
 3554TIP3    H232078   5.142   5.980  15.391  0.1690 -0.5491  0.2028
 3555TIP3   OH232079   1.052   5.839  10.700 -0.2833 -0.3317 -0.4507
 3555TIP3    H132080   0.978   5.890  10.667 -0.2123 -0.9698 -1.6416
 3555TIP3    H232081   1.128   5.877  10.656  0.5228  1.9848  2.6043
 3556TIP3   OH232082   3.724   4.573   1.772 -0.4532 -1.0578 -0.3484
 3556TIP3    H132083   3.644   4.594   1.821  0.1513  0.3929  0.0656
 3556TIP3    H232084   3.774   4.516   1.830 -1.6608 -2.9449 -1.0665
 3557TIP3   OH232085   0.696   1.178  13.502 -0.2958 -0.5351  0.2845
 3557TIP3    H132086   0.788   1.203  13.508 -0.4747 -0.0916  1.2960
 3557TIP3    H232087   0.698   1.083  13.489  0.3593 -0.2344 -2.4089
 3558TIP3   OH232088   5.312   2.318   3.451 -0.6825 -0.0302 -0.5250
 3558TIP3    H132089   5.399   2.339   3.419  0.2281  0.4092  1.9854
 3558TIP3    H232090   5.258   2.392   3.422  0.1310  0.4810 -0.7790
 3559TIP3   OH232091   5.082   3.190   3.117  0.4797  0.2919 -0.2519
 3559TIP3    H132092   5.019   3.239   3.064  0.2971  0.9412  0.5387
 3559TIP3    H232093   5.043   3.189   3.204  1.5219  0.6124  0.2256
 3560TIP3   OH232094   1.948   5.783  15.036 -0.2501 -0.1940  1.1769
 3560TIP3    H132095   1.908   5.794  15.122 -1.6586 -1.0764  0.6782
 3560TIP3    H232096   1.988   5.696  15.039 -1.1069 -0.6244  0.6698
 3561TIP3   OH232097   0.083   2.664  16.000 -0.2546 -0.2520  0.2581
 3561TIP3    H132098   0.094   2.576  16.036 -0.6589 -1.1848 -1.7539
 3561TIP3    H232099   0.158   2.676  15.943 -0.8018  0.2304 -0.3776
 3562TIP3   OH232100   0.719   2.503  12.788  0.3630 -0.1126  0.0828
 3562TIP3    H132101   0.692   2.441  12.720  0.3065 -0.7470  0.6684
 3562TIP3    H232102   0.793   2.461  12.831  1.5865  1.0936 -0.7350
 3563TIP3   OH232103   1.362   5.276  13.933 -0.0898  0.3089  0.2345
 3563TIP3    H132104   1.376   5.225  14.013  0.3084 -2.0474 -1.2345
 3563TIP3    H232105   1.448   5.314  13.913 -0.0702  0.4807  0.6394
 3564TIP3   OH232106   6.545   3.000  16.604  0.8587  0.6820  0.5014
 3564TIP3    H132107   6.553   3.082  16.556  0.6997  0.8094  0.6921
 3564TIP3    H232108   6.490   3.021  16.679 -1.0566 -0.0940 -0.6155
 3565TIP3   OH232109   5.627   3.796   6.415 -0.1445  0.0601  0.4222
 3565TIP3    H132110   5.699   3.734   6.419  0.6323  0.9078 -0.1244
 3565TIP3    H232111   5.555   3.751   6.459  0.0758 -1.6243 -0.8350
 3566TIP3   OH232112   2.542   4.310   4.652  0.0549 -0.1262 -0.2072
 3566TIP3    H132113   2.513   4.332   4.563 -1.4033  1.1511  0.5467
 3566TIP3    H232114   2.614   4.371   4.670 -0.7721  0.7692  0.0995
 3567TIP3   OH232115   4.085   3.418  15.822 -0.1066 -0.4777  0.3565
 3567TIP3    H132116   3.994   3.436  15.845 -0.5764 -1.0111 -0.9679
 3567TIP3    H232117   4.115   3.354  15.886 -1.0437 -1.1859  0.1074
 3568TIP3   OH232118   2.537   2.381   1.565 -0.1376 -0.5293 -0.5076
 3568TIP3    H132119   2.497   2.329   1.494  0.2045  0.4487 -1.4377
 3568TIP3    H232120   2.594   2.443   1.520 -2.8254  2.8033  0.2432
 3569TIP3   OH232121   0.907   0.684   4.135 -0.5438 -0.4192  0.3918
 3569TIP3    H132122   0.895   0.740   4.212 -0.1962  0.0160  0.1363
 3569TIP3    H232123   0.942   0.602   4.170  4.0603  1.2350  0.3953
 3570TIP3   OH232124   3.804   6.346  16.106  0.4101 -1.0122  0.4519
 3570TIP3    H132125   3.766   6.315  16.024  1.5102 -1.0998 -0.0501
 3570TIP3    H232126   3.733   6.341  16.170 -0.3537 -1.3078 -0.4112
 3571TIP3   OH232127   2.159   0.018  12.062  0.5909  0.3841  0.5282
 3571TIP3    H132128   2.145   0.109  12.035  3.1248  0.8816  0.6115
 3571TIP3    H232129   2.179  -0.028  11.980  0.9944  0.2775  0.6862
 3572TIP3   OH232130   1.999   6.802  12.536  0.2532 -0.3158  0.4689
 3572TIP3    H132131   1.986   6.716  12.497  1.0168  0.2249 -1.0274
 3572TIP3    H232132   2.051   6.785  12.614  2.4204 -1.0225 -1.0501
 3573TIP3   OH232133   4.706   3.891  12.881  0.9103  0.0339  0.1404
 3573TIP3    H132134   4.711   3.975  12.834  0.3188  1.2387  2.1326
 3573TIP3    H232135   4.797   3.871  12.903  0.9415  0.8493  0.7959
 3574TIP3   OH232136   4.398   5.191  10.776 -0.2905 -0.4354  0.3880
 3574TIP3    H132137   4.415   5.283  10.797 -2.0842  0.7179 -2.4872
 3574TIP3    H232138   4.484   5.152  10.763  0.4957  0.8477  1.5187
 3575TIP3   OH232139   1.178   4.871  15.451  0.3605 -0.0894 -1.0127
 3575TIP3    H132140   1.138   4.820  15.521 -2.6601 -0.8009 -3.0601
 3575TIP3    H232141   1.135   4.956  15.455  0.1272 -0.1453 -1.9782
 3576TIP3   OH232142   4.493   6.784   6.095  0.3967  0.2958 -0.4215
 3576TIP3    H132143   4.585   6.793   6.074  0.5090 -0.1467 -0.1432
 3576TIP3    H232144   4.462   6.873   6.110  0.8749  0.4159 -0.1177
 3577TIP3   OH232145   0.779   0.583  16.189 -0.0310 -0.2497 -0.4793
 3577TIP3    H132146   0.718   0.545  16.253 -1.3423 -1.0377 -2.0942
 3577TIP3    H232147   0.843   0.513  16.174  0.1124 -0.1704 -0.2443
 3578TIP3   OH232148   3.759   2.927  11.259  0.2548 -0.6248  0.1306
 3578TIP3    H132149   3.715   3.012  11.256  0.3119 -0.5957 -2.9836
 3578TIP3    H232150   3.814   2.932  11.337 -3.0081  0.4086  2.5821
 3579TIP3   OH232151   0.440   3.801   1.833 -0.5952 -0.6503 -0.2745
 3579TIP3    H132152   0.440   3.705   1.841  0.6523 -0.5260  2.4660
 3579TIP3    H232153   0.370   3.830   1.891 -0.1614  0.1264 -0.1233
 3580TIP3   OH232154   3.950   3.481  14.606 -0.3123  0.0228 -0.3437
 3580TIP3    H132155   3.877   3.541  14.590 -0.4330  0.1670  0.6605
 3580TIP3    H232156   3.995   3.518  14.682 -1.5111 -2.1217  1.5525
 3581TIP3   OH232157   3.838   2.834   2.915 -0.0590 -0.0378  0.0259
 3581TIP3    H132158   3.858   2.783   2.994 -0.1197  0.9910  0.7258
 3581TIP3    H232159   3.922   2.845   2.871 -0.1485 -1.3291 -0.5134
 3582TIP3   OH232160   0.567   2.314   5.137 -0.0592  0.0766 -0.3534
 3582TIP3    H132161   0.644   2.281   5.091  1.0216  1.8326  0.0664
 3582TIP3    H232162   0.591   2.310   5.229 -0.4434  0.6614 -0.2221
 3583TIP3   OH232163   1.843   4.716   1.542 -0.4288  0.2991 -0.2712
 3583TIP3    H132164   1.764   4.750   1.500 -0.5871 -1.0203 -1.0981
 3583TIP3    H232165   1.832   4.738   1.634 -1.6711  0.3259 -0.4006
 3584TIP3   OH232166   6.054   5.025  14.996  0.3675 -0.1503  0.4029
 3584TIP3    H132167   6.067   4.934  14.969 -0.7590 -0.2275  0.0563
 3584TIP3    H232168   5.978   5.021  15.055  0.1421  0.5943  0.1769
 3585TIP3   OH232169   0.220   5.836  13.395  0.1048  0.5698 -0.2002
 3585TIP3    H132170   0.277   5.780  13.447  0.5042  2.6426  1.7720
 3585TIP3    H232171   0.141   5.846  13.448 -0.9689 -0.0432 -1.6364
 3586TIP3   OH232172   0.439   4.948   4.896 -0.1570  0.0232 -0.4157
 3586TIP3    H132173   0.513   4.888   4.905  0.3136  0.7413  0.8367
 3586TIP3    H232174   0.378   4.903   4.839  1.2673 -0.5813 -1.5315
 3587TIP3   OH232175   5.408   3.891   5.329  0.3764  0.0303 -0.2146
 3587TIP3    H132176   5.447   3.804   5.334  1.6902  0.5522 -0.9171
 3587TIP3    H232177   5.338   3.889   5.394  0.7640 -1.3581  0.2043
 3588TIP3   OH232178   0.477   0.751  13.538  0.6331  0.2183  0.1479
 3588TIP3    H132179   0.510   0.838  13.560  1.2161  0.3311 -1.0589
 3588TIP3    H232180   0.462   0.709  13.622 -1.2140  2.0308  0.7906
 3589TIP3   OH232181   5.985   4.884  12.286  0.3918  0.7265 -0.1467
 3589TIP3    H132182   5.984   4.892  12.190  1.5392  1.2165 -0.1454
 3589TIP3    H232183   5.902   4.844  12.308 -1.2756  3.4162 -1.0919
 3590TIP3   OH232184   2.397   2.954   5.571  0.2960 -0.0193 -0.4972
 3590TIP3    H132185   2.474   3.010   5.585 -0.3716  1.0991 -1.1418
 3590TIP3    H232186   2.323   3.015   5.572 -0.5519 -1.0234 -0.3145
 3591TIP3   OH232187   6.543   2.258  16.824  0.4525  0.5319 -0.2693
 3591TIP3    H132188   6.517   2.194  16.757  2.3214  0.4866 -1.0241
 3591TIP3    H232189   6.614   2.308  16.783  1.9884  0.1972  1.8234
 3592TIP3   OH232190   3.860   0.525   4.577 -0.0247  0.2201  0.3693
 3592TIP3    H132191   3.776   0.492   4.609  0.0418  0.5345  0.8903
 3592TIP3    H232192   3.920   0.452   4.587 -0.1392  0.1308  0.4086
 3593TIP3   OH232193   2.784   6.808   4.979 -0.5206  0.0707 -0.5432
 3593TIP3    H132194   2.879   6.823   4.976 -0.7525  1.7681 -0.1412
 3593TIP3    H232195   2.773   6.723   4.936  1.0496  0.4673 -1.8578
 3594TIP3   OH232196   2.375   3.074  16.892  0.0520 -0.0520 -0.1779
 3594TIP3    H132197   2.303   3.023  16.928  0.1800 -0.0313  0.1084
 3594TIP3    H232198   2.436   3.008  16.858  1.2288 -0.2327  2.0505
 3595TIP3   OH232199   1.468   4.999  11.190 -0.0545  0.1027 -0.0928
 3595TIP3    H132200   1.385   5.036  11.160 -1.3460 -0.9745  1.9288
 3595TIP3    H232201   1.469   5.015  11.284  1.8536 -0.2756 -0.0148
 3596TIP3   OH232202   0.151   0.907  13.017 -0.2090 -0.4776 -0.0926
 3596TIP3    H132203   0.170   0.956  13.097  0.3888 -2.6398  1.1601
 3596TIP3    H232204   0.056   0.906  13.012 -0.2632 -0.5516  0.7591
 3597TIP3   OH232205   0.403   2.810   5.678 -0.0827 -0.1850 -0.8056
 3597TIP3    H132206   0.470   2.879   5.678  0.1412 -0.3977 -1.0409
 3597TIP3    H232207   0.388   2.792   5.585 -1.6611  0.9985 -0.8136
 3598TIP3   OH232208   3.259   5.052  15.156  0.3528 -0.2535  0.0285
 3598TIP3    H132209   3.330   5.064  15.219  0.8006  0.2848 -0.5673
 3598TIP3    H232210   3.217   4.970  15.182  0.9954 -0.4137  0.5775
 3599TIP3   OH232211   1.846   5.677   2.144  0.1131 -0.0406 -0.1767
 3599TIP3    H132212   1.808   5.606   2.196 -0.1402  1.2067  1.4226
 3599TIP3    H232213   1.821   5.657   2.054 -0.7258 -1.4773  0.3396
 3600TIP3   OH232214   4.154   5.491   0.076 -0.3267  0.2564 -0.2262
 3600TIP3    H132215   4.186   5.460   0.161 -0.2799 -1.0104 -0.6736
 3600TIP3    H232216   4.158   5.413   0.020 -1.0998  0.8779 -1.1725
 3601TIP3   OH232217   0.832   1.938  11.300  1.1046 -0.1350 -0.2536
 3601TIP3    H132218   0.897   1.892  11.353 -0.4654  0.0705  1.9995
 3601TIP3    H232219   0.769   1.972  11.364  0.4135  2.2888 -2.0741
 3602TIP3   OH232220   2.645   0.947  12.678 -0.0222 -0.0011  0.4124
 3602TIP3    H132221   2.679   1.026  12.721 -0.5383  0.9657 -0.8943
 3602TIP3    H232222   2.583   0.911  12.740  0.4605  0.4401  1.1671
 3603TIP3   OH232223   1.202   1.203   2.754  0.6100 -0.1965  0.6691
 3603TIP3    H132224   1.215   1.109   2.746  0.6772 -0.1967  0.7760
 3603TIP3    H232225   1.166   1.230   2.669  1.4666 -0.1761  0.2925
 3604TIP3   OH232226   5.605   4.238  13.059 -0.5860 -0.6014 -0.4311
 3604TIP3    H132227   5.591   4.295  13.135 -1.4787 -0.5362 -0.6417
 3604TIP3    H232228   5.668   4.287  13.005  1.2047 -1.2971  0.9289
 3605TIP3   OH232229   2.180   5.769  15.836  0.0213  0.2723 -0.6644
 3605TIP3    H132230   2.208   5.807  15.753  0.8415  1.3537  0.0778
 3605TIP3    H232231   2.104   5.715  15.814 -1.1469  2.2716 -1.7744
 3606TIP3   OH232232   6.612   4.974   2.742 -0.0154 -0.1174 -0.1119
 3606TIP3    H132233   6.537   4.965   2.801 -0.7940 -1.1433 -1.2009
 3606TIP3    H232234   6.685   4.998   2.799 -1.0183  0.2280  1.0736
 3607TIP3   OH232235   3.736   2.945  13.382 -0.0433 -0.0463  0.8122
 3607TIP3    H132236   3.779   3.030  13.379 -0.9304  0.4231  0.9115
 3607TIP3    H232237   3.806   2.882  13.365  0.8576  0.6102  1.9282
 3608TIP3   OH232238   5.496   4.246   0.722 -0.2980 -0.3060 -0.1571
 3608TIP3    H132239   5.566   4.220   0.663 -1.0687  0.7061 -1.5936
 3608TIP3    H232240   5.507   4.190   0.799  1.3452 -0.9778 -0.8342
 3609TIP3   OH232241   0.847   4.781   1.480  0.1261  0.0185  0.4508
 3609TIP3    H132242   0.865   4.859   1.532 -2.9534  1.5030 -0.4276
 3609TIP3    H232243   0.779   4.734   1.529  0.9802 -1.4250  0.3071
 3610TIP3   OH232244   4.466   5.483   2.662  0.2047 -0.2879  0.0216
 3610TIP3    H132245   4.540   5.422   2.665 -0.0701 -0.7588 -1.5764
 3610TIP3    H232246   4.454   5.512   2.752  2.8857  0.4863  0.2058
 3611TIP3   OH232247   0.753   3.373  16.271 -0.4548 -0.1007  0.2686
 3611TIP3    H132248   0.686   3.441  16.283  0.3596  1.1227 -1.6491
 3611TIP3    H232249   0.730   3.332  16.188 -0.3641 -1.5755  0.9322
 3612TIP3   OH232250   0.702   5.199   5.997 -0.3420  0.0760  0.2940
 3612TIP3    H132251   0.636   5.268   5.995 -0.1087  0.3042  0.3047
 3612TIP3    H232252   0.717   5.181   6.090 -0.5999 -0.1834  0.2866
 3613TIP3   OH232253   3.833   4.302  15.263  0.3092  0.3023 -0.0519
 3613TIP3    H132254   3.817   4.297  15.357  2.3151  0.5988  0.3658
 3613TIP3    H232255   3.751   4.275  15.222  0.4166 -3.4028  1.7927
 3614TIP3   OH232256   2.153   4.583  10.531  0.4593  0.1261  0.3020
 3614TIP3    H132257   2.244   4.609  10.526  0.4299  0.4013  1.1255
 3614TIP3    H232258   2.104   4.664  10.545  0.0260  0.0535 -0.6747
 3615TIP3   OH232259   4.956   5.584   6.102  0.0022  0.3340 -0.4365
 3615TIP3    H132260   4.911   5.533   6.169  0.3305  0.8523  0.1914
 3615TIP3    H232261   4.886   5.620   6.048 -0.3997  1.3918  0.7168
 3616TIP3   OH232262   3.174   2.031   5.660 -0.0795  0.6331  0.2964
 3616TIP3    H132263   3.263   2.007   5.683 -0.0161  0.2305 -0.3268
 3616TIP3    H232264   3.135   2.064   5.741  0.0159 -1.0380  1.0481
 3617TIP3   OH232265   2.224   3.663   0.283 -0.1368  0.2488  0.1747
 3617TIP3    H132266   2.131   3.645   0.289  0.1627 -1.7393 -0.4487
 3617TIP3    H232267   2.266   3.581   0.308  1.4643  1.1601  0.6272
 3618TIP3   OH232268   3.830   2.520  17.044 -0.2498 -0.0015 -0.0689
 3618TIP3    H132269   3.753   2.559  17.002 -1.6057 -1.4333  0.9975
 3618TIP3    H232270   3.796   2.477  17.122  1.6203 -0.8647  0.3232
 3619TIP3   OH232271   0.870   5.179   4.150 -0.7007 -0.2164  0.5711
 3619TIP3    H132272   0.942   5.174   4.213 -0.6480  0.1779  0.5452
 3619TIP3    H232273   0.879   5.265   4.109 -1.3221 -0.0651  0.7325
 3620TIP3   OH232274   4.045   0.502  16.227 -0.1268 -0.4448 -0.2947
 3620TIP3    H132275   4.079   0.591  16.232  0.7823 -0.8290  0.4681
 3620TIP3    H232276   4.069   0.461  16.310 -1.8738 -0.9471  0.0208
 3621TIP3   OH232277   2.100   0.905   4.733 -0.1816 -0.0856 -0.7944
 3621TIP3    H132278   2.049   0.921   4.813 -0.4952 -2.2345 -0.5141
 3621TIP3    H232279   2.038   0.919   4.662  0.2159  2.3130 -0.7667
 3622TIP3   OH232280   6.775   4.142   0.109 -0.4023  0.1975  0.4716
 3622TIP3    H132281   6.767   4.047   0.105  1.6673 -0.0457  0.7189
 3622TIP3    H232282   6.785   4.169   0.018  0.4609 -0.0040  0.4998
 3623TIP3   OH232283   3.473   3.554   4.413 -0.4566 -0.4286 -0.0626
 3623TIP3    H132284   3.545   3.590   4.361 -0.1766  1.0129  1.2657
 3623TIP3    H232285   3.397   3.558   4.355 -0.4154  2.2731 -0.0352
 3624TIP3   OH232286   2.707   4.577  11.763 -0.5509  0.2564 -0.0562
 3624TIP3    H132287   2.654   4.575  11.683 -1.3292 -0.9918  0.4666
 3624TIP3    H232288   2.790   4.617  11.736  0.2413 -2.4940 -2.1448
 3625TIP3   OH232289   3.270   4.154   4.488 -0.0597  0.2622 -0.6284
 3625TIP3    H132290   3.202   4.101   4.530 -2.4639  3.9510  0.6139
 3625TIP3    H232291   3.241   4.164   4.398 -0.0776  0.2010 -0.6292
 3626TIP3   OH232292   6.594   3.461  11.074 -0.4147  0.1051  0.5515
 3626TIP3    H132293   6.571   3.530  11.137 -1.3064  1.1504 -0.8750
 3626TIP3    H232294   6.516   3.452  11.019  1.2988  1.3170 -2.2880
 3627TIP3   OH232295   5.832   2.531  14.286  0.0316  0.0201  0.0871
 3627TIP3    H132296   5.879   2.523  14.369 -2.4934 -0.2849  1.6089
 3627TIP3    H232297   5.879   2.599  14.238  1.3670  0.4714  1.9197
 3628TIP3   OH232298   1.364   1.376  11.822 -0.4225 -0.0500 -0.3923
 3628TIP3    H132299   1.411   1.299  11.854 -0.4272  0.2893  0.4437
 3628TIP3    H232300   1.273   1.347  11.812 -1.0061  0.4924  2.4303
 3629TIP3   OH232301   5.339   3.780   0.144  0.2127  0.5207 -0.0885
 3629TIP3    H132302   5.306   3.807   0.058  1.3552 -0.5672 -0.8935
 3629TIP3    H232303   5.335   3.684   0.142  0.1974  0.4830  1.1042
 3630TIP3   OH232304   2.349   0.136  12.944  0.3782 -0.1907 -0.5111
 3630TIP3    H132305   2.326   0.069  13.009  2.2525 -0.9287 -0.5723
 3630TIP3    H232306   2.326   0.219  12.987 -1.4670 -0.7897 -0.2261
 3631TIP3   OH232307   6.702   1.509   2.560  0.1921 -0.1183  0.5898
 3631TIP3    H132308   6.624   1.460   2.587 -2.8302  1.7828 -3.7199
 3631TIP3    H232309   6.708   1.581   2.623 -1.7984 -0.0731  0.7789
 3632TIP3   OH232310   6.105   0.038  10.569  0.6080  0.0987  0.2160
 3632TIP3    H132311   6.145   0.029  10.483  0.1664 -0.8664  0.1020
 3632TIP3    H232312   6.132   0.125  10.599  1.7384 -0.0381 -0.3787
 3633TIP3   OH232313   0.616   1.582   4.211  0.8629 -0.1560  0.1762
 3633TIP3    H132314   0.668   1.510   4.247  2.5694  0.2892 -1.2308
 3633TIP3    H232315   0.680   1.637   4.164 -0.6087  1.4698 -0.0448
 3634TIP3   OH232316   4.957   1.692   1.696 -0.2059 -0.3141 -0.2823
 3634TIP3    H132317   4.893   1.636   1.741 -0.4347 -0.9222 -1.3311
 3634TIP3    H232318   4.952   1.776   1.742  0.0504 -1.0874  1.2584
 3635TIP3   OH232319   5.409   4.288   1.454  0.2637  0.3575 -0.0267
 3635TIP3    H132320   5.325   4.288   1.499 -0.3516  0.3248 -1.1511
 3635TIP3    H232321   5.392   4.246   1.370  1.6804 -0.8148  0.2143
 3636TIP3   OH232322   5.548   5.075  15.634 -0.0084  0.6549  0.3802
 3636TIP3    H132323   5.490   5.007  15.667  1.1971 -1.0688 -0.8800
 3636TIP3    H232324   5.494   5.124  15.573 -0.3135 -0.6407 -0.4351
 3637TIP3   OH232325   0.703   6.302  14.295  0.4729 -0.7220 -0.1081
 3637TIP3    H132326   0.689   6.288  14.202  0.5034 -1.9240  0.0435
 3637TIP3    H232327   0.771   6.238  14.319  0.6755 -0.2262  0.6723
 3638TIP3   OH232328   2.845   4.986  12.730  0.9485  0.0425 -0.1974
 3638TIP3    H132329   2.868   5.047  12.801  0.2106  1.0343 -0.7938
 3638TIP3    H232330   2.765   4.943  12.761  0.3981  0.7665 -0.5792
 3639TIP3   OH232331   3.798   3.230  14.475  0.7434  0.4694 -0.3922
 3639TIP3    H132332   3.811   3.193  14.388  0.0519 -1.1161  0.1443
 3639TIP3    H232333   3.879   3.210  14.522  0.6302  0.2317 -0.2991
 3640TIP3   OH232334   6.200   0.438   2.170 -0.2909  0.5430 -0.0318
 3640TIP3    H132335   6.220   0.450   2.263 -1.2594  1.3637  0.0897
 3640TIP3    H232336   6.284   0.416   2.130 -0.2062 -2.0587  1.3554
 3641TIP3   OH232337   0.001   6.204  11.506 -0.2274  0.3285  0.3313
 3641TIP3    H132338  -0.002   6.152  11.425 -0.7171 -0.2765  0.7279
 3641TIP3    H232339  -0.085   6.191  11.546  0.1589  0.2623  1.1699
 3642TIP3   OH232340   1.855   2.246   5.822 -0.1077  0.6338 -0.3467
 3642TIP3    H132341   1.833   2.339   5.824  0.1408  0.6856  1.1574
 3642TIP3    H232342   1.950   2.243   5.832  0.0452  0.2370 -1.6865
 3643TIP3   OH232343   3.872   5.997  14.877  0.6374 -0.1234 -0.7440
 3643TIP3    H132344   3.792   5.978  14.830  1.5184 -0.1536 -2.3066
 3643TIP3    H232345   3.843   6.032  14.962 -0.9951 -1.9335 -0.5034
 3644TIP3   OH232346   3.066   5.975   0.309 -0.1346 -0.1595  0.2813
 3644TIP3    H132347   3.157   6.002   0.292 -0.5887  1.0895 -0.2659
 3644TIP3    H232348   3.032   5.952   0.223 -0.2555 -0.9417  0.5312
 3645TIP3   OH232349   6.349   1.927  17.094  0.0992  0.5883 -0.3254
 3645TIP3    H132350   6.303   1.979  17.028 -0.7474  0.1975 -0.0724
 3645TIP3    H232351   6.344   1.837  17.060  1.7095  0.6742 -0.8577
 3646TIP3   OH232352   4.509   4.530   1.236  0.0165 -0.2559  0.2776
 3646TIP3    H132353   4.452   4.543   1.312  1.0438 -0.9954  1.2077
 3646TIP3    H232354   4.481   4.447   1.199 -2.2776  1.3154 -1.8317
 3647TIP3   OH232355   0.472   6.606   0.958 -0.4251  0.6814  0.0361
 3647TIP3    H132356   0.412   6.654   0.900 -0.3137 -1.3844 -1.9357
 3647TIP3    H232357   0.555   6.653   0.949 -0.5554  0.7312 -1.0937
 3648TIP3   OH232358   0.153   6.307  11.717  0.1054  0.2355 -0.2470
 3648TIP3    H132359   0.201   6.370  11.664  0.0910 -0.5981 -1.2812
 3648TIP3    H232360   0.100   6.258  11.655  0.3105 -0.9703  0.4903
 3649TIP3   OH232361   5.029   3.804   0.688 -0.1311 -0.0222  0.1764
 3649TIP3    H132362   5.111   3.797   0.640 -0.2895 -2.0001  0.0819
 3649TIP3    H232363   4.974   3.859   0.633  1.2139  1.6158  0.4101
 3650TIP3   OH232364   6.141   0.355   3.288 -0.3750 -0.3843  0.8626
 3650TIP3    H132365   6.107   0.326   3.203 -0.5062  1.0387  0.4166
 3650TIP3    H232366   6.062   0.367   3.342 -0.4710  1.0365  0.4286
 3651TIP3   OH232367   4.309   5.184   4.060 -0.5471  0.1487 -0.0655
 3651TIP3    H132368   4.290   5.256   4.120 -1.3261  0.3052 -0.4968
 3651TIP3    H232369   4.229   5.131   4.059 -0.1340 -0.4917 -0.0800
 3652TIP3   OH232370   1.521   0.994   3.563  0.1085 -0.6059  0.2459
 3652TIP3    H132371   1.607   0.962   3.536 -0.0474  0.1594 -1.3251
 3652TIP3    H232372   1.465   0.916   3.564  0.2643 -0.7768 -1.2424
 3653TIP3   OH232373   6.118   5.459   2.987  0.5437  0.0134  0.1796
 3653TIP3    H132374   6.171   5.539   2.989 -1.5399  1.4826 -0.1950
 3653TIP3    H232375   6.089   5.452   2.896  0.6196 -1.1375  0.2351
 3654TIP3   OH232376   5.368   1.342  14.249 -0.2843  0.4399 -0.7428
 3654TIP3    H132377   5.392   1.255  14.282 -0.7651  0.1423 -1.1499
 3654TIP3    H232378   5.365   1.331  14.154  0.2673  1.0717 -0.8380
 3655TIP3   OH232379   5.493   4.436  15.575 -0.3862  0.6132 -0.2487
 3655TIP3    H132380   5.534   4.514  15.539  0.1208  0.1407 -0.6978
 3655TIP3    H232381   5.437   4.403  15.505 -0.6982  0.6397 -0.0164
 3656TIP3   OH232382   3.851   0.258   3.410 -0.2868  0.3212 -0.4076
 3656TIP3    H132383   3.867   0.270   3.504  0.6703 -0.4570 -0.4577
 3656TIP3    H232384   3.907   0.185   3.385 -0.9581  0.1477 -1.4781
 3657TIP3   OH232385   6.137   1.917  15.086  0.3126  0.7925  0.0471
 3657TIP3    H132386   6.149   1.982  15.155 -1.3176 -0.0888  1.2279
 3657TIP3    H232387   6.066   1.951  15.032  0.1523  0.4891  0.0637
 3658TIP3   OH232388   6.209   4.710  15.287  0.3945  0.1385  0.2883
 3658TIP3    H132389   6.245   4.626  15.317 -0.4455 -0.1511  0.5076
 3658TIP3    H232390   6.276   4.745  15.228  1.3231 -0.0747  1.1969
 3659TIP3   OH232391   4.443   2.640   1.892  0.2329 -0.5581  0.0036
 3659TIP3    H132392   4.533   2.640   1.860  0.8118  0.7330  1.4923
 3659TIP3    H232393   4.446   2.584   1.970 -0.1414 -0.1338  0.3249
 3660TIP3   OH232394   3.796   4.090  11.771 -0.0221 -0.0435 -0.1124
 3660TIP3    H132395   3.880   4.114  11.733  0.8543 -0.5100  1.4248
 3660TIP3    H232396   3.759   4.173  11.802 -0.8965  0.3838 -2.1752
 3661TIP3   OH232397   4.364   4.463  16.189  0.4803  0.0998  0.0064
 3661TIP3    H132398   4.346   4.372  16.213 -2.1738  0.7924  0.9525
 3661TIP3    H232399   4.454   4.461  16.156  0.2219 -3.0186 -0.8985
 3662TIP3   OH232400   0.329   1.698  11.154 -0.4844  0.1712  0.2717
 3662TIP3    H132401   0.360   1.780  11.115 -0.3362  0.3679  0.7898
 3662TIP3    H232402   0.302   1.645  11.080  0.9344  0.0637 -0.2043
 3663TIP3   OH232403   3.519   1.753  10.491 -0.0304  0.4049 -0.0628
 3663TIP3    H132404   3.454   1.821  10.469  1.2840  1.5452 -0.5816
 3663TIP3    H232405   3.542   1.771  10.582  1.4936  1.7267 -0.6648
 3664TIP3   OH232406   6.016   2.569   0.265 -0.3398 -0.3622  0.4490
 3664TIP3    H132407   5.945   2.509   0.241 -0.9823  0.2110  0.8823
 3664TIP3    H232408   6.094   2.513   0.269 -0.5803 -0.8278 -0.9502
 3665TIP3   OH232409   4.651   1.922  15.436 -0.0277 -0.0873  0.0333
 3665TIP3    H132410   4.700   1.899  15.515 -0.1322 -2.9571 -0.6227
 3665TIP3    H232411   4.587   1.852  15.427  0.0295  0.1162 -2.6131
 3666TIP3   OH232412   5.309   4.312  12.469 -0.4880 -0.6359 -0.1042
 3666TIP3    H132413   5.327   4.245  12.534 -0.7530 -1.8344 -1.2367
 3666TIP3    H232414   5.325   4.395  12.515  2.1841 -1.4709  0.6431
 3667TIP3   OH232415   4.895   1.920  14.469  0.1098  0.7993  0.3362
 3667TIP3    H132416   4.935   1.975  14.402  0.3644 -0.3080 -0.4401
 3667TIP3    H232417   4.967   1.895  14.527  0.2298  0.2544 -0.0428
 3668TIP3   OH232418   3.673   0.921  13.859 -0.3339 -0.0284  0.0111
 3668TIP3    H132419   3.733   0.859  13.899 -0.8490  0.7403  2.0799
 3668TIP3    H232420   3.682   0.906  13.765  2.0996 -0.8211  0.3185
 3669TIP3   OH232421   4.878   5.331  13.231 -0.1013  0.7431 -0.1182
 3669TIP3    H132422   4.866   5.341  13.137  2.2636  1.0887 -0.4496
 3669TIP3    H232423   4.969   5.303  13.241 -0.8601 -1.2548  1.9837
 3670TIP3   OH232424   0.950   0.820  15.928 -0.6713  0.6455 -0.1029
 3670TIP3    H132425   1.043   0.799  15.919 -1.1891 -2.1020 -0.1162
 3670TIP3    H232426   0.934   0.812  16.022 -1.3778 -1.7738 -0.3549
 3671TIP3   OH232427   0.674   4.000   1.244 -0.4231  0.1749  0.6758
 3671TIP3    H132428   0.628   4.049   1.312 -1.5413 -1.0828  0.8643
 3671TIP3    H232429   0.606   3.951   1.199  0.1940  1.4405 -1.8159
 3672TIP3   OH232430   4.127   1.234   3.827  0.0650 -0.3764 -0.3807
 3672TIP3    H132431   4.055   1.285   3.864  2.6017  1.5270  2.3441
 3672TIP3    H232432   4.150   1.172   3.895  0.6941 -1.3405 -1.4400
 3673TIP3   OH232433   0.341   5.252  14.683  0.0572  0.5089  0.6875
 3673TIP3    H132434   0.407   5.247  14.613 -0.2162 -1.2904  0.5136
 3673TIP3    H232435   0.362   5.333  14.730  2.2147  0.1472  0.4475
 3674TIP3   OH232436   4.611   1.465  13.366 -0.0538  0.0488 -0.4526
 3674TIP3    H132437   4.695   1.489  13.327  1.1604  1.8560  2.8504
 3674TIP3    H232438   4.555   1.541  13.351 -0.6153 -0.5366 -1.3535
 3675TIP3   OH232439   4.183   1.117   5.012  0.0995 -0.0335  0.4224
 3675TIP3    H132440   4.187   1.196   5.066 -1.4281  1.2742 -1.2712
 3675TIP3    H232441   4.267   1.074   5.026  0.2086  0.8189  2.9345
 3676TIP3   OH232442   2.639   1.090   3.255 -0.9224 -0.0097 -0.1491
 3676TIP3    H132443   2.544   1.090   3.250 -0.9180  0.0105 -0.2409
 3676TIP3    H232444   2.659   1.135   3.337 -0.9289  2.7711 -1.5577
 3677TIP3   OH232445   6.473   6.235  13.178 -0.2884 -0.0665  0.6657
 3677TIP3    H132446   6.458   6.329  13.169  1.5592  0.2372  0.4456
 3677TIP3    H232447   6.515   6.225  13.264  3.5303 -0.0721 -1.0121
 3678TIP3   OH232448   3.774   1.270   5.060 -0.0773 -0.0677 -0.8991
 3678TIP3    H132449   3.719   1.319   5.121  0.1391 -0.7953 -0.1093
 3678TIP3    H232450   3.765   1.179   5.086 -0.4552 -0.4778 -2.3441
 3679TIP3   OH232451   1.401   3.540  11.987  0.4184  0.0077 -0.1105
 3679TIP3    H132452   1.486   3.527  11.945  0.3556  0.3282 -0.3360
 3679TIP3    H232453   1.374   3.452  12.014  1.0787 -0.0284  0.4623
 3680TIP3   OH232454   2.828   4.422  15.043 -0.6330  0.1134  0.1107
 3680TIP3    H132455   2.871   4.501  15.010 -1.7256  0.4915 -0.4663
 3680TIP3    H232456   2.892   4.382  15.102 -0.0379  1.3850  0.3473
 3681TIP3   OH232457   3.549   0.172  15.128  0.5508  0.1649 -0.2324
 3681TIP3    H132458   3.473   0.225  15.105 -0.7625 -1.7356 -0.5388
 3681TIP3    H232459   3.622   0.234  15.131 -0.7754  1.8541 -1.1520
 3682TIP3   OH232460   2.035   4.252  16.588  0.3610 -0.1835 -0.1721
 3682TIP3    H132461   1.989   4.252  16.672  3.0713 -1.2733  1.4622
 3682TIP3    H232462   2.011   4.168  16.549 -0.8317  0.2797 -0.4860
 3683TIP3   OH232463   6.693   5.981  14.117 -0.1957 -0.1967 -0.4243
 3683TIP3    H132464   6.734   5.903  14.081 -2.5592 -1.8117  0.1620
 3683TIP3    H232465   6.740   5.996  14.200  0.9630 -0.3255 -1.0353
 3684TIP3   OH232466   0.412   1.791  16.294  0.4229 -1.2202  0.2830
 3684TIP3    H132467   0.413   1.741  16.213  0.9209 -1.9553  0.7286
 3684TIP3    H232468   0.393   1.726  16.362  0.2260 -0.6536  0.7818
 3685TIP3   OH232469   6.684   6.022  16.361  0.1451 -0.1851 -0.4685
 3685TIP3    H132470   6.713   6.027  16.452 -2.0048  0.0615  0.2746
 3685TIP3    H232471   6.654   6.111  16.340 -1.7561 -0.7743 -0.4954
 3686TIP3   OH232472   6.038   3.385   5.690  0.1744  0.2020 -0.4204
 3686TIP3    H132473   5.998   3.461   5.732 -0.3030 -0.1222 -0.2746
 3686TIP3    H232474   5.985   3.372   5.611  0.9164  0.6641 -1.0055
 3687TIP3   OH232475   6.473   2.077  11.494  0.0260  0.4644  0.1912
 3687TIP3    H132476   6.567   2.082  11.477 -0.3289  0.3923 -2.1879
 3687TIP3    H232477   6.458   1.984  11.515  0.6313  0.7206  1.8636
 3688TIP3   OH232478   1.920   6.363  12.837 -0.2007  0.5766  0.2980
 3688TIP3    H132479   1.831   6.331  12.824 -0.2369 -0.3682  2.5509
 3688TIP3    H232480   1.916   6.456  12.813 -0.5261 -0.4318 -4.5558
 3689TIP3   OH232481   0.812   3.367  16.795 -0.4650  0.3346  0.0773
 3689TIP3    H132482   0.773   3.340  16.712 -0.3047  0.9810 -0.2125
 3689TIP3    H232483   0.752   3.434  16.829 -1.9797 -1.7145  1.7911
 3690TIP3   OH232484   2.971   5.637  13.486 -0.2098  0.0727  0.2506
 3690TIP3    H132485   2.923   5.565  13.528  1.1339 -0.8652  0.2497
 3690TIP3    H232486   2.906   5.706  13.475 -2.1881 -1.9483 -1.8754
 3691TIP3   OH232487   1.184   5.949  14.146  0.2791  0.5465  0.1110
 3691TIP3    H132488   1.185   5.884  14.076 -0.3506  0.1882  0.4238
 3691TIP3    H232489   1.144   5.903  14.220 -2.3658  1.9793 -0.3434
 3692TIP3   OH232490   0.155   6.277  12.894 -0.5415 -0.2917 -0.4730
 3692TIP3    H132491   0.250   6.264  12.895 -0.6000 -0.9490 -1.6519
 3692TIP3    H232492   0.145   6.372  12.903  0.1978 -0.2749  0.3162
 3693TIP3   OH232493   0.116   6.005   6.303 -0.1975 -0.1760 -0.0730
 3693TIP3    H132494   0.162   6.082   6.338 -1.2039  0.2508  0.3613
 3693TIP3    H232495   0.023   6.025   6.315 -0.5041 -1.0763 -0.7980
 3694TIP3   OH232496   6.771   0.824   5.012  0.1102 -0.0753  0.2638
 3694TIP3    H132497   6.683   0.791   4.995 -0.2828  0.7405  0.6593
 3694TIP3    H232498   6.759   0.894   5.076  0.7961  1.4045 -1.1380
 3695TIP3   OH232499   5.812   2.539   5.503  0.1593  0.1317 -0.1944
 3695TIP3    H132500   5.741   2.536   5.439  0.9029 -0.8440 -1.0098
 3695TIP3    H232501   5.892   2.530   5.450  0.8409  0.3037  0.7851
 3696TIP3   OH232502   2.080   3.389  11.222  0.1734  0.0102  0.5776
 3696TIP3    H132503   2.039   3.374  11.137  2.5808  0.8733 -0.8724
 3696TIP3    H232504   2.140   3.315  11.233  1.6004  1.0747  0.3085
 3697TIP3   OH232505   2.932   4.960   1.992  0.0232  0.3477  0.1075
 3697TIP3    H132506   2.986   4.927   2.064 -1.1728 -0.7921  0.5040
 3697TIP3    H232507   2.846   4.921   2.006 -0.4164  0.6420 -1.5761
 3698TIP3   OH232508   3.020   1.438   4.136  0.8794  0.8581  0.2540
 3698TIP3    H132509   3.034   1.346   4.117 -0.5498  0.6693  0.0242
 3698TIP3    H232510   3.014   1.443   4.231 -0.2544  0.5061  0.2150
 3699TIP3   OH232511   3.327   2.765  12.890 -0.0499 -0.3845  0.2286
 3699TIP3    H132512   3.292   2.766  12.801 -1.5091 -0.0945  0.7801
 3699TIP3    H232513   3.340   2.673  12.911 -1.1607 -0.5357  0.2615
 3700TIP3   OH232514   0.451   3.168   4.938 -0.4282 -0.0115  0.1744
 3700TIP3    H132515   0.456   3.255   4.979  2.0893 -0.0824  0.1868
 3700TIP3    H232516   0.444   3.186   4.844  0.2121  0.2399  0.1658
 3701TIP3   OH232517   0.615   3.607  11.803  0.5868  0.0385  0.3925
 3701TIP3    H132518   0.579   3.544  11.865  0.6855  0.8872  1.3349
 3701TIP3    H232519   0.710   3.600  11.814  0.6918 -0.9643 -0.8556
 3702TIP3   OH232520   3.681   5.285   2.977  0.2559  0.0920  0.5626
 3702TIP3    H132521   3.606   5.313   2.925 -0.9311  2.4184  3.2343
 3702TIP3    H232522   3.666   5.192   2.993 -0.8742  0.0239 -0.7585
 3703TIP3   OH232523   5.583   1.436   2.388 -0.3682 -0.3822  0.2261
 3703TIP3    H132524   5.519   1.499   2.355 -1.6397 -0.4572  2.3784
 3703TIP3    H232525   5.547   1.351   2.364 -0.3541 -0.3875  0.2240
 3704TIP3   OH232526   4.823   0.789   3.292 -0.0393  0.4158 -0.2450
 3704TIP3    H132527   4.736   0.810   3.256 -0.0723  1.3373  0.3317
 3704TIP3    H232528   4.815   0.805   3.386  0.4920 -0.4240 -0.0508
 3705TIP3   OH232529   3.972   3.062  15.756 -0.3624  0.3213  0.0736
 3705TIP3    H132530   3.983   2.968  15.741 -0.9531  0.2569  0.0120
 3705TIP3    H232531   3.942   3.068  15.846  1.5413  0.5940  0.7370
 3706TIP3   OH232532   1.252   0.771  15.819  0.2490  0.0956  0.2025
 3706TIP3    H132533   1.342   0.780  15.787  0.6437  0.0471  1.2809
 3706TIP3    H232534   1.207   0.723  15.749  1.1285 -0.1119 -0.2340
 3707TIP3   OH232535   4.888   0.640  16.980  0.2811 -0.1068  0.3712
 3707TIP3    H132536   4.803   0.680  16.959 -0.5995 -1.2958  1.4969
 3707TIP3    H232537   4.935   0.707  17.029 -1.0947 -0.3337  2.0897
 3708TIP3   OH232538   6.188   1.421   6.025  0.2415 -0.3834  0.3499
 3708TIP3    H132539   6.198   1.329   6.051 -1.4030 -1.2939 -1.8792
 3708TIP3    H232540   6.143   1.417   5.941 -0.2859  2.5139  0.3925
 3709TIP3   OH232541   0.290   3.411  15.124  0.3494  0.2952  0.4280
 3709TIP3    H132542   0.349   3.337  15.138 -1.8134 -1.4738  0.8336
 3709TIP3    H232543   0.272   3.444  15.211  0.5792  0.7009  0.3232
 3710TIP3   OH232544   2.642   6.584  15.946  0.0751 -0.2707  0.0617
 3710TIP3    H132545   2.706   6.614  15.882  1.2131 -1.0300  0.8007
 3710TIP3    H232546   2.578   6.655  15.950  0.3429  0.0900 -1.3943
 3711TIP3   OH232547   6.563   6.397  11.987  0.0316 -0.3009  0.6581
 3711TIP3    H132548   6.565   6.433  11.898  0.7659 -1.7207  0.0628
 3711TIP3    H232549   6.649   6.417  12.023 -0.9006  1.9347  1.7912
 3712TIP3   OH232550   2.507   1.686   4.021 -0.3718 -0.0624  0.0325
 3712TIP3    H132551   2.592   1.702   4.063  0.2351 -0.2609 -1.0870
 3712TIP3    H232552   2.471   1.611   4.070  0.7453 -0.8969 -0.3791
 3713TIP3   OH232553   2.176   4.088  15.464 -0.3134  0.1634 -0.8477
 3713TIP3    H132554   2.168   4.019  15.399  1.2690 -0.2746 -0.6182
 3713TIP3    H232555   2.247   4.144  15.432 -1.1544  1.3690 -0.7176
 3714TIP3   OH232556   3.282   4.778  14.609  0.1513  0.5820 -0.4527
 3714TIP3    H132557   3.298   4.871  14.595 -1.5873  1.0543  0.4759
 3714TIP3    H232558   3.291   4.739  14.522  3.2412  1.1650 -0.5204
 3715TIP3   OH232559   1.024   2.304   2.180 -0.5064 -0.3800 -0.0214
 3715TIP3    H132560   1.023   2.392   2.142 -0.8142 -0.0394  0.7427
 3715TIP3    H232561   1.082   2.312   2.256  0.4252 -1.1487 -0.6383
 3716TIP3   OH232562   3.141   4.799  15.275  0.1090 -0.3528  0.2453
 3716TIP3    H132563   3.051   4.767  15.265 -0.1601  0.4628  0.0222
 3716TIP3    H232564   3.194   4.741  15.220 -0.2702 -0.8564  0.4026
 3717TIP3   OH232565   5.413   1.316   2.674 -0.4280 -0.0573 -0.1347
 3717TIP3    H132566   5.370   1.315   2.588  0.5803  1.8836 -0.7074
 3717TIP3    H232567   5.470   1.392   2.672 -0.2195 -0.0757  2.2091
 3718TIP3   OH232568   6.189   1.320  11.131 -0.4934 -0.7148  0.2375
 3718TIP3    H132569   6.229   1.234  11.145  3.9685  1.0627  0.1989
 3718TIP3    H232570   6.210   1.342  11.040 -1.8512  0.3049  0.1460
 3719TIP3   OH232571   5.412   3.681  13.633  0.0451  0.0320 -0.0583
 3719TIP3    H132572   5.431   3.606  13.689  0.2637  0.6773  0.7608
 3719TIP3    H232573   5.485   3.742  13.650 -1.4108  1.5106  1.2375
 3720TIP3   OH232574   3.347   1.268   1.445  0.3610  0.3915 -0.3707
 3720TIP3    H132575   3.281   1.336   1.458 -0.3757 -0.7103  2.4762
 3720TIP3    H232576   3.343   1.215   1.525  1.5982 -2.4058 -2.0051
 3721TIP3   OH232577   4.282   3.320  10.652  0.4715  0.4127 -0.6221
 3721TIP3    H132578   4.325   3.270  10.720  0.5625  0.4363 -0.6614
 3721TIP3    H232579   4.286   3.264  10.574  1.2856  0.8072 -0.8712
 3722TIP3   OH232580   5.470   1.960   1.438 -0.1640  0.1956 -0.1265
 3722TIP3    H132581   5.505   1.874   1.460 -0.7632 -0.0352 -0.0865
 3722TIP3    H232582   5.543   2.004   1.393  0.9719  0.5446  1.9147
 3723TIP3   OH232583   2.402   3.506  14.089  0.3377 -0.2278  0.2646
 3723TIP3    H132584   2.433   3.452  14.016  0.9948  1.3119 -0.6438
 3723TIP3    H232585   2.309   3.521  14.069  0.5988  0.4890 -0.4789
 3724TIP3   OH232586   6.180   0.065   1.542  0.4839  0.2129 -0.0021
 3724TIP3    H132587   6.261   0.015   1.539 -0.1288 -0.9313  1.4935
 3724TIP3    H232588   6.177   0.102   1.630 -0.2671  0.8586 -0.2823
 3725TIP3   OH232589   4.081   3.291  14.239 -0.2049  0.5018  0.7791
 3725TIP3    H132590   4.046   3.357  14.179 -0.8202  1.3979  2.0881
 3725TIP3    H232591   4.032   3.211  14.218 -0.0220  0.6473 -0.2674
 3726TIP3   OH232592   4.381   3.500   5.102  0.1744  0.6908 -0.3436
 3726TIP3    H132593   4.414   3.410   5.103 -0.5072  0.4373  0.5888
 3726TIP3    H232594   4.379   3.524   5.009  1.8519  0.3149 -0.5098
 3727TIP3   OH232595   1.947   4.485   0.896  0.7111 -0.3076 -0.2564
 3727TIP3    H132596   1.864   4.437   0.886  1.2409 -0.9933 -1.5735
 3727TIP3    H232597   1.990   4.441   0.970 -0.1978  0.2328  0.6247
 3728TIP3   OH232598   0.821   6.046   5.629 -0.5436  0.2158  0.3550
 3728TIP3    H132599   0.772   6.051   5.547 -0.3135  1.2145  0.2695
 3728TIP3    H232600   0.876   6.124   5.629  0.6299 -0.5801  0.7127
 3729TIP3   OH232601   4.786   5.301  11.949  0.1913 -0.0460 -0.0488
 3729TIP3    H132602   4.822   5.378  11.905  0.0046  1.7156  2.6545
 3729TIP3    H232603   4.691   5.315  11.946  0.2038  0.7831  1.8794
 3730TIP3   OH232604   0.763   0.364   2.410 -0.2900  0.2483  0.3360
 3730TIP3    H132605   0.855   0.343   2.394  0.1850  2.4913 -0.2678
 3730TIP3    H232606   0.745   0.437   2.352 -2.2802  0.3065  0.9548
 3731TIP3   OH232607   3.042   5.095   0.954 -0.3380 -0.6779  0.0759
 3731TIP3    H132608   3.045   5.187   0.927 -0.5085  0.6823  4.0321
 3731TIP3    H232609   3.129   5.061   0.933  1.3371  1.7730  2.3565
 3732TIP3   OH232610   2.891   5.876  10.485 -0.0615 -0.8120 -0.2799
 3732TIP3    H132611   2.929   5.838  10.564 -0.7385 -0.4475  0.2301
 3732TIP3    H232612   2.883   5.970  10.505  1.2103 -0.4506 -1.3639
 3733TIP3   OH232613   5.672   1.796  12.115  0.3698 -0.5214  0.5095
 3733TIP3    H132614   5.686   1.813  12.022 -3.5620 -1.0281 -0.3611
 3733TIP3    H232615   5.734   1.727  12.136  2.1991  0.4313 -1.3575
 3734TIP3   OH232616   2.615   4.141   4.090  0.3201 -0.3023  0.2673
 3734TIP3    H132617   2.660   4.091   4.022  1.4446  0.0242  0.7564
 3734TIP3    H232618   2.578   4.216   4.043  0.4427 -0.4734 -0.1099
 3735TIP3   OH232619   3.097   1.116   4.994 -0.6029 -0.0543  0.4145
 3735TIP3    H132620   3.149   1.158   4.925  0.1282 -0.8829  0.4414
 3735TIP3    H232621   3.016   1.167   4.996 -0.6860 -0.0604 -1.1205
 3736TIP3   OH232622   4.018   5.084   0.010 -0.5497 -0.2354  0.2441
 3736TIP3    H132623   4.109   5.095   0.035 -0.6905 -0.6614  0.9642
 3736TIP3    H232624   4.013   5.118  -0.080  0.1999  0.2592  0.3875
 3737TIP3   OH232625   4.331   5.472   0.326  0.3054 -0.3333  0.0834
 3737TIP3    H132626   4.420   5.480   0.361  0.1734 -1.8501  0.8374
 3737TIP3    H232627   4.275   5.510   0.393  0.1409 -2.3506  1.1765
 3738TIP3   OH232628   6.671   3.847  11.933 -0.2736 -0.4775 -0.1042
 3738TIP3    H132629   6.763   3.868  11.949  0.1815 -0.5628 -2.2831
 3738TIP3    H232630   6.624   3.928  11.952  0.7183  0.7061 -2.3382
 3739TIP3   OH232631   6.432   3.994  16.786 -0.1621 -0.1769 -0.9388
 3739TIP3    H132632   6.392   3.947  16.858 -0.0982 -0.8605 -1.3353
 3739TIP3    H232633   6.467   4.074  16.825 -2.2463  0.6630 -0.6480
 3740TIP3   OH232634   1.657   2.008  14.457 -0.3641  0.0015 -0.2124
 3740TIP3    H132635   1.600   1.933  14.472  1.4979 -1.6554 -1.0315
 3740TIP3    H232636   1.708   2.017  14.538 -0.1800  0.0299 -0.3303
 3741TIP3   OH232637   3.672   2.120  16.746 -0.2795  0.2937 -0.0699
 3741TIP3    H132638   3.647   2.096  16.656  1.5912  1.3414 -0.9460
 3741TIP3    H232639   3.679   2.216  16.744 -3.3566  0.6755  2.1402
 3742TIP3   OH232640   2.467   6.510   0.400  0.7060 -0.5923 -0.0155
 3742TIP3    H132641   2.375   6.518   0.377  0.5872 -0.3600  0.5173
 3742TIP3    H232642   2.509   6.479   0.320  0.1325 -0.9201 -0.2010
 3743TIP3   OH232643   1.044   0.640  12.456 -0.8541  0.5362  0.0466
 3743TIP3    H132644   1.076   0.666  12.370  1.1532 -1.9973 -0.0605
 3743TIP3    H232645   1.089   0.699  12.517  0.5229 -0.0024 -0.4259
 3744TIP3   OH232646   4.590   5.254  11.027 -0.0883 -0.5059 -0.0714
 3744TIP3    H132647   4.611   5.207  11.107  1.6960 -0.1587 -0.3037
 3744TIP3    H232648   4.660   5.232  10.966 -1.1931 -0.4431 -1.4302
 3745TIP3   OH232649   0.950   1.088  12.649 -0.4177 -0.2056 -0.1758
 3745TIP3    H132650   0.861   1.112  12.621 -0.6361  1.3546  1.5728
 3745TIP3    H232651   0.938   1.050  12.736  0.5806 -0.3793 -0.1022
 3746TIP3   OH232652   3.140   2.959   2.314 -0.5843 -0.0961 -0.9006
 3746TIP3    H132653   3.089   2.904   2.254 -0.6659 -1.7825  0.6148
 3746TIP3    H232654   3.079   2.980   2.385  0.3157 -0.7164  0.0884
 3747TIP3   OH232655   2.099   4.776  11.845  0.8389 -0.2184  0.3265
 3747TIP3    H132656   2.114   4.727  11.764  0.2163 -0.2373  0.2219
 3747TIP3    H232657   2.109   4.868  11.821 -0.1305 -0.1778  0.0495
 3748TIP3   OH232658   0.045   5.997  15.901 -0.1838  0.2233 -0.1690
 3748TIP3    H132659   0.025   5.993  15.808 -4.3185 -0.3856  0.5543
 3748TIP3    H232660   0.038   5.907  15.932 -0.0067  0.5616  0.9359
 3749TIP3   OH232661   3.217   0.187   0.285 -0.3686 -0.4149  0.3799
 3749TIP3    H132662   3.264   0.230   0.357 -0.8693 -1.6290  1.4735
 3749TIP3    H232663   3.200   0.257   0.222  0.2586  0.6448  1.3457
 3750TIP3   OH232664   2.075   4.799  11.390 -0.6268  0.4338 -0.0333
 3750TIP3    H132665   1.984   4.808  11.417 -0.0876 -0.5535  2.4291
 3750TIP3    H232666   2.106   4.889  11.381 -1.6392  0.7866 -0.1189
 3751TIP3   OH232667   3.370   4.432  15.619 -0.3971 -0.0680  0.7369
 3751TIP3    H132668   3.415   4.384  15.688  0.6314 -1.7945 -1.0326
 3751TIP3    H232669   3.427   4.425  15.543 -1.7299  1.3021 -0.4756
 3752TIP3   OH232670   3.448   1.030  14.314 -0.2058  0.3838 -0.0339
 3752TIP3    H132671   3.357   1.053  14.330 -0.2185  2.0186 -1.9761
 3752TIP3    H232672   3.487   1.020  14.401 -2.0437  0.3786  0.8288
 3753TIP3   OH232673   3.877   3.524  13.802 -0.0273  0.7749  0.0630
 3753TIP3    H132674   3.867   3.594  13.737 -1.4636 -0.1403 -0.7507
 3753TIP3    H232675   3.801   3.467  13.788  0.7157 -0.5536  1.1911
 3754TIP3   OH232676   6.155   1.177   0.442  1.1208 -0.2853 -0.0969
 3754TIP3    H132677   6.239   1.171   0.395  1.2744  2.3812 -0.3166
 3754TIP3    H232678   6.148   1.269   0.466 -0.6895 -0.8886  1.9809
 3755TIP3   OH232679   2.814   5.147  15.765 -0.4112 -0.5961 -0.0263
 3755TIP3    H132680   2.843   5.186  15.682  1.5638  1.7356  1.6191
 3755TIP3    H232681   2.764   5.216  15.808 -2.7832 -2.3037  0.1617
 3756TIP3   OH232682   1.619   5.104  14.274  0.2337  0.2279 -0.1762
 3756TIP3    H132683   1.695   5.133  14.223  0.2448  0.2329 -0.1563
 3756TIP3    H232684   1.550   5.166  14.250 -0.0899 -0.4681 -1.0792
 3757TIP3   OH232685   1.210   6.638  12.910  0.3006  0.5238 -0.4145
 3757TIP3    H132686   1.249   6.714  12.868  0.1581  0.3078 -0.9391
 3757TIP3    H232687   1.183   6.581  12.838 -0.2259  0.2889 -0.0405
 3758TIP3   OH232688   0.515   6.750   2.876  0.1374  0.0554 -0.2169
 3758TIP3    H132689   0.506   6.674   2.932  0.6598  1.1492  1.4128
 3758TIP3    H232690   0.516   6.714   2.787 -1.0062 -1.6959  0.4214
 3759TIP3   OH232691   4.674   4.638  13.192  0.2433 -0.1313 -0.8370
 3759TIP3    H132692   4.659   4.731  13.178 -0.3804 -0.0298  0.3711
 3759TIP3    H232693   4.623   4.595  13.122  0.1278  0.4127 -1.0929
 3760TIP3   OH232694   3.940   3.098   2.426  0.5741  0.4080  0.1968
 3760TIP3    H132695   3.979   3.061   2.347 -0.3783  0.2662 -0.2218
 3760TIP3    H232696   3.863   3.146   2.394  0.5311  0.8727  0.9753
 3761TIP3   OH232697   2.173   0.562   5.549 -0.3663 -0.1207  0.3612
 3761TIP3    H132698   2.159   0.469   5.530 -1.5601  0.3279 -1.1063
 3761TIP3    H232699   2.208   0.598   5.467  2.3336  0.3324  1.5937
 3762TIP3   OH232700   3.811   5.599   3.341  0.2507 -0.0061  0.8169
 3762TIP3    H132701   3.757   5.529   3.303 -2.0441  1.7042  0.6974
 3762TIP3    H232702   3.825   5.660   3.269 -0.6616  1.2665  1.6745
 3763TIP3   OH232703   0.251   3.449   5.681  0.0793  0.2303  0.1410
 3763TIP3    H132704   0.264   3.533   5.638 -0.5526  0.5072  0.4715
 3763TIP3    H232705   0.257   3.469   5.774 -2.3558  0.3796  0.3427
 3764TIP3   OH232706   2.156   2.653  15.041 -0.3174  0.6389  0.4618
 3764TIP3    H132707   2.204   2.702  15.108  0.3747  0.6500 -0.0392
 3764TIP3    H232708   2.137   2.569  15.083  0.5322  0.4651  0.5131
 3765TIP3   OH232709   5.723   4.644  14.553 -0.1146 -0.1441  0.0288
 3765TIP3    H132710   5.784   4.680  14.488 -2.1946  0.1364 -1.9039
 3765TIP3    H232711   5.734   4.549  14.546  0.7611 -0.0758  0.3962
 3766TIP3   OH232712   0.151   1.585  12.936 -0.3111  0.3037  0.8569
 3766TIP3    H132713   0.091   1.639  12.989  0.7633  1.2711  1.1446
 3766TIP3    H232714   0.223   1.565  12.996  0.7539  1.1114 -0.1151
 3767TIP3   OH232715   6.378   2.177  12.411 -0.0997  0.3125 -0.0620
 3767TIP3    H132716   6.418   2.211  12.491  1.0531  0.5933 -0.7222
 3767TIP3    H232717   6.316   2.244  12.384  1.1202  1.2767 -0.5770
 3768TIP3   OH232718   0.608   3.990  12.538 -0.3609  0.2464 -0.4104
 3768TIP3    H132719   0.579   3.908  12.499  1.5616  0.5151 -2.6295
 3768TIP3    H232720   0.582   3.984  12.630 -3.0765 -1.4280 -1.1801
 3769TIP3   OH232721   2.020   0.103  11.631  0.2092 -0.1828 -0.4379
 3769TIP3    H132722   1.969   0.139  11.558 -1.1043 -1.7739 -0.3436
 3769TIP3    H232723   2.111   0.118  11.605 -0.2299 -0.3163 -2.2061
 3770TIP3   OH232724   2.740   5.923  12.975  0.0965 -0.3699  0.2797
 3770TIP3    H132725   2.694   6.003  13.001  0.1322 -0.0583 -0.5849
 3770TIP3    H232726   2.832   5.948  12.974  0.3897 -1.1340  2.5288
 3771TIP3   OH232727   0.629   3.543  14.461 -0.1976 -0.3449 -0.0370
 3771TIP3    H132728   0.613   3.453  14.435  1.3763 -0.1553 -1.9014
 3771TIP3    H232729   0.688   3.536  14.536 -0.9745 -0.8587  0.5373
 3772TIP3   OH232730   0.207   2.598   5.231  0.0452 -0.5465 -0.3503
 3772TIP3    H132731   0.155   2.597   5.311 -1.1683  1.9921 -1.0101
 3772TIP3    H232732   0.145   2.620   5.162  1.5945  0.3341 -1.5165
 3773TIP3   OH232733   4.869   0.795  14.370 -0.3233 -0.3390 -0.0797
 3773TIP3    H132734   4.924   0.733  14.419  0.7151 -2.0809 -3.1448
 3773TIP3    H232735   4.786   0.749  14.359 -0.7772  0.3141  0.4935
 3774TIP3   OH232736   5.191   5.703   4.822 -0.1303  0.9837 -0.1529
 3774TIP3    H132737   5.149   5.751   4.893 -0.7324  1.2900 -0.7001
 3774TIP3    H232738   5.199   5.613   4.854  0.0625  1.2268  0.4870
 3775TIP3   OH232739   2.865   4.711  10.878 -0.3413 -0.2400  0.1257
 3775TIP3    H132740   2.900   4.762  10.950 -1.1560 -1.2391  1.2576
 3775TIP3    H232741   2.935   4.714  10.811  0.5209  0.4922  1.0245
 3776TIP3   OH232742   1.952   4.643  16.194 -0.0118 -0.2892  0.3081
 3776TIP3    H132743   1.957   4.555  16.231  1.3275 -1.4342 -2.3421
 3776TIP3    H232744   1.866   4.676  16.221  0.3160 -1.4605  3.2006
 3777TIP3   OH232745   4.971   4.692  14.942 -0.3778  0.6341  0.1653
 3777TIP3    H132746   4.984   4.755  15.013  1.5899  2.2639 -1.5091
 3777TIP3    H232747   5.019   4.614  14.969  1.9298  1.8870 -0.0588
 3778TIP3   OH232748   2.747   5.823   2.968 -0.7097 -0.4614 -0.0413
 3778TIP3    H132749   2.677   5.760   2.984 -0.7559 -0.3433  0.2335
 3778TIP3    H232750   2.725   5.862   2.883 -1.0743 -0.3053  0.1181
 3779TIP3   OH232751   5.193   2.304  14.824 -0.0024  0.4390 -0.5403
 3779TIP3    H132752   5.285   2.322  14.842 -0.5159  2.1009  0.6801
 3779TIP3    H232753   5.191   2.283  14.730  1.5186  1.1348 -0.7631
 3780TIP3   OH232754   3.548   5.657   2.461  0.6185 -0.1210  0.0733
 3780TIP3    H132755   3.478   5.718   2.482 -1.0394 -2.0911  0.6434
 3780TIP3    H232756   3.616   5.711   2.421 -1.0326  1.9431 -0.1330
 3781TIP3   OH232757   1.138   5.614  12.903 -0.3524 -0.2445 -0.2628
 3781TIP3    H132758   1.198   5.540  12.897  0.2413  0.2208 -0.1008
 3781TIP3    H232759   1.067   5.583  12.960  0.4581 -0.3187  0.7277
 3782TIP3   OH232760   1.401   3.900   0.757 -0.0554 -0.4406  0.4805
 3782TIP3    H132761   1.331   3.964   0.747  0.2683  0.0405  1.1669
 3782TIP3    H232762   1.425   3.875   0.668 -0.7226 -0.1979  0.2298
 3783TIP3   OH232763   6.619   0.523   5.127  0.1071 -0.3123  0.2156
 3783TIP3    H132764   6.567   0.581   5.072  0.3611  0.7526  1.0737
 3783TIP3    H232765   6.567   0.510   5.206  0.6727 -0.1100  0.6266
 3784TIP3   OH232766   1.543   2.944  15.453  0.2547  0.2222  0.3151
 3784TIP3    H132767   1.512   3.032  15.475  1.2671  0.5941  0.2870
 3784TIP3    H232768   1.552   2.945  15.358  1.8820  0.6592  0.4435
 3785TIP3   OH232769   2.898   5.983  11.333  0.7669 -0.0630  0.1818
 3785TIP3    H132770   2.983   5.944  11.312 -0.0537 -1.4256 -0.8148
 3785TIP3    H232771   2.837   5.942  11.271 -1.1320 -1.3274  2.6736
 3786TIP3   OH232772   5.059   0.089   5.997 -0.4072  0.6584 -0.2136
 3786TIP3    H132773   5.083   0.024   5.930 -1.5133  1.3869 -1.3614
 3786TIP3    H232774   5.088   0.173   5.960 -1.4804  1.1291 -0.0324
 3787TIP3   OH232775   1.600   0.321   4.828  0.2522  0.3252 -0.2515
 3787TIP3    H132776   1.505   0.321   4.813  0.4278  2.4474 -1.7645
 3787TIP3    H232777   1.634   0.261   4.761 -0.0931 -2.0355  1.5593
 3788TIP3   OH232778   3.899   0.135  15.192  0.2381  0.5566 -0.3250
 3788TIP3    H132779   3.975   0.127  15.134  0.7088  0.3353  0.3105
 3788TIP3    H232780   3.936   0.164  15.275 -0.1421 -1.2101  0.5037
 3789TIP3   OH232781   3.734   5.009   4.689 -0.1160 -0.8404  0.8389
 3789TIP3    H132782   3.703   5.077   4.749 -1.8318 -0.1003 -0.7654
 3789TIP3    H232783   3.657   4.986   4.637  1.3768 -0.9567 -1.5122
 3790TIP3   OH232784   0.587   3.722   5.235  0.7628  0.3784 -0.0973
 3790TIP3    H132785   0.527   3.797   5.235 -0.2596 -0.3709 -2.0464
 3790TIP3    H232786   0.674   3.760   5.223  0.4909  1.3497  0.8304
 3791TIP3   OH232787   3.940   5.588  16.870  0.4319 -0.6833  0.4698
 3791TIP3    H132788   3.970   5.612  16.958 -0.7058  0.1635  0.6595
 3791TIP3    H232789   3.845   5.596  16.875  0.3583 -0.5673 -0.8522
 3792TIP3   OH232790   4.838   5.119   1.843  0.4172  0.6839 -0.4151
 3792TIP3    H132791   4.818   5.059   1.916  0.9944 -1.3892 -1.8521
 3792TIP3    H232792   4.757   5.169   1.830 -0.2922 -0.1734  0.5057
 3793TIP3   OH232793   0.620   4.459  11.611  0.0673  0.1378 -0.3082
 3793TIP3    H132794   0.714   4.439  11.611 -0.1137 -0.9233  1.4072
 3793TIP3    H232795   0.581   4.392  11.667 -1.3906  1.9331  0.9578
 3794TIP3   OH232796   1.743   1.543   1.882  0.3611  0.3152  0.3801
 3794TIP3    H132797   1.713   1.550   1.973 -1.4629  1.7322 -0.2751
 3794TIP3    H232798   1.730   1.631   1.846  1.8278 -0.0134 -1.0470
 3795TIP3   OH232799   1.535   5.681  13.835  0.3349  0.2387  0.2345
 3795TIP3    H132800   1.510   5.595  13.868 -0.4349  0.1198 -0.5971
 3795TIP3    H232801   1.631   5.681  13.836  0.3392 -0.0283  1.7138
 3796TIP3   OH232802   4.229   6.182   3.690  0.2186  0.0741  0.5922
 3796TIP3    H132803   4.194   6.106   3.645 -0.4431  0.9769 -0.4592
 3796TIP3    H232804   4.155   6.243   3.697  1.1914  1.4265 -0.3742
 3797TIP3   OH232805   1.457   0.237  14.609 -0.5596 -0.1360  0.6618
 3797TIP3    H132806   1.471   0.191  14.692 -0.7594 -1.0336  0.2073
 3797TIP3    H232807   1.477   0.172  14.542 -0.5001  0.5527 -0.0020
 3798TIP3   OH232808   6.704   0.897  11.767 -0.6136  0.2897  0.8971
 3798TIP3    H132809   6.639   0.833  11.798 -0.0525 -0.9099 -0.2709
 3798TIP3    H232810   6.660   0.942  11.695 -0.3434 -0.1760  0.4324
 3799TIP3   OH232811   1.834   1.662  16.360 -0.0789  0.1778 -0.4892
 3799TIP3    H132812   1.883   1.668  16.442 -1.2479 -1.6302  0.4143
 3799TIP3    H232813   1.838   1.569  16.337 -0.7341  0.4693 -1.8684
 3800TIP3   OH232814   2.763   5.904  13.451 -0.0830 -0.3597 -0.7596
 3800TIP3    H132815   2.847   5.895  13.405  1.2399  0.5103  1.3506
 3800TIP3    H232816   2.717   5.974  13.405  1.3314  0.7015 -0.6127
 3801TIP3   OH232817   6.479   3.969  11.119  0.5923  0.4373 -0.0473
 3801TIP3    H132818   6.500   4.019  11.041  0.3525 -0.5453 -0.7618
 3801TIP3    H232819   6.453   4.034  11.184  0.0556  1.2096 -1.0288
 3802TIP3   OH232820   4.269   6.116  12.173  0.1711  0.5422 -0.4397
 3802TIP3    H132821   4.259   6.086  12.083  1.1045 -0.1282 -0.3284
 3802TIP3    H232822   4.363   6.126  12.185  0.1823 -0.7598  0.8794
 3803TIP3   OH232823   4.945   5.992   1.470 -0.1116 -0.1965  0.3502
 3803TIP3    H132824   4.952   6.039   1.553  0.4855 -0.9598  0.7538
 3803TIP3    H232825   4.871   6.032   1.425  0.1656  0.8791  0.8259
 3804TIP3   OH232826   4.921   5.941  13.155 -0.0155  0.6607 -0.2103
 3804TIP3    H132827   4.962   5.976  13.234  2.3358 -0.9066 -0.6232
 3804TIP3    H232828   4.994   5.931  13.093 -1.4113 -0.2708 -1.7776
 3805TIP3   OH232829   6.784   2.605   1.718 -0.4614  0.0542  0.5696
 3805TIP3    H132830   6.774   2.532   1.657  0.2048 -0.1667  0.7194
 3805TIP3    H232831   6.871   2.593   1.756  1.8468  3.5280 -2.8305
 3806TIP3   OH232832   3.996   3.691  15.620  0.1193  0.0584  0.1701
 3806TIP3    H132833   3.991   3.601  15.586  0.9598  0.0910 -0.0482
 3806TIP3    H232834   3.946   3.688  15.702 -0.6395 -0.3815 -0.2923
 3807TIP3   OH232835   4.592   3.110   5.204 -0.0442  0.0735  0.9006
 3807TIP3    H132836   4.524   3.165   5.165  0.5122 -0.5290 -1.0455
 3807TIP3    H232837   4.663   3.110   5.140  1.5549  0.1479  2.5654
 3808TIP3   OH232838   0.632   4.639  12.836  0.0345  0.1363 -0.0745
 3808TIP3    H132839   0.619   4.619  12.929  1.7800 -0.7656  0.0154
 3808TIP3    H232840   0.726   4.654  12.828 -0.0830  0.1475 -1.7121
 3809TIP3   OH232841   0.069   4.811  14.979  0.6683 -0.1988  0.0966
 3809TIP3    H132842   0.138   4.862  14.935  3.1434 -2.9237  0.5015
 3809TIP3    H232843   0.046   4.744  14.915 -3.1549  1.6545 -0.7589
 3810TIP3   OH232844   2.717   6.164   4.989 -0.0683 -0.3625  0.3786
 3810TIP3    H132845   2.675   6.082   5.014  2.4634 -1.7418  0.4560
 3810TIP3    H232846   2.772   6.141   4.914 -1.2688  1.9123 -1.3542
 3811TIP3   OH232847   1.021   3.512  11.309  0.4424 -0.1902 -0.0375
 3811TIP3    H132848   1.062   3.581  11.361  0.2409 -0.0797 -0.0263
 3811TIP3    H232849   0.999   3.444  11.373  0.9951 -0.4372 -0.1012
 3812TIP3   OH232850   5.955   2.668   0.024  0.1279  0.4415  0.2450
 3812TIP3    H132851   6.000   2.597  -0.023  0.8749  1.2508 -0.2849
 3812TIP3    H232852   5.973   2.650   0.116 -0.6481 -0.6870  0.2063
 3813TIP3   OH232853   6.299   1.609   6.887 -0.3481 -0.3644 -0.2088
 3813TIP3    H132854   6.320   1.611   6.794  1.5428  0.6671  0.1873
 3813TIP3    H232855   6.313   1.699   6.917 -2.4763 -0.3062  0.7926
 3814TIP3   OH232856   2.553   0.480   4.861 -0.1664 -0.4218  0.1095
 3814TIP3    H132857   2.570   0.399   4.814 -1.3787  0.1649 -1.4646
 3814TIP3    H232858   2.536   0.453   4.951 -0.6542 -1.9369 -0.4046
 3815TIP3   OH232859   4.275   4.123  12.367  0.5433  0.0018  0.1782
 3815TIP3    H132860   4.202   4.065  12.343  0.8443 -0.4467  0.3402
 3815TIP3    H232861   4.233   4.207  12.389  0.1115 -0.1369 -0.1107
 3816TIP3   OH232862   6.589   5.168   4.159 -0.0243  0.2436 -0.4640
 3816TIP3    H132863   6.548   5.090   4.123  0.9796  0.2912 -1.7683
 3816TIP3    H232864   6.638   5.206   4.086  1.0740  1.0287  0.6285
 3817TIP3   OH232865   2.950   5.922   3.887  0.1579 -0.0197  0.7177
 3817TIP3    H132866   2.897   5.937   3.965 -0.8933 -0.8690  0.1915
 3817TIP3    H232867   2.904   5.853   3.839 -0.4512  1.9034 -1.7466
 3818TIP3   OH232868   5.095   3.652  11.733 -0.4464  0.4122  0.4698
 3818TIP3    H132869   5.167   3.714  11.741  0.9628 -1.0530 -0.3015
 3818TIP3    H232870   5.016   3.706  11.741  0.6806  1.8618  2.9114
 3819TIP3   OH232871   2.526   6.402   6.341 -0.7441 -0.0003 -0.5181
 3819TIP3    H132872   2.538   6.373   6.432 -4.0473 -0.4856 -0.0833
 3819TIP3    H232873   2.555   6.328   6.288 -1.5245 -0.9357  0.3013
 3820TIP3   OH232874   2.259   4.475  15.205  0.1093 -0.2955  0.4293
 3820TIP3    H132875   2.296   4.550  15.252 -0.5579  0.1730  0.2160
 3820TIP3    H232876   2.230   4.511  15.121 -0.0889 -0.8232  0.2669
 3821TIP3   OH232877   6.736   4.836  15.914  0.4011  0.3290 -0.2801
 3821TIP3    H132878   6.654   4.788  15.924 -0.4158  1.5082 -1.1456
 3821TIP3    H232879   6.799   4.785  15.965 -1.3404  0.7161  2.4585
 3822TIP3   OH232880   5.442   5.946  13.709 -0.4770 -0.2340  0.2606
 3822TIP3    H132881   5.524   5.912  13.674 -0.9285 -1.3001  0.1962
 3822TIP3    H232882   5.376   5.883  13.682 -1.8361  2.0278 -2.1859
 3823TIP3   OH232883   4.610   5.065  13.461  0.1526  0.5173  0.7683
 3823TIP3    H132884   4.628   5.050  13.554 -1.6034  1.1879  1.2548
 3823TIP3    H232885   4.554   5.142  13.459 -0.3880  0.1232 -0.8067
 3824TIP3   OH232886   5.907   1.186   1.490 -0.4126  0.4489  0.2758
 3824TIP3    H132887   5.861   1.243   1.429  1.1798  1.2679 -0.2136
 3824TIP3    H232888   5.931   1.109   1.437 -1.8883 -0.3876  0.7454
 3825TIP3   OH232889   5.729   5.248   2.986  0.9039  0.0885 -0.1793
 3825TIP3    H132890   5.645   5.294   2.980  0.2339 -0.9861  0.5858
 3825TIP3    H232891   5.788   5.299   2.932 -0.3442  0.6573 -1.0535
 3826TIP3   OH232892   1.239   1.092  13.243  0.8018  0.0824  0.0971
 3826TIP3    H132893   1.326   1.131  13.234 -0.0057  1.7142 -1.2041
 3826TIP3    H232894   1.215   1.064  13.154  0.1930 -0.7741  0.5181
 3827TIP3   OH232895   5.488   1.112   4.239 -0.4244  0.7327  0.6410
 3827TIP3    H132896   5.540   1.033   4.255 -1.2995 -0.0904 -0.4168
 3827TIP3    H232897   5.551   1.174   4.201  0.2251  0.4849  1.2863
 3828TIP3   OH232898   1.907   3.654  10.286  0.2519 -0.3867 -0.2734
 3828TIP3    H132899   1.878   3.731  10.334 -0.8481 -0.9771  0.0411
 3828TIP3    H232900   1.989   3.681  10.246  0.2210  0.7353  0.3642
 3829TIP3   OH232901   3.305   4.588   0.343  0.3640  0.1880 -0.4416
 3829TIP3    H132902   3.282   4.518   0.405  0.3921  0.1092 -0.5203
 3829TIP3    H232903   3.221   4.618   0.309  0.2938  0.7471  0.1954
 3830TIP3   OH232904   2.492   2.779  13.939  0.0367 -0.6309 -0.5300
 3830TIP3    H132905   2.495   2.856  13.883 -0.8238 -0.5974 -0.5488
 3830TIP3    H232906   2.583   2.751  13.947  0.7387  1.8105  1.4912
 3831TIP3   OH232907   3.605   5.655  13.801  0.2144 -0.0897  0.1438
 3831TIP3    H132908   3.588   5.736  13.849 -1.0312 -0.0898 -0.2523
 3831TIP3    H232909   3.533   5.649  13.738  0.6360 -1.1843 -0.2648
 3832TIP3   OH232910   1.960   3.580   0.285 -0.3478 -0.1090 -0.3359
 3832TIP3    H132911   1.941   3.498   0.239 -4.2151 -0.5835  1.6461
 3832TIP3    H232912   1.876   3.627   0.286  1.0706  2.6592  0.9283
 3833TIP3   OH232913   4.919   2.321  16.433 -0.2015  0.4552 -0.4699
 3833TIP3    H132914   4.851   2.285  16.490 -0.0330  1.4545  0.3946
 3833TIP3    H232915   4.997   2.270  16.456 -0.5164 -0.3233 -1.0753
 3834TIP3   OH232916   5.444   6.533  13.700 -0.1122  0.2577 -0.1435
 3834TIP3    H132917   5.467   6.499  13.614 -0.4468 -1.7184  0.5157
 3834TIP3    H232918   5.368   6.481  13.728 -0.2389  1.1009  1.2032
 3835TIP3   OH232919   0.394   6.776  13.781  0.6781 -0.4896  0.1499
 3835TIP3    H132920   0.376   6.695  13.735  2.0481 -1.0056  0.4588
 3835TIP3    H232921   0.483   6.765  13.814  0.8183  1.0617  0.3644
 3836TIP3   OH232922   0.379   6.605   0.640  0.2551 -0.2398 -0.0455
 3836TIP3    H132923   0.343   6.667   0.703  0.5057 -1.9154  1.8176
 3836TIP3    H232924   0.324   6.617   0.562  0.1793  2.1545  0.2854
 3837TIP3   OH232925   4.226   4.829  16.832  0.0542  0.2533  0.3494
 3837TIP3    H132926   4.236   4.737  16.857 -2.6144 -0.0604  0.5416
 3837TIP3    H232927   4.149   4.859  16.880 -0.0362  2.1703 -0.8783
 3838TIP3   OH232928   2.783   1.859  16.296  0.0060  0.0459  0.0434
 3838TIP3    H132929   2.828   1.779  16.325 -1.9015 -0.8979  0.5880
 3838TIP3    H232930   2.769   1.845  16.202  1.4322  0.6773 -0.2886
 3839TIP3   OH232931   2.833   6.539   5.603 -0.1064  0.5085 -0.4846
 3839TIP3    H132932   2.767   6.517   5.669 -0.2734 -1.5218 -1.2709
 3839TIP3    H232933   2.878   6.457   5.585  2.9153  1.8653  0.2349
 3840TIP3   OH232934   1.916   5.633   1.592 -0.3784 -0.5962  0.2040
 3840TIP3    H132935   1.923   5.691   1.667  1.9728 -2.5620  1.6300
 3840TIP3    H232936   1.935   5.689   1.516 -0.2866  0.9038  1.2987
 3841TIP3   OH232937   0.028   4.515  16.627  0.1265 -0.1937 -0.1583
 3841TIP3    H132938  -0.049   4.506  16.684 -1.3313 -0.7893 -2.0937
 3841TIP3    H232939   0.085   4.443  16.652 -0.2531 -0.1488  0.8687
 3842TIP3   OH232940   0.693   3.946  13.085 -0.7238 -0.3159  0.2541
 3842TIP3    H132941   0.715   4.020  13.142  0.6881  0.3875 -1.1050
 3842TIP3    H232942   0.762   3.882  13.101 -0.7357 -0.4209 -0.0939
 3843TIP3   OH232943   5.883   2.636  16.156  0.3817 -0.1538 -0.0719
 3843TIP3    H132944   5.908   2.550  16.124 -2.8257 -1.2602  0.0480
 3843TIP3    H232945   5.882   2.691  16.077  0.0791 -0.8708 -0.5830
 3844TIP3   OH232946   3.940   6.543  16.265  0.4852  0.0462  0.7165
 3844TIP3    H132947   3.904   6.479  16.203  1.0161 -1.5942  2.0022
 3844TIP3    H232948   4.035   6.531  16.259  0.5956  0.7795  0.9289
 3845TIP3   OH232949   2.440   3.444   5.503  0.2738  0.2438 -0.2757
 3845TIP3    H132950   2.421   3.378   5.437  4.1844 -1.3547 -0.0816
 3845TIP3    H232951   2.459   3.523   5.454  0.1674 -0.0879 -0.8568
 3846TIP3   OH232952   6.775   1.739   2.727 -0.3508 -0.0276 -0.0009
 3846TIP3    H132953   6.851   1.793   2.705 -0.9232  0.6579 -0.3209
 3846TIP3    H232954   6.803   1.689   2.804  1.0911 -1.2100 -1.2214
 3847TIP3   OH232955   2.007   3.127   2.958  0.0368 -0.0787 -0.1189
 3847TIP3    H132956   2.075   3.076   3.001  0.7758  0.4739 -0.6192
 3847TIP3    H232957   2.009   3.213   3.001  0.0455  0.1231 -0.5101
 3848TIP3   OH232958   1.155   2.974   3.986 -0.5681 -0.6866 -0.3088
 3848TIP3    H132959   1.208   3.049   4.011 -0.1315 -0.3840 -2.0610
 3848TIP3    H232960   1.112   3.000   3.905 -1.6570 -1.7581 -0.1126
 3849TIP3   OH232961   5.965   0.335   4.966  0.5384  0.2941 -0.3154
 3849TIP3    H132962   5.909   0.327   5.043  1.0906 -0.6601  0.0136
 3849TIP3    H232963   6.014   0.253   4.964  0.3121  0.1615 -1.8645
 3850TIP3   OH232964   5.232   6.524   6.233  0.0526  0.3924 -0.0672
 3850TIP3    H132965   5.227   6.463   6.159  2.0027  0.1622 -0.0724
 3850TIP3    H232966   5.227   6.467   6.310 -1.8127  0.6171  0.0167
 3851TIP3   OH232967   4.280   4.524  11.742 -0.0141 -0.0116  0.2240
 3851TIP3    H132968   4.278   4.572  11.825 -3.0042  1.4988 -0.5643
 3851TIP3    H232969   4.202   4.469  11.745  0.3509 -0.6575 -1.1982
 3852TIP3   OH232970   0.340   6.370  16.775 -0.1564 -0.4813  0.0420
 3852TIP3    H132971   0.306   6.296  16.826 -0.5188  0.2375  0.8804
 3852TIP3    H232972   0.270   6.392  16.714 -0.3115 -0.4030  0.2500
 3853TIP3   OH232973   2.223   1.358   0.456  0.4574  0.3869  0.5879
 3853TIP3    H132974   2.188   1.272   0.434 -0.2319  0.8656 -0.2653
 3853TIP3    H232975   2.220   1.362   0.552 -0.2234 -0.2502  0.6009
 3854TIP3   OH232976   2.834   2.614   6.222 -0.2904 -0.1165  0.3723
 3854TIP3    H132977   2.858   2.664   6.299  0.7570  0.0728 -0.0515
 3854TIP3    H232978   2.877   2.660   6.149  0.9811 -1.7547  0.0011
 3855TIP3   OH232979   4.712   2.361  15.568  0.6941 -0.5284 -0.1492
 3855TIP3    H132980   4.661   2.430  15.611  1.0008 -0.5814  0.3199
 3855TIP3    H232981   4.652   2.320  15.506 -0.4303 -1.8495  1.7128
 3856TIP3   OH232982   0.759   1.997  14.260  0.5802 -0.3574  0.8927
 3856TIP3    H132983   0.830   2.031  14.315 -0.4902  0.6694  1.6745
 3856TIP3    H232984   0.780   1.904  14.249  1.5745 -0.2678  1.8253
 3857TIP3   OH232985   5.700   0.143   0.656 -0.7551 -0.3178  0.5200
 3857TIP3    H132986   5.789   0.110   0.663  1.2032  4.1680  0.1029
 3857TIP3    H232987   5.673   0.121   0.566  0.4026 -0.7116  0.2571
 3858TIP3   OH232988   0.159   2.324  12.533 -0.0041 -0.1943  0.2779
 3858TIP3    H132989   0.127   2.344  12.621  1.6574  0.3263  0.8076
 3858TIP3    H232990   0.252   2.305  12.545  0.2728 -0.0481 -1.3768
 3859TIP3   OH232991   1.884   4.791  10.511 -0.3222 -0.3665 -0.4083
 3859TIP3    H132992   1.852   4.760  10.596 -0.1846 -0.6061 -0.4445
 3859TIP3    H232993   1.891   4.886  10.522 -0.3169 -0.3956 -0.1533
 3860TIP3   OH232994   3.448   4.901   4.324 -0.4305  0.1102  0.1180
 3860TIP3    H132995   3.494   4.871   4.246 -1.0690  0.0624 -0.2502
 3860TIP3    H232996   3.502   4.870   4.397 -0.9618 -1.8517 -0.2408
 3861TIP3   OH232997   6.659   6.406   5.651  0.1468 -0.2047 -0.5378
 3861TIP3    H132998   6.709   6.412   5.733 -2.7445 -0.7241  1.4219
 3861TIP3    H232999   6.625   6.494   5.638 -0.3701 -0.3969 -0.4961
 3862TIP3   OH233000   3.790   3.355  14.924  0.2350  0.0875 -0.2171
 3862TIP3    H133001   3.805   3.277  14.871  0.4294 -0.7571  1.0443
 3862TIP3    H233002   3.843   3.342  15.002  0.0324  1.3482  0.1512
 3863TIP3   OH233003   4.745   2.314  11.131  0.8127  0.4561 -0.2071
 3863TIP3    H133004   4.819   2.325  11.191  0.0512 -2.2603  1.3927
 3863TIP3    H233005   4.679   2.268  11.182 -0.3464 -0.9780 -2.7965
 3864TIP3   OH233006   1.300   4.724  14.239  0.0975 -0.2302 -1.0825
 3864TIP3    H133007   1.234   4.660  14.213 -0.8703  0.2008  0.1945
 3864TIP3    H233008   1.250   4.802  14.263  1.1137  0.3194 -0.6693
 3865TIP3   OH233009   4.248   4.183  14.117  0.1131  0.5119  0.3890
 3865TIP3    H133010   4.337   4.150  14.110  0.0552  0.4680 -0.2647
 3865TIP3    H233011   4.196   4.108  14.147  0.1376  0.2567 -0.1870
 3866TIP3   OH233012   4.067   2.478  14.457 -0.1169 -0.2036  0.3528
 3866TIP3    H133013   4.158   2.468  14.484 -0.2214 -0.9225  0.4574
 3866TIP3    H233014   4.070   2.542  14.386  0.4302 -0.0077  0.5454
 3867TIP3   OH233015   1.672   2.995  13.321 -0.0733 -0.7327 -0.2842
 3867TIP3    H133016   1.721   2.920  13.355  1.0930  0.4865  0.8367
 3867TIP3    H233017   1.673   2.984  13.226  3.0514 -0.3990 -0.3944
 3868TIP3   OH233018   5.620   2.859  11.997 -0.0222  0.2854  0.0763
 3868TIP3    H133019   5.661   2.920  12.058 -1.0517  0.7288  0.3327
 3868TIP3    H233020   5.549   2.908  11.956 -0.4018 -0.5111 -0.2563
 3869TIP3   OH233021   0.858   2.767  13.470 -0.0807 -0.0469  0.5164
 3869TIP3    H133022   0.810   2.849  13.464  0.9826  0.5680  0.0878
 3869TIP3    H233023   0.902   2.759  13.386 -0.9631 -1.5878  0.1571
 3870TIP3   OH233024   3.708   5.807  16.007  0.0008 -0.8088 -0.2128
 3870TIP3    H133025   3.744   5.892  16.034 -1.0206 -0.4472  0.0414
 3870TIP3    H233026   3.784   5.748  16.007  0.2642 -0.6529  2.6797
 3871TIP3   OH233027   0.052   4.588   1.703  0.1665  0.0255 -0.2617
 3871TIP3    H133028  -0.032   4.596   1.749  1.1803  1.3629  1.4669
 3871TIP3    H233029   0.028   4.578   1.611 -1.8902  0.3547  0.1957
 3872TIP3   OH233030   1.602   5.470   0.725 -0.2781 -0.1704  0.0597
 3872TIP3    H133031   1.548   5.542   0.691  0.1784  1.0725  1.7738
 3872TIP3    H233032   1.682   5.513   0.755 -0.0350 -1.3864  1.2384
 3873TIP3   OH233033   2.535   6.017  11.335  0.3325  0.4407 -0.4800
 3873TIP3    H133034   2.557   5.963  11.259 -0.5288 -0.1743 -0.3127
 3873TIP3    H233035   2.559   5.964  11.411  1.8082  1.3228 -0.3065
 3874TIP3   OH233036   0.572   5.151  16.556 -0.2413  0.2912 -0.5827
 3874TIP3    H133037   0.564   5.125  16.465 -0.7151  0.7255 -0.6723
 3874TIP3    H233038   0.663   5.133  16.579  0.0758  0.8642 -1.3507
 3875TIP3   OH233039   0.303   3.738   0.486  0.2804  0.3630 -0.1311
 3875TIP3    H133040   0.259   3.715   0.405 -0.5938  1.1195  0.1110
 3875TIP3    H233041   0.378   3.792   0.460  0.6175 -0.2657 -0.4885
 3876TIP3   OH233042   4.718   0.902  14.610 -0.1420 -0.2672 -0.3475
 3876TIP3    H133043   4.736   0.853  14.530 -0.3362  0.6687 -0.9732
 3876TIP3    H233044   4.689   0.988  14.580 -1.0282 -0.1793  0.7245
 3877TIP3   OH233045   0.161   3.888  16.736  0.3309  0.1254  0.2012
 3877TIP3    H133046   0.244   3.924  16.766 -0.6104  2.0203  0.6822
 3877TIP3    H233047   0.142   3.816  16.797  2.8082 -2.1288 -1.4689
 3878TIP3   OH233048   3.241   5.232  12.983  0.6151 -0.4404 -0.0584
 3878TIP3    H133049   3.192   5.171  13.037 -0.5638  0.3547 -0.2036
 3878TIP3    H233050   3.208   5.318  13.007 -0.9996 -0.1098 -2.9986
 3879TIP3   OH233051   5.816   2.072   5.765  0.6112  0.0532  0.4589
 3879TIP3    H133052   5.735   2.091   5.812 -0.3702  0.0243 -1.1392
 3879TIP3    H233053   5.886   2.103   5.823 -0.2735 -2.7830  3.3747
 3880TIP3   OH233054   4.846   4.201   3.825  0.3997 -0.5572  0.3984
 3880TIP3    H133055   4.878   4.193   3.915 -0.5012 -0.2346  0.7582
 3880TIP3    H233056   4.793   4.123   3.812  1.0418 -0.9256 -0.0845
 3881TIP3   OH233057   4.778   4.588  16.926  0.4360 -0.2777 -0.0332
 3881TIP3    H133058   4.779   4.492  16.931 -0.7897 -0.3917 -1.3971
 3881TIP3    H233059   4.692   4.613  16.959  1.0986  0.4596  1.2304
 3882TIP3   OH233060   1.232   6.288   4.397  0.2641  0.1963  0.1612
 3882TIP3    H133061   1.226   6.366   4.342  2.1859  1.3467  1.4748
 3882TIP3    H233062   1.147   6.283   4.441 -1.3312 -0.7474 -2.7583
 3883TIP3   OH233063   4.137   5.878  14.876  0.0470 -0.3786 -0.1293
 3883TIP3    H133064   4.044   5.898  14.864 -0.1371 -0.8995  0.3778
 3883TIP3    H233065   4.151   5.799  14.824 -0.2939 -1.5058  1.4401
 3884TIP3   OH233066   2.547   0.422  16.699  0.0493 -0.7323 -0.0142
 3884TIP3    H133067   2.511   0.334  16.693 -2.6346  0.1767  1.3328
 3884TIP3    H233068   2.559   0.449  16.607 -3.2426 -0.9943 -0.6359
 3885TIP3   OH233069   1.430   1.457  16.151 -0.3774 -0.5272  0.1276
 3885TIP3    H133070   1.343   1.495  16.163  0.3993  1.1058  1.1608
 3885TIP3    H233071   1.416   1.377  16.101 -2.3316  0.2876 -0.7160
 3886TIP3   OH233072   0.530   1.517  14.110  0.0535 -0.3010  0.4362
 3886TIP3    H133073   0.619   1.517  14.144 -0.2915  1.9166  1.4960
 3886TIP3    H233074   0.531   1.579  14.038 -0.4087 -1.0753 -0.2587
 3887TIP3   OH233075   3.565   0.077  16.897  0.2736  0.2822  0.1079
 3887TIP3    H133076   3.506   0.116  16.961 -2.0342  0.5732 -2.0749
 3887TIP3    H233077   3.623   0.149  16.872  0.4567  0.4625  0.9990
 3888TIP3   OH233078   1.921   6.633  12.102 -0.3678 -0.5616  0.0598
 3888TIP3    H133079   1.978   6.600  12.172  0.2407 -1.8301 -0.9768
 3888TIP3    H233080   1.934   6.570  12.030 -3.5784 -1.3014 -0.0063
 3889TIP3   OH233081   6.500   2.109  16.580  0.3313 -0.0917  0.3028
 3889TIP3    H133082   6.584   2.128  16.539  0.0323  0.3543 -0.1150
 3889TIP3    H233083   6.493   2.013  16.578  0.1411 -0.0692 -1.0793
 3890TIP3   OH233084   6.373   0.202   3.046 -0.4715  1.0232 -0.4407
 3890TIP3    H133085   6.282   0.172   3.041  0.0087 -0.8328  0.9586
 3890TIP3    H233086   6.378   0.250   3.129 -0.0450  0.5696 -0.1963
 3891TIP3   OH233087   2.649   4.876   0.042 -0.4308  0.0372  0.3420
 3891TIP3    H133088   2.665   4.872  -0.052  0.5135  1.3482  0.4181
 3891TIP3    H233089   2.562   4.839   0.053 -0.7176  0.2091 -1.0948
 3892TIP3   OH233090   4.494   3.968  12.283 -0.1695  0.8499  0.8102
 3892TIP3    H133091   4.420   4.012  12.326 -1.4342 -0.4370  0.0327
 3892TIP3    H233092   4.541   3.926  12.355 -0.4709  1.2767  1.2666
 3893TIP3   OH233093   5.746   5.973   0.459 -0.4690 -0.0760 -0.2461
 3893TIP3    H133094   5.661   6.006   0.487 -0.7799  1.3255 -2.6213
 3893TIP3    H233095   5.726   5.905   0.395  0.1082  1.2270 -1.8975
 3894TIP3   OH233096   3.984   1.735   4.726 -0.4354  0.0779 -0.0364
 3894TIP3    H133097   4.058   1.679   4.752 -0.2564 -0.3753 -1.4384
 3894TIP3    H233098   4.022   1.795   4.661 -0.7701  1.4426  0.9935
 3895TIP3   OH233099   4.772   3.470  12.108 -0.0246  0.0833 -0.3493
 3895TIP3    H133100   4.777   3.521  12.027 -1.1758 -0.5739 -0.8537
 3895TIP3    H233101   4.758   3.535  12.176 -0.0033  0.5618 -0.7956
 3896TIP3   OH233102   5.287   4.517   5.679  0.1696  0.0664  0.0351
 3896TIP3    H133103   5.273   4.427   5.709  0.0487  0.3156  0.7314
 3896TIP3    H233104   5.226   4.570   5.731  0.4221  0.5869 -0.1884
 3897TIP3   OH233105   5.142   1.643   0.950 -0.2805 -0.0016  0.0964
 3897TIP3    H133106   5.085   1.566   0.958  1.3392 -1.2464  0.1314
 3897TIP3    H233107   5.164   1.647   0.857  1.2789 -0.8683  0.3867
 3898TIP3   OH233108   5.077   3.133   2.744 -0.0318  0.3756 -0.1842
 3898TIP3    H133109   5.120   3.088   2.817 -2.0825  0.1450  0.9699
 3898TIP3    H233110   5.056   3.220   2.778  0.0211  0.6764 -0.9038
 3899TIP3   OH233111   0.384   1.329   0.435  0.1491 -0.3442  0.2393
 3899TIP3    H133112   0.299   1.362   0.466 -0.4478 -2.1316  0.6681
 3899TIP3    H233113   0.373   1.234   0.434  1.8033 -0.5621 -0.7886
 3900TIP3   OH233114   2.539   5.663   2.380 -0.1291 -0.1722 -0.0009
 3900TIP3    H133115   2.494   5.612   2.447  0.6570 -2.0294 -0.8144
 3900TIP3    H233116   2.484   5.654   2.302 -0.3074  0.7827  0.0078
 3901TIP3   OH233117   3.808   3.906  11.456  0.5606  0.1675 -0.6193
 3901TIP3    H133118   3.743   3.908  11.526 -3.2709  0.1045 -3.8106
 3901TIP3    H233119   3.864   3.982  11.474 -1.3157  1.1731  1.5692
 3902TIP3   OH233120   1.200   3.919  14.088 -0.2050  0.1806  0.4652
 3902TIP3    H133121   1.182   4.012  14.097  0.0917  0.0674  3.0448
 3902TIP3    H233122   1.181   3.882  14.174 -0.1062 -2.1236 -0.4165
 3903TIP3   OH233123   5.904   2.026  15.378  0.4351 -0.1852 -0.2527
 3903TIP3    H133124   5.838   2.010  15.446  0.5720 -0.1506 -0.1115
 3903TIP3    H233125   5.869   1.982  15.300 -0.1249  0.4826 -0.3867
 3904TIP3   OH233126   3.571   0.736   4.912 -0.0544  0.0091 -0.4532
 3904TIP3    H133127   3.662   0.752   4.885  0.5335  0.1895  1.4542
 3904TIP3    H233128   3.539   0.823   4.936  0.3228 -0.4116  1.7928
 3905TIP3   OH233129   5.231   0.774  16.109  0.5855  0.3007  0.1055
 3905TIP3    H133130   5.303   0.820  16.066  0.6161 -0.6113 -0.8366
 3905TIP3    H233131   5.169   0.843  16.132  0.4673  0.7898 -1.5914
 3906TIP3   OH233132   2.544   1.533  11.473 -0.4013 -0.6040 -0.6520
 3906TIP3    H133133   2.477   1.474  11.437 -0.8057 -2.6703  3.0039
 3906TIP3    H233134   2.507   1.621  11.463 -2.1111 -1.3880 -1.7061
 3907TIP3   OH233135   3.239   5.133   4.761 -0.2171  0.1707  0.3501
 3907TIP3    H133136   3.299   5.157   4.833  1.2863  0.1949 -0.8521
 3907TIP3    H233137   3.249   5.204   4.698 -1.2550 -0.0313 -0.0590
 3908TIP3   OH233138   5.568   0.408  11.555  0.3495  0.2202 -0.2084
 3908TIP3    H133139   5.594   0.375  11.641  1.1164  2.0101  0.2912
 3908TIP3    H233140   5.649   0.414  11.506 -0.1067 -0.9336 -1.1335
 3909TIP3   OH233141   5.213   2.984   5.003  0.4940 -0.1736 -0.5370
 3909TIP3    H133142   5.136   3.041   4.994  0.4454 -0.0358  0.6031
 3909TIP3    H233143   5.198   2.936   5.085  1.6721 -0.0494 -0.2325
 3910TIP3   OH233144   2.673   6.447   2.283  0.3427  0.6247  0.4914
 3910TIP3    H133145   2.715   6.410   2.361  0.4421  0.3738  0.3184
 3910TIP3    H233146   2.643   6.371   2.234 -0.9161  0.8055  0.9348
 3911TIP3   OH233147   4.814   3.562   2.305  0.0789 -0.5379  0.1163
 3911TIP3    H133148   4.819   3.526   2.217 -0.7053 -0.7422  0.1497
 3911TIP3    H233149   4.851   3.493   2.361  1.7607  0.0910 -0.1624
 3912TIP3   OH233150   6.692   0.912   4.497  0.2418 -0.2951 -0.0007
 3912TIP3    H133151   6.730   0.897   4.583 -1.1651 -0.1582  0.6729
 3912TIP3    H233152   6.619   0.850   4.491 -0.2660  0.3351 -0.6959
 3913TIP3   OH233153   6.364   4.020  10.692  0.2100  0.5166 -0.2753
 3913TIP3    H133154   6.286   4.056  10.650 -0.7675  2.7369  3.0071
 3913TIP3    H233155   6.437   4.057  10.644 -0.8231  2.4724 -0.4407
 3914TIP3   OH233156   2.261   5.721  11.971  1.2383  0.4495  0.3045
 3914TIP3    H133157   2.197   5.785  11.940  1.3535  0.4627  0.0912
 3914TIP3    H233158   2.246   5.715  12.065  1.9554  1.6092  0.5070
 3915TIP3   OH233159   4.085   6.294  12.297  0.1141  0.0564 -0.3403
 3915TIP3    H133160   3.998   6.264  12.270 -0.0300 -0.4158  0.5927
 3915TIP3    H233161   4.142   6.219  12.278  0.7603  1.1065 -2.9817
 3916TIP3   OH233162   0.134   6.084   2.086 -0.4301 -0.1614 -0.4865
 3916TIP3    H133163   0.052   6.063   2.040 -1.1103  0.9968  0.1594
 3916TIP3    H233164   0.117   6.168   2.127 -0.1068 -1.4507  2.5031
 3917TIP3   OH233165   3.403   2.328  16.552 -0.2441 -0.5124 -0.2439
 3917TIP3    H133166   3.446   2.377  16.482  3.3750 -0.3356  1.8589
 3917TIP3    H233167   3.357   2.394  16.603  1.2848  0.1595  0.3146
 3918TIP3   OH233168   1.219   2.171  15.329  0.4413  0.3373  0.7932
 3918TIP3    H133169   1.283   2.179  15.400  2.4357  0.2853 -0.8849
 3918TIP3    H233170   1.261   2.214  15.254 -1.1262 -0.4627 -0.6188
 3919TIP3   OH233171   3.050   5.262  11.278 -0.8113  0.4061 -0.3664
 3919TIP3    H133172   2.970   5.313  11.286 -1.7435 -0.7366 -1.7823
 3919TIP3    H233173   3.098   5.303  11.206 -0.3108  0.8441  0.2127
 3920TIP3   OH233174   2.937   0.922   4.253 -0.2053 -0.5060 -0.1343
 3920TIP3    H133175   2.902   0.903   4.166 -1.4691  0.8643  0.0363
 3920TIP3    H233176   2.871   0.888   4.313  0.3800 -0.9105  0.2887
 3921TIP3   OH233177   5.654   3.424   1.081 -0.0061  0.6391  0.2920
 3921TIP3    H133178   5.614   3.352   1.032  1.2500 -0.6517  1.0804
 3921TIP3    H233179   5.727   3.453   1.027 -0.1378  0.9240  0.2621
 3922TIP3   OH233180   1.493   5.897  13.683 -0.1184  0.4220  0.2976
 3922TIP3    H133181   1.526   5.818  13.725  2.6060  1.3075 -0.0075
 3922TIP3    H233182   1.476   5.958  13.755 -1.2983 -0.0639  0.4599
 3923TIP3   OH233183   1.611   0.115   4.386 -0.0086  0.3555  0.0984
 3923TIP3    H133184   1.545   0.135   4.319  1.5050 -1.9760 -2.2775
 3923TIP3    H233185   1.610   0.192   4.444 -0.8739  2.9515 -3.0431
 3924TIP3   OH233186   5.600   6.518   2.016  0.4397 -0.4871 -0.1535
 3924TIP3    H133187   5.531   6.472   2.065  1.6534 -0.1581  1.9687
 3924TIP3    H233188   5.560   6.537   1.931 -1.0033 -3.1375 -0.1987
 3925TIP3   OH233189   0.390   0.504  12.454 -0.3032 -0.5235 -0.0208
 3925TIP3    H133190   0.315   0.473  12.505  0.7202 -0.3986  1.6548
 3925TIP3    H233191   0.389   0.599  12.466 -0.5806 -0.3903 -1.0349
 3926TIP3   OH233192   2.926   6.638  11.273 -0.1801  0.5019 -0.1068
 3926TIP3    H133193   2.875   6.573  11.226 -3.4231  1.6184  1.5913
 3926TIP3    H233194   2.938   6.601  11.361  0.8867  0.8139 -0.0999
 3927TIP3   OH233195   0.517   1.501   1.080  0.3619 -0.2217 -0.2934
 3927TIP3    H133196   0.445   1.460   1.033 -0.7463 -0.3737  1.4337
 3927TIP3    H233197   0.478   1.577   1.123  1.7109  0.8972 -0.9704
 3928TIP3   OH233198   3.121   6.701  14.964  0.2670  0.1732 -0.9470
 3928TIP3    H133199   3.136   6.624  14.908 -1.3562 -0.8061 -0.1024
 3928TIP3    H233200   3.197   6.704  15.022  1.8977  1.0871 -2.9637
 3929TIP3   OH233201   4.605   1.442   4.486  0.6010 -0.4635 -0.0393
 3929TIP3    H133202   4.697   1.419   4.495  0.3748 -1.1193  0.6942
 3929TIP3    H233203   4.560   1.359   4.473  0.2557 -0.0430 -1.8992
 3930TIP3   OH233204   5.905   1.224  11.552 -0.1775 -0.3618  0.4271
 3930TIP3    H133205   5.812   1.203  11.550 -0.5544  0.6836  3.1010
 3930TIP3    H233206   5.943   1.172  11.481 -2.7292 -1.0208 -0.5548
 3931TIP3   OH233207   1.818   0.673   2.188  0.0859 -0.4923 -0.6718
 3931TIP3    H133208   1.817   0.578   2.187 -0.6842 -0.5320  0.9851
 3931TIP3    H233209   1.860   0.697   2.270 -0.8221  0.5635 -0.4787
 3932TIP3   OH233210   5.421   4.758   0.774 -0.0395  0.7220 -0.1870
 3932TIP3    H133211   5.344   4.777   0.720 -0.5105 -0.3945  0.0677
 3932TIP3    H233212   5.413   4.665   0.795  0.7908  0.8547  0.7717
 3933TIP3   OH233213   3.554   3.364   3.063  0.0907  0.0736 -0.4586
 3933TIP3    H133214   3.567   3.459   3.069  2.5696 -0.1549 -0.9855
 3933TIP3    H233215   3.638   3.327   3.090 -1.0055 -2.0188  0.2682
 3934TIP3   OH233216   1.298   3.802  12.747 -0.2084  0.4092 -0.0386
 3934TIP3    H133217   1.206   3.813  12.726 -0.3441 -1.0091 -0.2661
 3934TIP3    H233218   1.343   3.867  12.692 -0.6044 -2.5448 -4.3866
 3935TIP3   OH233219   2.670   1.861  11.874  0.1956 -0.0126 -0.5014
 3935TIP3    H133220   2.735   1.807  11.829  0.8756  0.2994  0.1040
 3935TIP3    H233221   2.640   1.806  11.947 -1.6389 -0.9223 -1.8531
 3936TIP3   OH233222   5.961   2.131  10.567  0.4395  0.3902  0.9240
 3936TIP3    H133223   5.878   2.109  10.611  0.7671 -0.5436  1.1112
 3936TIP3    H233224   6.024   2.067  10.602  1.2874  1.2078  0.9321
 3937TIP3   OH233225   2.560   6.668   2.146 -0.4507  0.1240 -0.3661
 3937TIP3    H133226   2.490   6.687   2.209 -0.1971  0.1284 -0.0848
 3937TIP3    H233227   2.625   6.620   2.197 -0.5175 -0.3983 -0.7703
 3938TIP3   OH233228   5.634   0.738   1.359  0.3127 -0.1568 -0.1556
 3938TIP3    H133229   5.608   0.803   1.293 -0.9470  0.1865  0.6451
 3938TIP3    H233230   5.693   0.679   1.313  1.8970  1.8356 -0.7884
 3939TIP3   OH233231   4.707   1.658  14.910 -0.2124  0.4682 -0.3701
 3939TIP3    H133232   4.642   1.608  14.860  0.0853  0.3929 -0.6883
 3939TIP3    H233233   4.765   1.592  14.948 -1.1281  0.4507  1.0824
 3940TIP3   OH233234   4.405   0.184  10.907  0.0188  0.2265  0.3149
 3940TIP3    H133235   4.463   0.253  10.939 -0.5313  1.0831 -0.4922
 3940TIP3    H233236   4.461   0.107  10.902  0.5171  0.4565  1.7565
 3941TIP3   OH233237   5.040   5.459  15.520  0.3412 -0.7649  0.3064
 3941TIP3    H133238   5.005   5.543  15.490 -1.0610 -1.3034  0.3433
 3941TIP3    H233239   5.019   5.398  15.450  0.5019 -1.2708  0.6944
 3942TIP3   OH233240   5.328   6.755   6.319  0.3729  0.0130 -0.8549
 3942TIP3    H133241   5.291   6.675   6.282 -0.3788  0.5599 -1.3055
 3942TIP3    H233242   5.376   6.725   6.397 -0.2187 -0.8203 -0.7987
 3943TIP3   OH233243   4.574   6.804   4.907 -0.5983 -0.5375 -0.2972
 3943TIP3    H133244   4.636   6.732   4.923 -1.4192 -0.9983  0.9461
 3943TIP3    H233245   4.627   6.883   4.919 -0.2055 -0.9284  0.6947
 3944TIP3   OH233246   2.252   3.179   5.594 -0.3354 -0.3409  0.3311
 3944TIP3    H133247   2.292   3.244   5.652  0.7549 -1.0880  0.4429
 3944TIP3    H233248   2.230   3.228   5.515  1.0794  0.0476  0.1526
 3945TIP3   OH233249   2.083   5.769  13.107  0.0420 -0.1095  0.0244
 3945TIP3    H133250   1.990   5.746  13.100 -0.0795  0.6234 -0.9933
 3945TIP3    H233251   2.128   5.685  13.116 -0.6816 -0.5090 -0.0278
 3946TIP3   OH233252   2.413   2.582   1.201  0.0922 -0.3953  0.0478
 3946TIP3    H133253   2.356   2.506   1.192 -0.7434  0.2476 -0.2691
 3946TIP3    H233254   2.413   2.622   1.113  1.4812 -0.6918 -0.1010
 3947TIP3   OH233255   2.853   1.397  15.883 -0.0262 -0.1581  0.1126
 3947TIP3    H133256   2.779   1.343  15.855  0.0902 -0.4217  0.3131
 3947TIP3    H233257   2.920   1.334  15.908 -0.2045  0.0747  1.2055
 3948TIP3   OH233258   2.429   0.875  14.315  0.4444 -0.0828 -0.4814
 3948TIP3    H133259   2.359   0.812  14.328 -0.9388  1.5607  0.6208
 3948TIP3    H233260   2.481   0.840  14.243 -0.8423 -1.9294 -0.5770
 3949TIP3   OH233261   0.663   5.419  16.427  0.1310  0.1470 -0.1058
 3949TIP3    H133262   0.628   5.483  16.365  0.0238 -0.3030 -0.5174
 3949TIP3    H233263   0.604   5.344  16.420  0.8991 -0.4368 -0.4625
 3950TIP3   OH233264   3.309   4.934   2.488 -0.7338  0.1384  0.0678
 3950TIP3    H133265   3.218   4.905   2.477 -0.8585  0.8326 -0.8992
 3950TIP3    H233266   3.338   4.953   2.399 -0.2227  1.6329  0.5250
 3951TIP3   OH233267   5.382   0.160  14.981 -0.0499 -0.2413 -0.3751
 3951TIP3    H133268   5.302   0.116  14.953 -0.0349 -2.1645  2.2256
 3951TIP3    H233269   5.357   0.204  15.063  1.3573 -0.2668  0.0899
 3952TIP3   OH233270   0.894   4.402   2.815 -0.6743  0.3101 -0.0104
 3952TIP3    H133271   0.877   4.383   2.907 -0.8885 -0.0537 -0.1239
 3952TIP3    H233272   0.937   4.487   2.816  0.7458 -0.3886  0.5346
 3953TIP3   OH233273   2.833   4.491   4.145 -0.8356 -0.0441 -0.3235
 3953TIP3    H133274   2.917   4.445   4.151  0.5254  2.4123  1.3459
 3953TIP3    H233275   2.792   4.455   4.066  1.9366 -1.0940 -1.4408
 3954TIP3   OH233276   2.816   3.471   4.015  0.2941 -0.1112  0.3175
 3954TIP3    H133277   2.797   3.391   3.966 -0.6175 -1.0769  2.1329
 3954TIP3    H233278   2.888   3.447   4.074 -0.0753  0.3474  0.9751
 3955TIP3   OH233279   2.001   0.511  11.066  0.7436  0.7665 -0.5022
 3955TIP3    H133280   1.940   0.489  10.995 -0.0533 -0.9061  0.6289
 3955TIP3    H233281   1.954   0.487  11.146  2.5886  0.1683  0.4632
 3956TIP3   OH233282   6.081   2.585  12.641 -0.1414 -0.6058  0.2917
 3956TIP3    H133283   6.098   2.526  12.714 -0.6922 -1.2946 -0.1309
 3956TIP3    H233284   5.989   2.570  12.618 -0.2758  0.3548  0.1230
 3957TIP3   OH233285   2.716   4.067  13.841 -0.2923  0.3974  0.0990
 3957TIP3    H133286   2.687   4.155  13.815 -0.4442  0.4414  0.4115
 3957TIP3    H233287   2.725   4.019  13.759 -0.0978  0.7404 -0.0808
 3958TIP3   OH233288   4.267   4.827  14.957 -0.6050 -0.1753 -0.0304
 3958TIP3    H133289   4.270   4.731  14.965 -0.4433 -0.2761 -1.0948
 3958TIP3    H233290   4.291   4.844  14.866  0.3066  0.9467  0.3955
 3959TIP3   OH233291   5.800   6.253  11.582  0.3554 -0.3728  0.0370
 3959TIP3    H133292   5.782   6.312  11.509  0.3094 -0.4244  0.0080
 3959TIP3    H233293   5.715   6.214  11.603 -0.1400  1.4289  1.6681
 3960TIP3   OH233294   6.025   2.921   0.009 -0.1534 -0.1088 -0.5774
 3960TIP3    H133295   6.031   2.827  -0.009 -0.6594  0.1030 -2.0033
 3960TIP3    H233296   5.934   2.943  -0.010 -0.0390  0.6795 -0.2565
 3961TIP3   OH233297   0.115   6.157   3.250  0.1880 -0.0272  0.1396
 3961TIP3    H133298   0.086   6.111   3.171 -0.7014 -1.0098  1.0160
 3961TIP3    H233299   0.112   6.090   3.319  0.4184  0.9537  1.1187
 3962TIP3   OH233300   0.537   3.299  13.348 -0.3766 -1.1898 -0.0405
 3962TIP3    H133301   0.516   3.392  13.347 -1.1670 -1.3563  0.0889
 3962TIP3    H233302   0.602   3.289  13.417 -0.3544 -0.7486  0.0015
 3963TIP3   OH233303   4.121   3.282  16.526  0.4375 -0.4111 -0.7783
 3963TIP3    H133304   4.029   3.272  16.501 -0.3866  3.8279 -0.2118
 3963TIP3    H233305   4.119   3.286  16.622  0.8887  1.3541 -0.8073
 3964TIP3   OH233306   6.571   2.059  13.087  0.5738  0.0703 -1.0809
 3964TIP3    H133307   6.489   2.082  13.132  0.8385  1.2957 -1.1790
 3964TIP3    H233308   6.554   2.079  12.995  1.0630  0.5949 -1.0615
 3965TIP3   OH233309   3.770   2.416  12.021 -1.0314 -0.4152  0.1917
 3965TIP3    H133310   3.849   2.471  12.027 -0.5522 -0.7114 -2.1745
 3965TIP3    H233311   3.704   2.463  12.072 -0.0317  1.2531  0.0355
 3966TIP3   OH233312   1.972   6.283   2.500  0.2060  0.0249  0.2903
 3966TIP3    H133313   2.012   6.201   2.471  0.7036  0.6902 -0.9699
 3966TIP3    H233314   1.957   6.270   2.594 -0.0170 -1.6102  0.0594
 3967TIP3   OH233315   3.655   1.683  11.820  0.3132  0.2316  0.0294
 3967TIP3    H133316   3.639   1.647  11.733 -2.2097  0.8686  0.1659
 3967TIP3    H233317   3.701   1.766  11.804 -0.4425  0.5136 -0.7095
 3968TIP3   OH233318   5.329   1.156   2.870 -0.3249 -0.8252 -0.0105
 3968TIP3    H133319   5.396   1.196   2.814 -1.0608  0.3332 -0.0965
 3968TIP3    H233320   5.276   1.104   2.810 -1.1707  0.4887 -0.4380
 3969TIP3   OH233321   4.393   4.279  17.058  0.0411 -0.2801  0.3379
 3969TIP3    H133322   4.378   4.192  17.021  0.2504 -0.3994  0.5272
 3969TIP3    H233323   4.314   4.298  17.109  0.2063 -0.5824  0.7190
 3970TIP3   OH233324   1.870   4.904   1.176  0.0308  0.0512  0.1292
 3970TIP3    H133325   1.781   4.907   1.138  0.6004 -1.7270 -1.5422
 3970TIP3    H233326   1.907   4.990   1.156 -0.8022  0.2715 -0.5616
 3971TIP3   OH233327   3.572   4.128   5.041 -0.0289 -0.0276  0.5193
 3971TIP3    H133328   3.510   4.072   5.087 -0.8562 -0.1996 -0.7483
 3971TIP3    H233329   3.651   4.074   5.031 -0.5479 -0.7083 -0.0026
 3972TIP3   OH233330   2.563   0.904   1.656 -0.0465 -0.3502  0.3387
 3972TIP3    H133331   2.598   0.993   1.661 -1.7598  0.3842 -0.2441
 3972TIP3    H233332   2.484   0.912   1.604  1.1954 -2.6880 -2.1228
 3973TIP3   OH233333   6.316   5.273  11.278  0.7364 -1.0201  0.7602
 3973TIP3    H133334   6.367   5.353  11.265  1.4058 -1.5929 -0.2913
 3973TIP3    H233335   6.252   5.273  11.207  0.8364 -1.4843  0.6635
 3974TIP3   OH233336   2.501   3.429  12.847 -0.2078 -0.5102  0.6690
 3974TIP3    H133337   2.467   3.340  12.840 -0.7350 -0.4197  1.9302
 3974TIP3    H233338   2.423   3.484  12.856  0.0117  0.2848 -1.7006
 3975TIP3   OH233339   4.847   4.201   5.934 -0.2556 -0.0039 -0.1517
 3975TIP3    H133340   4.923   4.144   5.924 -0.0648 -0.2953  2.2842
 3975TIP3    H233341   4.772   4.142   5.931 -0.1668 -0.1643  0.5963
 3976TIP3   OH233342   3.254   2.126   4.610  0.6183  0.0544 -0.3266
 3976TIP3    H133343   3.292   2.183   4.677 -0.3739 -0.0701  0.3682
 3976TIP3    H233344   3.165   2.110   4.641  0.5270 -0.9687 -1.0884
 3977TIP3   OH233345   0.833   5.825  12.933 -0.2974 -0.0088 -0.2151
 3977TIP3    H133346   0.837   5.747  12.988 -1.7683  2.0847  3.1820
 3977TIP3    H233347   0.924   5.844  12.911  0.4388 -0.7465  1.9298
 3978TIP3   OH233348   4.348   0.014  16.328  0.1249 -0.2559 -0.2443
 3978TIP3    H133349   4.403  -0.007  16.404 -0.1932  3.2230  1.1526
 3978TIP3    H233350   4.407   0.061  16.269 -0.6280  1.0362 -0.0090
 3979TIP3   OH233351   4.649   6.574   5.731 -0.0712 -0.1837  0.4359
 3979TIP3    H133352   4.592   6.527   5.792 -0.6881  0.1936  0.1615
 3979TIP3    H233353   4.590   6.605   5.662  0.6729 -0.9044 -0.5417
 3980TIP3   OH233354   3.517   4.679  16.704 -0.2318 -0.1516  0.6314
 3980TIP3    H133355   3.592   4.737  16.706  0.5601 -1.1447  0.7148
 3980TIP3    H233356   3.482   4.681  16.793  0.1695 -0.2656  0.7941
 3981TIP3   OH233357   6.260   2.662   0.091 -0.3841  0.0618 -0.2450
 3981TIP3    H133358   6.333   2.709   0.051 -0.2756  0.0037 -0.1182
 3981TIP3    H233359   6.235   2.715   0.167 -0.2300 -0.1073 -0.0741
 3982TIP3   OH233360   1.827   0.212  11.365  0.0387  0.0326  0.1943
 3982TIP3    H133361   1.856   0.296  11.328  1.4662 -0.2207  0.6677
 3982TIP3    H233362   1.882   0.147  11.321 -1.3401 -0.7180 -0.4750
 3983TIP3   OH233363   2.448   2.279   0.098  0.3270 -0.0204  0.5477
 3983TIP3    H133364   2.361   2.286   0.140  1.0661  2.1250  1.9369
 3983TIP3    H233365   2.502   2.342   0.147  3.1272 -2.4223  0.7878
 3984TIP3   OH233366   4.178   2.475  13.231  0.4745 -0.4092 -0.7197
 3984TIP3    H133367   4.177   2.475  13.136 -1.8355  2.8384 -0.8756
 3984TIP3    H233368   4.262   2.513  13.255  0.2562  0.6317 -1.5644
 3985TIP3   OH233369   1.022   0.866  15.091  0.3060 -0.0288  0.0775
 3985TIP3    H133370   0.930   0.884  15.111  0.6020  0.5950  0.9301
 3985TIP3    H233371   1.057   0.949  15.058  0.4136 -0.4325 -0.8613
 3986TIP3   OH233372   4.466   1.502   2.596 -0.2999 -0.2571  0.2985
 3986TIP3    H133373   4.550   1.508   2.551 -0.5900 -1.1747 -0.3980
 3986TIP3    H233374   4.408   1.461   2.532 -1.0040 -0.5901  1.1365
 3987TIP3   OH233375   4.926   3.175   1.515 -0.2195 -0.2548  0.3028
 3987TIP3    H133376   4.866   3.206   1.582  0.7812 -0.4364  1.3273
 3987TIP3    H233377   4.988   3.120   1.562 -0.0393 -1.1748 -0.9390
 3988TIP3   OH233378   2.420   0.160   4.446  0.2130  0.6174 -0.2523
 3988TIP3    H133379   2.326   0.156   4.435  0.3099 -0.4958 -0.7745
 3988TIP3    H233380   2.433   0.179   4.539 -0.5251  0.7246 -0.1726
 3989TIP3   OH233381   2.578   1.681  14.243  0.4195  0.6011  0.1941
 3989TIP3    H133382   2.660   1.672  14.292  0.0086  1.0013  0.9613
 3989TIP3    H233383   2.511   1.646  14.301 -0.1131  1.3577  0.0450
 3990TIP3   OH233384   5.124   6.384  13.171 -0.1168  0.4561 -0.1551
 3990TIP3    H133385   5.064   6.458  13.165  0.1836  0.6300 -1.2440
 3990TIP3    H233386   5.077   6.319  13.225  0.1576  1.9158  1.9385
 3991TIP3   OH233387   2.768   6.668   1.116  0.2697  0.5187  0.1618
 3991TIP3    H133388   2.824   6.644   1.190  1.5651  1.3635 -0.4992
 3991TIP3    H233389   2.781   6.598   1.052  0.2071  0.4788  0.1928
 3992TIP3   OH233390   0.327   2.456  15.149  0.2856 -0.7652  0.0278
 3992TIP3    H133391   0.340   2.535  15.202 -3.1805 -0.3231  0.4977
 3992TIP3    H233392   0.335   2.384  15.210 -0.8380 -0.4407  0.5856
 3993TIP3   OH233393   0.690   3.535   3.129  0.6331  0.9231  0.2462
 3993TIP3    H133394   0.692   3.596   3.203  0.7917  0.6664  0.4586
 3993TIP3    H233395   0.751   3.572   3.066  1.7839  0.2916  0.9450
 3994TIP3   OH233396   1.203   1.109  12.966  0.2657  0.3264 -0.0662
 3994TIP3    H133397   1.232   1.056  12.892 -0.5289 -0.5689  0.2417
 3994TIP3    H233398   1.130   1.160  12.932  1.3007  1.6014 -0.4822
 3995TIP3   OH233399   5.342   0.445   0.803 -0.4109 -0.2088 -0.5045
 3995TIP3    H133400   5.415   0.413   0.751  1.1940  1.4976  0.5762
 3995TIP3    H233401   5.383   0.487   0.879 -2.5894 -1.0837  1.2747
 3996TIP3   OH233402   4.534   0.355   1.966 -0.1692  0.3843 -0.3302
 3996TIP3    H133403   4.481   0.313   1.897 -1.6374  1.4725  0.0845
 3996TIP3    H233404   4.520   0.449   1.953 -1.6171  0.6237  2.2408
 3997TIP3   OH233405   3.269   1.528   3.890 -0.3830  0.6865  0.8019
 3997TIP3    H133406   3.281   1.435   3.910 -1.9340 -0.1299 -1.6314
 3997TIP3    H233407   3.356   1.566   3.901  0.6146 -1.3584  0.4674
 3998TIP3   OH233408   2.842   4.621  12.348  0.4912 -0.0496 -0.8435
 3998TIP3    H133409   2.867   4.555  12.284 -0.2396 -0.6965 -0.4849
 3998TIP3    H233410   2.821   4.571  12.427 -1.8924  0.3862 -1.1077
 3999TIP3   OH233411   5.579   5.739  13.889 -0.4817 -0.3000  0.0463
 3999TIP3    H133412   5.525   5.707  13.817  0.6318 -0.3699 -0.7783
 3999TIP3    H233413   5.665   5.755  13.850  0.3082 -0.8710  1.4823
 4000TIP3   OH233414   5.972   3.237  12.567 -0.0130 -0.4400 -0.6638
 4000TIP3    H133415   5.938   3.195  12.646 -1.9428 -0.2204 -1.3225
 4000TIP3    H233416   6.065   3.213  12.565  0.8873  1.8659  3.1828
 4001TIP3   OH233417   6.750   0.483  11.220  0.2392  0.1198 -0.2836
 4001TIP3    H133418   6.731   0.544  11.291  0.1423  0.3610 -0.5140
 4001TIP3    H233419   6.843   0.497  11.201  0.3049 -0.0614 -0.0934
 4002TIP3   OH233420   4.776   4.314   5.179 -0.3885 -0.4251  0.1394
 4002TIP3    H133421   4.854   4.369   5.171 -0.2981 -0.4691  0.6782
 4002TIP3    H233422   4.728   4.350   5.253  1.5052 -3.2196  3.0099
 4003TIP3   OH233423   1.151   0.950   3.236 -0.1979 -0.2496  0.3662
 4003TIP3    H133424   1.071   1.002   3.245 -0.4616 -0.0358 -2.3873
 4003TIP3    H233425   1.215   1.011   3.198  0.3315 -1.2302 -0.3487
 4004TIP3   OH233426   6.754   5.057  15.366  0.0833 -0.1456  0.3074
 4004TIP3    H133427   6.768   4.994  15.296 -0.3768  0.4238 -0.3089
 4004TIP3    H233428   6.842   5.077  15.398  0.3150 -0.2688 -0.2364
 4005TIP3   OH233429   5.838   4.113  13.680  0.2435  0.3148  0.2120
 4005TIP3    H133430   5.898   4.080  13.747  0.2079 -0.9083 -0.3161
 4005TIP3    H233431   5.832   4.041  13.617  0.4721  1.5102 -1.2335
 4006TIP3   OH233432   2.236   5.701  14.215 -0.2115 -0.0356 -0.4327
 4006TIP3    H133433   2.242   5.786  14.170 -0.1202 -0.6960 -1.7085
 4006TIP3    H233434   2.306   5.704  14.281  0.8149  0.2948 -1.4957
 4007TIP3   OH233435   0.778   5.826   1.186  0.0036  0.5146 -0.0372
 4007TIP3    H133436   0.727   5.808   1.107  1.9332  0.3561 -1.3147
 4007TIP3    H233437   0.846   5.887   1.158  3.5516 -2.9101  0.2772
 4008TIP3   OH233438   0.249   5.685   2.835 -0.2286 -0.2759 -0.3935
 4008TIP3    H133439   0.206   5.699   2.751  2.1430 -0.0709 -1.6422
 4008TIP3    H233440   0.338   5.719   2.823  0.0240  0.2770  2.3830
 4009TIP3   OH233441   3.615   1.012   1.290 -0.0391 -0.2074 -0.7932
 4009TIP3    H133442   3.551   0.983   1.354 -0.2876 -0.0254 -0.9561
 4009TIP3    H233443   3.570   1.080   1.241  0.1558 -0.3273 -1.1428
 4010TIP3   OH233444   1.399   2.227   3.082  0.2650 -0.1435  0.8365
 4010TIP3    H133445   1.351   2.259   3.006  1.1089  0.7065  0.6340
 4010TIP3    H233446   1.436   2.143   3.054  2.1683  1.0429 -0.4056
 4011TIP3   OH233447   6.772   1.486  11.168 -0.0636 -0.2427 -0.0758
 4011TIP3    H133448   6.723   1.545  11.111 -1.0728 -1.5304 -0.5980
 4011TIP3    H233449   6.810   1.543  11.235 -0.4474  1.0629 -0.9293
 4012TIP3   OH233450   6.429   2.514   2.354  0.0612  0.6223  0.1920
 4012TIP3    H133451   6.437   2.530   2.260 -0.1471 -1.3979 -0.1978
 4012TIP3    H233452   6.481   2.584   2.394  1.3078  0.7061 -1.4681
 4013TIP3   OH233453   2.217   2.426   3.709 -0.3422 -0.2466 -0.2562
 4013TIP3    H133454   2.147   2.428   3.774 -0.3104  3.7564 -0.1024
 4013TIP3    H233455   2.278   2.360   3.742 -1.4760 -0.0552  2.5326
 4014TIP3   OH233456   0.402   0.369   1.442 -0.0755 -0.1688 -0.0064
 4014TIP3    H133457   0.432   0.325   1.362 -0.8177 -0.8469  0.0776
 4014TIP3    H233458   0.327   0.317   1.472  1.4480 -1.2119  2.3114
 4015TIP3   OH233459   4.573   3.499   6.139 -0.0558 -0.1485  0.3125
 4015TIP3    H133460   4.601   3.408   6.136 -0.5439 -0.2786 -1.4911
 4015TIP3    H233461   4.527   3.508   6.222  0.4012 -1.4118  0.7183
 4016TIP3   OH233462   1.413   4.745  11.778  0.5756 -0.1432 -0.1011
 4016TIP3    H133463   1.336   4.709  11.734  0.0693 -0.7422  1.2339
 4016TIP3    H233464   1.381   4.776  11.862  1.5876  0.7029 -0.0091
 4017TIP3   OH233465   3.342   5.953   0.579 -0.4890 -0.3292 -0.1261
 4017TIP3    H133466   3.264   5.912   0.615 -1.3185 -1.8175 -3.2815
 4017TIP3    H233467   3.400   5.880   0.557  0.4795  0.5502 -0.5950
 4018TIP3   OH233468   3.110   5.735  13.909 -0.2941  0.5512  0.1028
 4018TIP3    H133469   3.087   5.818  13.866 -0.7288  0.3951  0.0251
 4018TIP3    H233470   3.046   5.673  13.876  1.0659 -0.2386 -1.1504
 4019TIP3   OH233471   3.056   2.312  13.581  0.2208 -0.0058 -0.1188
 4019TIP3    H133472   3.070   2.237  13.523  0.9831  0.4542 -0.5386
 4019TIP3    H233473   3.129   2.309  13.642  1.0310  1.1646 -0.9835
 4020TIP3   OH233474   5.045   1.247   1.224 -0.6733 -0.2829  0.0529
 4020TIP3    H133475   5.084   1.195   1.294 -1.4121  1.1096  1.5673
 4020TIP3    H233476   5.023   1.183   1.156  2.1269 -1.3945  0.0832
 4021TIP3   OH233477   5.847   4.412  12.087 -0.0321  0.3390 -0.7973
 4021TIP3    H133478   5.855   4.341  12.024  0.7696 -0.4046  0.1256
 4021TIP3    H233479   5.893   4.381  12.165 -1.1624  1.1619  0.2304
 4022TIP3   OH233480   2.100   1.529   4.472 -0.0741  0.3016  0.4225
 4022TIP3    H133481   2.151   1.489   4.401 -1.0144 -1.1938  0.5389
 4022TIP3    H233482   2.080   1.617   4.441 -0.5076 -0.3335 -1.2262
 4023TIP3   OH233483   4.339   2.369  11.627  0.1588  0.1830  0.0390
 4023TIP3    H133484   4.316   2.361  11.535 -0.4382 -0.7364  0.2430
 4023TIP3    H233485   4.347   2.278  11.657  0.7930  0.4724  0.7810
 4024TIP3   OH233486   1.578   4.325  10.358  0.2637  0.1754 -0.2311
 4024TIP3    H133487   1.666   4.313  10.321  0.3585 -1.7072  0.5518
 4024TIP3    H233488   1.519   4.313  10.283  0.5857 -0.7932 -0.3429
 4025TIP3   OH233489   2.422   4.237  14.347  0.5294 -0.7064 -0.2307
 4025TIP3    H133490   2.368   4.290  14.287 -0.4205 -1.8645 -0.4252
 4025TIP3    H233491   2.465   4.173  14.290  0.3291 -1.2346  0.2072
 4026TIP3   OH233492   0.875   3.379  15.043 -0.3019 -0.3720 -0.1889
 4026TIP3    H133493   0.875   3.475  15.042 -1.2887 -0.2838 -3.6411
 4026TIP3    H233494   0.802   3.354  14.987  2.1015 -3.0392 -2.4535
 4027TIP3   OH233495   1.855   3.102  15.616  0.0037  0.1482 -0.1148
 4027TIP3    H133496   1.827   3.161  15.546 -0.3546 -1.3251 -1.2566
 4027TIP3    H233497   1.789   3.113  15.684 -0.3297  0.6898 -0.5153
 4028TIP3   OH233498   3.266   4.127   5.743 -0.1698  0.0840  0.1233
 4028TIP3    H133499   3.358   4.153   5.752 -0.1979  1.0492 -1.7324
 4028TIP3    H233500   3.261   4.039   5.779  1.7150 -0.3817 -0.6793
 4029TIP3   OH233501   4.432   1.726  13.416 -0.4205  0.8581 -0.5969
 4029TIP3    H133502   4.407   1.701  13.505 -0.3189  0.8847 -0.5615
 4029TIP3    H233503   4.524   1.750  13.422 -0.2782  0.3850 -0.8046
 4030TIP3   OH233504   5.530   1.456   1.640  0.5174  0.9801  0.3509
 4030TIP3    H133505   5.600   1.416   1.692  0.1760  0.6344  0.5502
 4030TIP3    H233506   5.555   1.548   1.633  1.4333  0.6973 -0.2986
 4031TIP3   OH233507   2.157   3.712   5.431  0.2375 -0.0111  0.2660
 4031TIP3    H133508   2.152   3.619   5.452  0.3685  0.2212  1.3968
 4031TIP3    H233509   2.196   3.752   5.509 -1.7277  1.2819  0.6599
 4032TIP3   OH233510   3.957   6.064  16.574 -0.2243  0.0808 -0.0243
 4032TIP3    H133511   4.002   6.129  16.520  2.2524 -0.5779  1.1380
 4032TIP3    H233512   4.026   6.007  16.606 -2.1808 -2.5430 -0.1351
 4033TIP3   OH233513   6.203   5.170   3.827  0.8803 -0.6434  0.3724
 4033TIP3    H133514   6.128   5.215   3.867  1.1136  1.8169 -1.7442
 4033TIP3    H233515   6.277   5.193   3.883  0.7999  0.7553 -0.0597
 4034TIP3   OH233516   2.330   3.875   3.445 -0.3932 -0.0108 -0.0905
 4034TIP3    H133517   2.330   3.839   3.534  0.7269 -1.4527 -0.6436
 4034TIP3    H233518   2.419   3.908   3.433 -0.8340  1.1406 -0.3279
 4035TIP3   OH233519   0.490   4.340   2.031  0.1253 -0.2171 -0.0664
 4035TIP3    H133520   0.554   4.404   2.001  0.5509 -0.7502 -0.3260
 4035TIP3    H233521   0.486   4.276   1.960  0.9016 -1.3283  0.8329
 4036TIP3   OH233522   5.840   4.983   5.854 -0.3755  0.1616 -0.4553
 4036TIP3    H133523   5.827   5.063   5.906 -1.5247 -1.1041  1.3101
 4036TIP3    H233524   5.860   5.015   5.766  0.5197  2.4010  0.4751
 4037TIP3   OH233525   5.000   4.335  15.733 -0.1365  0.3167  0.3202
 4037TIP3    H133526   4.917   4.298  15.704  0.1967 -0.0598 -0.1688
 4037TIP3    H233527   5.047   4.356  15.652 -0.9418  3.3500  0.5077
 4038TIP3   OH233528   1.479   1.550  17.067 -0.0525  0.1075 -0.5085
 4038TIP3    H133529   1.410   1.484  17.077  0.4873 -0.2015  1.7820
 4038TIP3    H233530   1.525   1.524  16.987 -1.7552 -0.4398 -1.3713
 4039TIP3   OH233531   3.098   4.963   2.252 -0.0555 -0.2383  0.3225
 4039TIP3    H133532   3.148   4.882   2.263  1.1954  0.5178  0.3651
 4039TIP3    H233533   3.164   5.031   2.245 -0.9855  0.4861 -2.6303
 4040TIP3   OH233534   6.220   5.661   4.457 -0.2027 -0.0290  0.2924
 4040TIP3    H133535   6.295   5.703   4.414  0.0177 -1.7650 -1.1233
 4040TIP3    H233536   6.161   5.637   4.386  0.2886 -3.2167  0.8055
 4041TIP3   OH233537   3.886   4.538   2.486  0.4755  0.4619 -0.4963
 4041TIP3    H133538   3.966   4.493   2.513 -0.1981  0.1394  1.0810
 4041TIP3    H233539   3.895   4.549   2.391  2.5509  0.8034 -0.2995
 4042TIP3   OH233540   1.978   4.654  12.369  0.3231  0.1567  0.1510
 4042TIP3    H133541   1.899   4.706  12.386  0.7595  0.7439  0.4170
 4042TIP3    H233542   1.984   4.651  12.274 -0.6451 -0.8707  0.0940
 4043TIP3   OH233543   2.748   6.090   5.679 -0.8028  0.3435 -0.4617
 4043TIP3    H133544   2.800   6.035   5.738 -0.0706 -0.3242 -1.6886
 4043TIP3    H233545   2.672   6.035   5.656 -1.9911  1.2293  1.1424
 4044TIP3   OH233546   4.949   3.250   4.472 -0.1475  0.2138  0.0292
 4044TIP3    H133547   5.033   3.277   4.436 -0.0063 -0.0853  0.1333
 4044TIP3    H233548   4.971   3.208   4.555 -0.3534 -0.3047 -0.1742
 4045TIP3   OH233549   4.938   2.620  11.276  0.7173 -0.0666  0.5123
 4045TIP3    H133550   4.959   2.648  11.187 -0.1593 -0.1200  0.2752
 4045TIP3    H233551   4.848   2.650  11.290 -0.0039 -2.0564  0.5186
 4046TIP3   OH233552   5.374   0.707  16.351  0.1544  0.1256 -0.0874
 4046TIP3    H133553   5.298   0.731  16.298  0.1819  1.3208  0.3853
 4046TIP3    H233554   5.431   0.783  16.349  0.8096 -0.3295  0.5036
 4047TIP3   OH233555   6.501   3.747  16.680  0.4453  0.7159 -0.0516
 4047TIP3    H133556   6.590   3.721  16.705  0.3125  0.7010  0.4274
 4047TIP3    H233557   6.489   3.832  16.724 -0.3278 -0.0019  1.1552
 4048TIP3   OH233558   2.192   3.617  11.859  0.0563 -0.0453 -0.4425
 4048TIP3    H133559   2.262   3.682  11.863  1.3163 -1.2883 -1.1906
 4048TIP3    H233560   2.123   3.660  11.808  0.8541  0.7191 -0.9229
 4049TIP3   OH233561   2.318   4.253   1.360 -0.5935  0.4126  0.1431
 4049TIP3    H133562   2.356   4.292   1.438 -2.2570  1.6824  0.3696
 4049TIP3    H233563   2.378   4.276   1.289 -1.2859  3.1394  0.3323
 4050TIP3   OH233564   4.817   3.913   4.875  0.8436 -0.2812 -0.0618
 4050TIP3    H133565   4.775   3.999   4.883 -0.4177 -0.8453 -0.3752
 4050TIP3    H233566   4.749   3.856   4.840  1.6259 -1.4504  0.2556
 4051TIP3   OH233567   5.146   6.731   0.860  0.5057  0.2153  0.2794
 4051TIP3    H133568   5.190   6.762   0.939  2.5240 -0.8823 -0.3368
 4051TIP3    H233569   5.143   6.635   0.870 -2.2860  0.2633  0.5112
 4052TIP3   OH233570   3.050   3.991   5.641  0.4039 -0.3650 -0.6969
 4052TIP3    H133571   2.969   4.038   5.658  0.6179 -0.6940  1.5994
 4052TIP3    H233572   3.116   4.060   5.632 -0.1845 -0.0551 -3.4407
 4053TIP3   OH233573   5.243   1.165  16.821 -0.0970  0.0829  0.2097
 4053TIP3    H133574   5.244   1.080  16.866 -2.9527 -0.0863  0.1385
 4053TIP3    H233575   5.191   1.150  16.742  0.6577  1.5628 -0.6134
 4054TIP3   OH233576   5.328   5.088  12.752 -0.2620  0.4143 -0.2442
 4054TIP3    H133577   5.411   5.051  12.782  0.8353  0.3443 -3.0398
 4054TIP3    H233578   5.349   5.177  12.725 -1.6051  1.1350  0.9187
 4055TIP3   OH233579   2.183   4.273  11.884 -0.1470  0.8816 -0.8138
 4055TIP3    H133580   2.179   4.184  11.921  1.2368  1.4001  0.7052
 4055TIP3    H233581   2.091   4.298  11.875 -0.6198  0.4362  1.7802
 4056TIP3   OH233582   4.472   3.038  12.313  0.3758  0.1534  0.4196
 4056TIP3    H133583   4.431   3.021  12.228 -2.1768  1.4659  1.3093
 4056TIP3    H233584   4.546   3.095  12.293  0.4830 -0.4380 -1.0024
 4057TIP3   OH233585   1.477   6.588   2.426  0.0558 -0.0065  0.4023
 4057TIP3    H133586   1.401   6.613   2.478 -0.6720 -1.3735  0.0435
 4057TIP3    H233587   1.440   6.543   2.350  1.1534  0.9483 -0.7400
 4058TIP3   OH233588   4.961   4.346   3.008 -0.1242  0.1923  0.1457
 4058TIP3    H133589   4.933   4.301   2.929  2.5874 -1.7055  0.1309
 4058TIP3    H233590   5.014   4.419   2.977  0.1328  0.0302  0.2007
 4059TIP3   OH233591   6.514   6.526   2.881  0.6634  0.3966  0.3363
 4059TIP3    H133592   6.471   6.599   2.837 -0.5916  0.6483  1.8750
 4059TIP3    H233593   6.446   6.459   2.890  1.7020 -0.8518 -0.7392
 4060TIP3   OH233594   0.978   0.527   4.334  0.0018 -0.0560 -0.6911
 4060TIP3    H133595   0.918   0.555   4.402  0.7897 -0.1622  0.0701
 4060TIP3    H233596   1.013   0.443   4.365 -0.4528 -0.6610 -1.7550
 4061TIP3   OH233597   1.053   5.008  11.059 -0.5304 -0.3765  0.0192
 4061TIP3    H133598   1.049   4.925  11.010  0.8683 -0.9555  0.8068
 4061TIP3    H233599   0.971   5.010  11.108 -1.0255 -0.8018 -0.7563
 4062TIP3   OH233600   5.028   5.347   2.177  0.3861 -0.2675  0.4725
 4062TIP3    H133601   5.120   5.351   2.151  1.0868 -0.8415  2.6124
 4062TIP3    H233602   5.023   5.269   2.234 -1.8425 -1.3337 -1.0370
 4063TIP3   OH233603   1.734   3.969   0.889  0.2578 -0.2487  0.0458
 4063TIP3    H133604   1.779   3.899   0.936 -0.8026 -0.1305  1.2910
 4063TIP3    H233605   1.653   3.929   0.858  0.1724  0.1263 -0.2248
 4064TIP3   OH233606   1.727   1.559  15.387 -0.3085 -0.0501  0.8453
 4064TIP3    H133607   1.772   1.511  15.456 -1.5742 -1.2651  0.8513
 4064TIP3    H233608   1.733   1.651  15.413  0.5714 -0.3546  1.7581
 4065TIP3   OH233609   4.078   5.440   0.752  0.2967  0.2973  0.0028
 4065TIP3    H133610   4.057   5.462   0.843 -0.4406  0.2932 -0.1647
 4065TIP3    H233611   4.170   5.412   0.755  0.2110  0.0814  0.7840
 4066TIP3   OH233612   4.723   4.285  14.666 -0.2765 -0.1804  0.6522
 4066TIP3    H133613   4.632   4.285  14.636 -0.6430 -0.9343  1.7043
 4066TIP3    H233614   4.716   4.285  14.761  0.7720 -2.6452  0.7877
 4067TIP3   OH233615   4.546   5.947   2.917 -0.1624 -0.2664 -1.0318
 4067TIP3    H133616   4.568   6.005   2.844 -0.0382  0.4967 -0.3940
 4067TIP3    H233617   4.587   5.863   2.894  1.2914  0.4197 -1.0626
 4068TIP3   OH233618   2.487   2.114  15.302 -0.7830 -0.2729 -0.2882
 4068TIP3    H133619   2.397   2.149  15.301 -0.3634  0.8467 -1.2035
 4068TIP3    H233620   2.476   2.020  15.313 -2.0376 -0.0784  0.3434
 4069TIP3   OH233621   0.795   2.810  16.789  0.0027  0.1016  0.2479
 4069TIP3    H133622   0.749   2.856  16.859  0.1280  0.0539  0.3630
 4069TIP3    H233623   0.880   2.854  16.784 -0.7255  1.4525 -1.2371
 4070TIP3   OH233624   4.598   3.543  11.518 -0.3248 -1.2574  0.6800
 4070TIP3    H133625   4.657   3.471  11.537  0.1422 -0.7322  1.2383
 4070TIP3    H233626   4.579   3.534  11.424  3.2665  0.4509 -0.4025
 4071TIP3   OH233627   1.455   2.526  15.284 -0.3593  0.2010 -0.4997
 4071TIP3    H133628   1.549   2.516  15.273  0.0674  0.8461  1.9740
 4071TIP3    H233629   1.437   2.616  15.254 -0.1893  0.1075 -0.8897
 4072TIP3   OH233630   0.509   4.581  16.479 -0.1273 -0.0061  0.4481
 4072TIP3    H133631   0.439   4.603  16.417  0.6295  1.2369 -0.0036
 4072TIP3    H233632   0.501   4.645  16.549  0.0558 -0.3731  0.8104
 4073TIP3   OH233633   3.905   1.661   0.184 -0.7873 -0.2182 -0.2552
 4073TIP3    H133634   3.851   1.721   0.133 -1.9917 -0.4176  0.7530
 4073TIP3    H233635   3.949   1.717   0.248 -3.8326 -0.5421  2.3840
 4074TIP3   OH233636   1.113   3.744  16.202  0.2391 -0.0913 -0.0645
 4074TIP3    H133637   1.159   3.663  16.225  1.8699  0.6982 -0.4081
 4074TIP3    H233638   1.139   3.807  16.269  1.7177  1.0613 -1.6246
 4075TIP3   OH233639   1.185   2.284   3.573  0.1109 -0.1686 -0.0999
 4075TIP3    H133640   1.146   2.365   3.539  1.6256  0.2096 -1.0520
 4075TIP3    H233641   1.278   2.303   3.577  0.6267 -2.1548 -1.2158
 4076TIP3   OH233642   0.739   1.113   3.988  0.2380  0.2266 -0.5063
 4076TIP3    H133643   0.828   1.135   4.017 -0.1197  0.4214  0.4868
 4076TIP3    H233644   0.727   1.164   3.908  0.5551  1.2274  0.0572
 4077TIP3   OH233645   1.257   3.360   2.994 -0.1669 -0.4530  0.2269
 4077TIP3    H133646   1.205   3.439   3.011 -0.3036 -1.0430  2.9627
 4077TIP3    H233647   1.199   3.288   3.015  0.5131 -1.2775 -0.6109
 4078TIP3   OH233648   2.743   6.601  12.427 -0.0576  0.6607  0.6218
 4078TIP3    H133649   2.804   6.647  12.485  1.1121  2.1086 -1.6311
 4078TIP3    H233650   2.656   6.626  12.458  0.5488  3.2307  0.4340
 4079TIP3   OH233651   0.186   0.749  15.903 -0.3405 -0.0317 -0.0637
 4079TIP3    H133652   0.241   0.820  15.871 -0.3922  0.9567  1.9148
 4079TIP3    H233653   0.244   0.696  15.957 -0.6424 -0.7141 -0.3919
 4080TIP3   OH233654   4.125   0.192  16.710  0.0358 -0.1335  0.1950
 4080TIP3    H133655   4.180   0.114  16.708  0.1327 -0.0676  0.3151
 4080TIP3    H233656   4.138   0.233  16.624  0.2231 -0.0833  0.2466
 4081TIP3   OH233657   4.819   3.195  16.115 -0.1992  0.2545  0.3392
 4081TIP3    H133658   4.910   3.164  16.120 -0.6093 -1.2400 -0.7061
 4081TIP3    H233659   4.800   3.227  16.204  0.4093 -2.2178  1.4528
 4082TIP3   OH233660   6.385   1.724  10.630  0.1081  0.2423 -0.0212
 4082TIP3    H133661   6.420   1.636  10.644  1.9231  0.8868 -0.2823
 4082TIP3    H233662   6.328   1.715  10.553  0.9093 -0.5461 -0.5385
 4083TIP3   OH233663   1.862   6.389  16.278 -0.1565 -0.0046 -0.6173
 4083TIP3    H133664   1.817   6.432  16.205  0.0392  1.3003 -0.0091
 4083TIP3    H233665   1.954   6.411  16.265 -0.0465 -0.2815 -0.3172
 4084TIP3   OH233666   4.232   2.196  14.089  0.4232  0.5476 -0.8198
 4084TIP3    H133667   4.142   2.221  14.106  0.7397  1.2467 -0.1175
 4084TIP3    H233668   4.240   2.196  13.993 -0.5310 -0.3327 -0.9131
 4085TIP3   OH233669   5.350   1.228  15.853 -0.0166  0.1730 -0.6360
 4085TIP3    H133670   5.285   1.296  15.836  0.4001  0.4722 -1.0332
 4085TIP3    H233671   5.334   1.162  15.785 -1.0025 -0.5661  0.2761
 4086TIP3   OH233672   6.799   2.215  14.769  0.3239 -0.9650 -0.4218
 4086TIP3    H133673   6.788   2.246  14.679 -0.9747 -2.2971 -0.7683
 4086TIP3    H233674   6.734   2.146  14.778 -0.9823  0.4469  2.1711
 4087TIP3   OH233675   0.334   4.290   1.570  0.3989  0.0183  0.2264
 4087TIP3    H133676   0.302   4.240   1.645  1.6211  0.2473  0.9224
 4087TIP3    H233677   0.379   4.365   1.608  0.7748  0.3087 -0.7511
 4088TIP3   OH233678   4.007   5.722   4.961 -1.0711  0.3236 -0.2744
 4088TIP3    H133679   3.987   5.689   4.873 -1.6882 -1.4026  0.4631
 4088TIP3    H233680   4.093   5.762   4.953 -0.1023 -1.8123 -1.2003
 4089TIP3   OH233681   6.523   3.782  11.462  0.0951  0.4450 -0.0380
 4089TIP3    H133682   6.598   3.762  11.518  0.5792 -1.1987 -1.2017
 4089TIP3    H233683   6.523   3.878  11.456  0.4412  0.6262  2.1480
 4090TIP3   OH233684   2.426   0.915   2.206  0.6788 -0.0688  0.6538
 4090TIP3    H133685   2.402   0.824   2.224 -4.4487  0.7332 -0.4774
 4090TIP3    H233686   2.422   0.958   2.292 -0.8969 -0.3055  0.7369
 4091TIP3   OH233687   4.752   3.162   3.339 -0.2226 -0.4248 -0.1566
 4091TIP3    H133688   4.767   3.255   3.319 -1.7243 -0.0833  0.1953
 4091TIP3    H233689   4.664   3.160   3.376  0.2705 -1.8301  0.9994
 4092TIP3   OH233690   6.631   3.065  16.018 -0.0179  0.0151  0.2872
 4092TIP3    H133691   6.711   3.063  15.966 -0.1193  0.7274  0.0883
 4092TIP3    H233692   6.655   3.027  16.102  0.0081 -1.7288 -0.4541
 4093TIP3   OH233693   0.705   0.396   4.108 -0.1439  0.4689  0.4606
 4093TIP3    H133694   0.637   0.460   4.128  0.8018  1.7388 -0.1721
 4093TIP3    H233695   0.733   0.418   4.018 -1.1190 -2.0915 -0.5564
 4094TIP3   OH233696   6.208   1.477  13.070  0.0301  0.6083  0.0651
 4094TIP3    H133697   6.132   1.535  13.069  0.0350  0.6176  0.1724
 4094TIP3    H233698   6.190   1.412  13.002 -1.1469 -0.7617  1.5972
 4095TIP3   OH233699   2.218   4.293  13.250 -0.3141 -0.2025  0.1852
 4095TIP3    H133700   2.164   4.356  13.202 -1.3058  0.2850  1.8566
 4095TIP3    H233701   2.308   4.312  13.221 -0.7833  0.6406 -0.7999
 4096TIP3   OH233702   4.302   3.972   1.557 -0.1165  0.0020  0.3351
 4096TIP3    H133703   4.208   3.957   1.547 -0.2813  0.1872  1.4986
 4096TIP3    H233704   4.317   4.059   1.521 -0.2431 -0.3242 -0.5512
 4097TIP3   OH233705   6.066   1.400  15.003 -0.2857 -0.1491 -0.0202
 4097TIP3    H133706   6.061   1.495  15.016 -0.6794 -0.1885  0.1453
 4097TIP3    H233707   6.078   1.389  14.909  2.7167  0.1487  0.2229
 4098TIP3   OH233708   4.416   0.072   0.403 -0.0494 -0.4852 -0.8895
 4098TIP3    H133709   4.363   0.151   0.412 -0.8397 -1.1542  0.6555
 4098TIP3    H233710   4.497   0.092   0.450  0.9202  0.3259 -2.7658
 4099TIP3   OH233711   2.416   3.459   2.668  0.1145  0.0794 -0.2000
 4099TIP3    H133712   2.399   3.435   2.759  1.5802 -0.2646  0.0165
 4099TIP3    H233713   2.352   3.410   2.617 -0.5154  0.0346  0.6300
 4100TIP3   OH233714   5.609   0.549   5.762 -0.7070 -0.1956  0.1752
 4100TIP3    H133715   5.653   0.552   5.847 -0.7711  0.6249  0.1913
 4100TIP3    H233716   5.602   0.456   5.741  1.1992 -0.3755  0.1043
 4101TIP3   OH233717   0.182   4.425   3.704  0.1103 -0.3573  0.2230
 4101TIP3    H133718   0.241   4.479   3.756 -1.3566  0.1631  1.3901
 4101TIP3    H233719   0.107   4.482   3.685  0.3266 -0.7138 -1.9911
 4102TIP3   OH233720   3.692   4.454  12.548 -0.0874  0.3694 -0.2232
 4102TIP3    H133721   3.676   4.548  12.543  0.7543  0.4837 -3.7611
 4102TIP3    H233722   3.787   4.446  12.555 -0.2285 -0.2810  1.4093
 4103TIP3   OH233723   6.177   3.185   2.900  0.0438 -0.2383  0.2229
 4103TIP3    H133724   6.172   3.180   2.996  1.6325 -1.0676  0.3082
 4103TIP3    H233725   6.193   3.278   2.882 -1.5687  0.1481  0.6524
 4104TIP3   OH233726   4.721   2.849   0.080  0.3874 -0.0455 -0.8925
 4104TIP3    H133727   4.804   2.895   0.070 -0.7626  2.2353 -0.6371
 4104TIP3    H233728   4.706   2.808  -0.005  0.4475  1.9376 -1.9258
 4105TIP3   OH233729   5.050   3.889  11.131 -0.8071  0.0357 -0.0147
 4105TIP3    H133730   5.079   3.931  11.212 -0.9453  0.5936 -0.2487
 4105TIP3    H233731   5.037   3.797  11.155  1.9780 -0.4784 -0.0801
 4106TIP3   OH233732   2.793   2.541  15.276 -0.1197 -0.0503  0.1087
 4106TIP3    H133733   2.734   2.612  15.251 -1.7003 -0.8947  1.3345
 4106TIP3    H233734   2.807   2.492  15.194  0.5144  1.2721 -0.6150
 4107TIP3   OH233735   5.443   6.005   5.440 -0.3991 -0.5311  0.1422
 4107TIP3    H133736   5.423   6.073   5.504  1.8269  0.4779 -0.1378
 4107TIP3    H233737   5.465   6.052   5.360  1.7708 -1.4466  0.1125
 4108TIP3   OH233738   6.477   6.627   1.116 -0.1045 -0.2519 -0.2387
 4108TIP3    H133739   6.420   6.570   1.064  0.6949 -1.6421  0.3701
 4108TIP3    H233740   6.463   6.599   1.206  3.5970 -2.6521 -0.2200
 4109TIP3   OH233741   0.844   3.063  10.707  0.1404  0.4398 -0.0167
 4109TIP3    H133742   0.797   3.057  10.790 -2.5125 -0.4680 -1.4720
 4109TIP3    H233743   0.909   2.993  10.712  0.2076  0.5738  1.3913
 4110TIP3   OH233744   2.255   3.609  15.373 -0.3433 -0.3364 -0.3714
 4110TIP3    H133745   2.202   3.529  15.378 -1.4100  0.2291 -2.0260
 4110TIP3    H233746   2.197   3.679  15.403 -0.2391  0.1704 -1.3275
 4111TIP3   OH233747   6.735   1.754   4.852  0.6759 -0.1164  0.6404
 4111TIP3    H133748   6.817   1.782   4.894 -0.8588  0.8115  3.2018
 4111TIP3    H233749   6.708   1.829   4.799  1.2414 -0.2964  0.0715
 4112TIP3   OH233750   3.684   5.210   5.669  0.4500  0.6486  0.0397
 4112TIP3    H133751   3.650   5.125   5.696 -0.6583  0.4817 -1.7065
 4112TIP3    H233752   3.628   5.273   5.714 -1.2250  0.3762 -1.4919
 4113TIP3   OH233753   0.004   1.543  11.693  0.2885  0.1662 -0.0156
 4113TIP3    H133754  -0.017   1.516  11.783  2.5352 -0.1031  0.4884
 4113TIP3    H233755  -0.046   1.484  11.637 -0.1227 -0.5349  1.0611
 4114TIP3   OH233756   0.587   0.421   0.668 -0.4718  0.2615  0.4095
 4114TIP3    H133757   0.571   0.439   0.576 -0.1001  1.5829  0.5904
 4114TIP3    H233758   0.670   0.464   0.687 -0.9075  0.6349  1.5363
 4115TIP3   OH233759   3.697   4.501   5.649  0.0505 -0.2918 -0.4421
 4115TIP3    H133760   3.755   4.544   5.586  0.7413 -1.5417 -0.6986
 4115TIP3    H233761   3.629   4.461   5.595  0.5058 -1.1549 -0.3942
 4116TIP3   OH233762   1.884   0.771   0.807  0.1243  0.1447  0.1574
 4116TIP3    H133763   1.970   0.768   0.765  0.0646  1.1091 -0.0682
 4116TIP3    H233764   1.867   0.681   0.835  1.1377 -0.0844  0.0680
 4117TIP3   OH233765   3.285   6.375   6.128 -0.5494  1.0005 -0.0457
 4117TIP3    H133766   3.254   6.383   6.037 -1.6595  0.0196  0.2219
 4117TIP3    H233767   3.313   6.464   6.151 -0.4974  1.3204 -1.2596
 4118TIP3   OH233768   6.382   6.621  12.116 -0.1534 -0.5015 -0.0155
 4118TIP3    H133769   6.357   6.552  12.178 -1.3517 -0.8650 -0.8570
 4118TIP3    H233770   6.443   6.578  12.056 -0.3364 -0.6296 -0.1112
 4119TIP3   OH233771   1.766   3.370   1.694  0.1123  0.4721 -0.1405
 4119TIP3    H133772   1.781   3.276   1.701 -1.1447  0.2221 -0.4918
 4119TIP3    H233773   1.763   3.401   1.784  0.6860  0.2063 -0.0262
 4120TIP3   OH233774   6.002   5.789  12.067 -0.0391 -0.0290  0.0842
 4120TIP3    H133775   6.079   5.732  12.062 -0.0772 -0.0907  0.1947
 4120TIP3    H233776   5.970   5.779  12.157 -2.3747 -2.9399 -0.8694
 4121TIP3   OH233777   0.769   0.131  12.495  0.2167  0.2469  0.1921
 4121TIP3    H133778   0.803   0.127  12.584  0.4105  3.1115  0.3473
 4121TIP3    H233779   0.837   0.175  12.445 -0.4473 -0.1095 -1.0779
 4122TIP3   OH233780   5.112   5.489  12.228 -0.0889  0.2939  0.0148
 4122TIP3    H133781   5.102   5.420  12.162  2.4096 -0.7908  0.6588
 4122TIP3    H233782   5.101   5.444  12.311  1.0088  0.7669  0.4272
 4123TIP3   OH233783   3.956   4.750  12.425  0.9095  0.3043  0.0169
 4123TIP3    H133784   4.010   4.673  12.442  1.4591  0.2419 -1.7961
 4123TIP3    H233785   3.999   4.821  12.473  0.2990 -0.5094  1.8490
 4124TIP3   OH233786   1.908   6.154  15.595  0.6306  0.0328 -0.0041
 4124TIP3    H133787   2.002   6.158  15.580  0.4415  0.2589 -1.2787
 4124TIP3    H233788   1.872   6.122  15.512 -0.2995 -1.4240  0.9254
 4125TIP3   OH233789   3.779   1.634  10.532 -0.4775  0.3944 -0.4015
 4125TIP3    H133790   3.835   1.711  10.523 -0.5215  0.5925  0.7788
 4125TIP3    H233791   3.691   1.667  10.515 -0.9475  1.4294  3.2369
 4126TIP3   OH233792   2.218   0.448  13.090 -0.1542 -0.2679  0.7327
 4126TIP3    H133793   2.169   0.369  13.111  0.7820 -0.3815  2.7089
 4126TIP3    H233794   2.159   0.499  13.034 -0.8999 -2.1855 -0.3024
 4127TIP3   OH233795   3.820   6.575   3.649 -0.0694  0.6932  0.0825
 4127TIP3    H133796   3.857   6.583   3.561  1.4825 -1.1176  0.5006
 4127TIP3    H233797   3.834   6.661   3.689 -1.1168  1.6586 -1.5091
 4128TIP3   OH233798   5.273   1.026  14.527 -0.5990 -0.1243 -0.4937
 4128TIP3    H133799   5.188   1.034  14.484 -1.1153  0.6647  0.6386
 4128TIP3    H233800   5.295   1.115  14.554  1.5991  0.0839 -2.5786
 4129TIP3   OH233801   3.605   2.748   0.176  0.9065 -0.1597  0.5866
 4129TIP3    H133802   3.649   2.809   0.117 -0.7511  0.0234 -0.5559
 4129TIP3    H233803   3.513   2.776   0.174 -0.2405 -3.5298 -1.1777
 4130TIP3   OH233804   6.703   5.078  16.503  0.1962 -0.2948 -0.1202
 4130TIP3    H133805   6.695   4.986  16.478  0.5574 -0.3016 -0.2187
 4130TIP3    H233806   6.614   5.114  16.493  0.1575 -0.5081 -0.5777
 4131TIP3   OH233807   0.799   3.928   4.884 -0.4438  0.5200  0.4935
 4131TIP3    H133808   0.889   3.934   4.851  0.5513  0.3107  2.9272
 4131TIP3    H233809   0.805   3.956   4.975 -2.8062  0.1459  0.8344
 4132TIP3   OH233810   0.448   5.728  11.944 -1.2968 -0.6928 -0.5628
 4132TIP3    H133811   0.371   5.785  11.945  0.0450  1.3018 -2.0583
 4132TIP3    H233812   0.464   5.712  11.851  0.3988 -0.5463 -0.3302
 4133TIP3   OH233813   6.763   0.808   5.666 -0.5073  0.0436 -0.5506
 4133TIP3    H133814   6.679   0.833   5.629 -0.7503 -0.8066 -0.5941
 4133TIP3    H233815   6.824   0.873   5.633 -1.4591  1.8368  1.0388
 4134TIP3   OH233816   1.105   4.856   1.017  0.2239 -0.3801  0.3421
 4134TIP3    H133817   1.184   4.908   1.023 -0.1055  0.0321  1.2211
 4134TIP3    H233818   1.033   4.919   1.015 -0.1210 -0.7621  0.3033
 4135TIP3   OH233819   5.526   0.547   4.643  0.4840 -0.1583  0.0750
 4135TIP3    H133820   5.561   0.618   4.696  0.4991 -1.5332  2.0276
 4135TIP3    H233821   5.559   0.467   4.686 -0.3837 -1.3645 -1.4018
 4136TIP3   OH233822   2.677   2.721   2.826  0.4688  0.3812 -0.0826
 4136TIP3    H133823   2.764   2.760   2.838  0.8498 -0.0393 -1.3859
 4136TIP3    H233824   2.667   2.661   2.899  0.9542  0.9836  0.4933
 4137TIP3   OH233825   5.432   4.872  15.770 -0.1869  0.7373 -0.0371
 4137TIP3    H133826   5.380   4.827  15.703  0.4173  1.2739 -0.8734
 4137TIP3    H233827   5.418   4.819  15.849 -2.2394  1.0249 -0.1480
 4138TIP3   OH233828   5.637   4.532   4.494 -0.2619  0.1812 -0.2226
 4138TIP3    H133829   5.689   4.511   4.572  0.6413 -1.6057 -1.2291
 4138TIP3    H233830   5.687   4.494   4.422 -1.0195  1.8726 -1.7039
 4139TIP3   OH233831   5.624   3.853  12.204  0.1322  0.8380  0.3852
 4139TIP3    H133832   5.586   3.840  12.291 -0.9622  0.9539 -0.0678
 4139TIP3    H233833   5.643   3.947  12.201 -3.8097  1.7675 -1.0195
 4140TIP3   OH233834   6.234   5.070   1.768 -0.3070  0.3040 -0.4120
 4140TIP3    H133835   6.166   5.129   1.735  0.2744 -0.4146 -3.1276
 4140TIP3    H233836   6.186   4.991   1.793 -0.6250  0.2749 -1.0846
 4141TIP3   OH233837   6.387   1.150  11.000 -0.0194 -0.4816 -0.3081
 4141TIP3    H133838   6.464   1.199  11.030  0.6335 -0.0484 -2.4880
 4141TIP3    H233839   6.419   1.060  10.992 -0.5350 -0.8481  1.3336
 4142TIP3   OH233840   5.053   6.538  11.945 -0.0920 -0.7024  0.3109
 4142TIP3    H133841   5.099   6.457  11.967  0.6531  0.2361  2.4527
 4142TIP3    H233842   4.970   6.531  11.994 -0.4639 -0.6080 -0.3028
 4143TIP3   OH233843   1.252   3.518   2.070 -0.1475  0.6298  0.3260
 4143TIP3    H133844   1.176   3.516   2.013 -0.8295  0.7628  1.2029
 4143TIP3    H233845   1.228   3.580   2.139  1.3376  1.8232 -0.1744
 4144TIP3   OH233846   1.355   2.881   0.391  0.1160 -0.4199 -0.2641
 4144TIP3    H133847   1.328   2.829   0.466  1.7202 -1.1433 -0.1496
 4144TIP3    H233848   1.439   2.919   0.417  0.6515 -0.6023 -1.6452
 4145TIP3   OH233849   0.383   5.073  10.577  0.3429 -0.7306  0.0850
 4145TIP3    H133850   0.418   5.050  10.664 -1.1926  0.3379  1.0431
 4145TIP3    H233851   0.418   5.161  10.560 -0.8197 -0.1595  0.5069
 4146TIP3   OH233852   5.268   1.141   5.094  0.3773 -0.2842  0.3272
 4146TIP3    H133853   5.272   1.199   5.169 -0.3438  0.4986 -0.2183
 4146TIP3    H233854   5.306   1.191   5.022  0.6313 -0.8468  0.0558
 4147TIP3   OH233855   2.665   5.174  14.076  0.0974 -0.5515  0.7419
 4147TIP3    H133856   2.693   5.254  14.120 -0.2322 -0.5769  1.0057
 4147TIP3    H233857   2.699   5.104  14.131 -2.0815 -0.5987  2.1804
 4148TIP3   OH233858   1.455   0.691   5.907  0.6593  0.0221 -0.2360
 4148TIP3    H133859   1.396   0.722   5.839  0.4530  0.0111 -0.0666
 4148TIP3    H233860   1.541   0.686   5.866  0.7515  1.0855 -0.1882
 4149TIP3   OH233861   4.137   2.062   5.826 -0.0575 -0.0812  0.5327
 4149TIP3    H133862   4.138   2.158   5.829  0.3776 -0.0480 -0.3836
 4149TIP3    H233863   4.212   2.039   5.771 -1.2719 -0.8685 -0.8561
 4150TIP3   OH233864   1.935   0.004   1.136 -0.2825  0.3117  0.0615
 4150TIP3    H133865   1.996   0.062   1.180  0.1995  1.7103 -2.2426
 4150TIP3    H233866   1.980  -0.020   1.054 -1.7678 -0.7509 -0.4901
 4151TIP3   OH233867   1.889   1.173  13.297  0.0876 -0.0152  0.3431
 4151TIP3    H133868   1.956   1.195  13.362  0.3108  1.5433 -0.3602
 4151TIP3    H233869   1.933   1.186  13.212 -0.4010 -1.3426 -0.1378
 4152TIP3   OH233870   3.098   0.321  17.005 -0.0066  0.2523  0.1088
 4152TIP3    H133871   3.026   0.332  17.066  1.1850 -1.7654  2.0161
 4152TIP3    H233872   3.056   0.288  16.925 -1.1105 -2.6183  1.7468
 4153TIP3   OH233873   5.363   0.899   1.427 -0.1672  0.1001 -0.2879
 4153TIP3    H133874   5.381   0.841   1.502 -0.0055  2.4808  1.6500
 4153TIP3    H233875   5.446   0.944   1.412 -1.0471  2.0190  0.3276
 4154TIP3   OH233876   5.429   3.715   4.033 -0.3976  0.0512  0.0614
 4154TIP3    H133877   5.354   3.717   3.974  0.0035 -0.9630 -0.5036
 4154TIP3    H233878   5.496   3.667   3.985 -0.0402 -0.7380  1.3125
 4155TIP3   OH233879   4.174   1.429  14.152  0.2770 -0.7081  0.7620
 4155TIP3    H133880   4.097   1.377  14.173  0.1536 -1.0190 -0.4209
 4155TIP3    H233881   4.243   1.392  14.208 -0.7238  0.5913  3.0186
 4156TIP3   OH233882   1.831   5.613   0.826 -0.1965  0.1803 -0.5933
 4156TIP3    H133883   1.797   5.703   0.824 -0.4106  0.1209  0.2528
 4156TIP3    H233884   1.900   5.615   0.892  0.9824  0.1228 -1.7671
 4157TIP3   OH233885   0.998   2.818  17.024  0.2868  0.3976  0.1850
 4157TIP3    H133886   0.978   2.880  17.095  1.1050  0.6917  0.1700
 4157TIP3    H233887   1.093   2.817  17.019  0.2975 -0.9747  0.2700
 4158TIP3   OH233888   3.111   4.890   5.636  0.8220  0.6252 -0.0555
 4158TIP3    H133889   3.073   4.802   5.637  0.4025  0.7938  1.4284
 4158TIP3    H233890   3.095   4.923   5.724  1.0226  2.1750 -0.5827
 4159TIP3   OH233891   3.336   5.383   3.152 -0.3952 -0.4725  0.0556
 4159TIP3    H133892   3.242   5.374   3.133 -0.1633 -2.3589 -0.3065
 4159TIP3    H233893   3.372   5.429   3.076 -1.3478  2.5144  1.2308
 4160TIP3   OH233894   1.635   5.070  13.006 -0.1670  0.1753  0.3354
 4160TIP3    H133895   1.550   5.103  12.977  1.1225  2.3154 -1.3026
 4160TIP3    H233896   1.615   5.016  13.082 -2.9511  0.7383  0.1098
 4161TIP3   OH233897   1.728   6.476   4.989 -0.0886 -0.3774 -0.1186
 4161TIP3    H133898   1.705   6.561   4.950  0.4884 -0.9511 -1.7770
 4161TIP3    H233899   1.816   6.489   5.025 -0.4537  0.0281  0.6765
 4162TIP3   OH233900   4.710   6.637  12.923 -0.3467 -0.3292 -0.1010
 4162TIP3    H133901   4.627   6.679  12.900 -0.0208 -0.3508 -1.3753
 4162TIP3    H233902   4.692   6.543  12.915 -0.3746 -0.3540  0.2500
 4163TIP3   OH233903   0.300   2.529  11.423  0.1768 -0.8646 -0.6790
 4163TIP3    H133904   0.212   2.566  11.437  0.2138 -1.5987  2.3101
 4163TIP3    H233905   0.354   2.604  11.400 -0.9894 -0.2027 -1.3743
 4164TIP3   OH233906   1.361   3.995  15.709 -0.6160 -0.3738 -0.7488
 4164TIP3    H133907   1.276   3.978  15.748 -0.1980 -0.5522  0.1098
 4164TIP3    H233908   1.410   4.040  15.777  0.2778 -1.0808 -0.9036
 4165TIP3   OH233909   0.199   0.119   0.500  0.5553 -0.6346  0.2980
 4165TIP3    H133910   0.269   0.164   0.547  1.5649 -2.2937  0.4755
 4165TIP3    H233911   0.235   0.103   0.413 -0.3712  0.2432 -0.2568
 4166TIP3   OH233912   5.083   0.221   5.180 -0.1574  0.0925  0.2996
 4166TIP3    H133913   5.005   0.167   5.185 -0.2158  0.1606  0.1390
 4166TIP3    H233914   5.090   0.263   5.265  0.2010 -0.5985  0.6201
 4167TIP3   OH233915   0.414   1.564  16.455 -0.1295  0.1891 -0.1621
 4167TIP3    H133916   0.385   1.481  16.493 -1.1403  0.6942  0.2312
 4167TIP3    H233917   0.379   1.631  16.515  3.2023  0.8592  1.2588
 4168TIP3   OH233918   2.987   4.360  14.511  1.0662 -0.4824 -0.4331
 4168TIP3    H133919   2.966   4.325  14.598 -0.6113  3.1891  0.8609
 4168TIP3    H233920   3.076   4.393  14.520  0.9620 -0.2723 -0.1363
 4169TIP3   OH233921   4.086   1.498   1.301  0.1912  0.1433 -0.0577
 4169TIP3    H133922   4.136   1.438   1.358 -0.2102 -0.4450 -0.3113
 4169TIP3    H233923   4.009   1.520   1.353  0.2166  0.2440 -0.0635
 4170TIP3   OH233924   1.707   0.812   0.205 -0.3760  0.1626  0.1704
 4170TIP3    H133925   1.707   0.790   0.298 -0.8501 -1.7349 -0.2351
 4170TIP3    H233926   1.620   0.787   0.174 -0.3074  0.9895 -0.7390
 4171TIP3   OH233927   4.744   1.523   3.301 -0.2258 -0.1215 -0.1951
 4171TIP3    H133928   4.678   1.482   3.358  1.5824 -1.4119  1.0745
 4171TIP3    H233929   4.787   1.449   3.259 -1.1316  0.7861 -2.9132
 4172TIP3   OH233930   0.630   5.701   4.736  0.1316  0.3630  0.3040
 4172TIP3    H133931   0.580   5.781   4.719  1.1016  1.0505  0.6305
 4172TIP3    H233932   0.584   5.633   4.686  0.2984  1.4523 -1.3886
 4173TIP3   OH233933   2.854   5.699   1.572 -0.1416  0.4183  0.2903
 4173TIP3    H133934   2.787   5.763   1.596 -1.1075  0.4635 -2.1686
 4173TIP3    H233935   2.807   5.634   1.520  1.5156 -0.1857 -0.5233
 4174TIP3   OH233936   4.690   5.421  13.607 -0.1529  0.3783  0.5713
 4174TIP3    H133937   4.659   5.417  13.516 -0.6067 -0.2888  0.7522
 4174TIP3    H233938   4.786   5.420  13.599 -0.1913 -0.5086  0.1342
 4175TIP3   OH233939   1.666   3.959  12.134  0.3748 -0.8192 -0.0767
 4175TIP3    H133940   1.628   3.955  12.222  1.4412  0.3244  0.4654
 4175TIP3    H233941   1.609   3.904  12.081 -0.5572 -1.1653  1.2313
 4176TIP3   OH233942   2.596   3.010   4.603  0.2333  0.2437  0.5890
 4176TIP3    H133943   2.682   2.971   4.588  1.0564  2.7483 -1.9714
 4176TIP3    H233944   2.613   3.089   4.654 -0.9930 -0.7201  2.6411
 4177TIP3   OH233945   6.742   0.816   1.801 -0.2158 -0.0291  0.5393
 4177TIP3    H133946   6.822   0.765   1.787  0.1166  0.4388  0.7353
 4177TIP3    H233947   6.750   0.892   1.743 -1.0810 -0.5899 -0.3619
 4178TIP3   OH233948   5.584   3.300  11.788 -0.0440 -0.1653  0.2530
 4178TIP3    H133949   5.523   3.366  11.757 -1.8350 -1.5962  0.5802
 4178TIP3    H233950   5.653   3.350  11.832  0.6229  1.6821 -2.6209
 4179TIP3   OH233951   5.399   4.804  15.371 -0.1798  0.2028 -0.1072
 4179TIP3    H133952   5.460   4.852  15.314  1.8714 -2.0178  0.0568
 4179TIP3    H233953   5.456   4.750  15.426 -2.2961 -2.1495 -0.0673
 4180TIP3   OH233954   5.660   1.004   6.467 -0.1219 -0.0433  0.3823
 4180TIP3    H133955   5.695   1.092   6.453 -0.7499  0.2195  0.3872
 4180TIP3    H233956   5.736   0.947   6.466  0.4127  0.6241  1.4454
 4181TIP3   OH233957   0.517   4.485   0.176  0.3736 -0.2128  0.1868
 4181TIP3    H133958   0.483   4.568   0.210  1.1792 -1.0359  3.3695
 4181TIP3    H233959   0.449   4.420   0.199  0.0181 -0.5740 -1.7330
 4182TIP3   OH233960   4.120   0.533  10.404  0.2503 -0.1412  0.3309
 4182TIP3    H133961   4.072   0.616  10.411  0.2182 -0.0981 -0.2909
 4182TIP3    H233962   4.211   0.559  10.392  0.2210 -0.1920 -0.0072
 4183TIP3   OH233963   4.978   3.370  12.644 -0.3580 -0.3906 -1.0590
 4183TIP3    H133964   5.064   3.413  12.633  0.7804 -1.1051  3.2974
 4183TIP3    H233965   4.916   3.433  12.608  1.7976  1.3048 -2.0741
 4184TIP3   OH233966   0.145   0.379  15.951 -0.0588 -0.9248  0.1433
 4184TIP3    H133967   0.097   0.393  16.032  0.3818  0.5634  0.1836
 4184TIP3    H233968   0.079   0.348  15.888 -0.4557 -1.7922  0.9645
 4185TIP3   OH233969   0.100   4.327   3.401 -0.0006 -0.4639 -0.1593
 4185TIP3    H133970   0.084   4.420   3.415  0.6081 -0.2357 -0.9246
 4185TIP3    H233971   0.022   4.296   3.355  1.7606  0.7851 -4.4888
 4186TIP3   OH233972   2.290   6.234  13.310 -0.2141  0.0828 -0.0353
 4186TIP3    H133973   2.299   6.204  13.400 -3.7758  2.1534  1.2614
 4186TIP3    H233974   2.246   6.162  13.264  2.2342 -1.2572 -0.4394
 4187TIP3   OH233975   1.423   5.065   3.383  0.5032  0.2547  0.1841
 4187TIP3    H133976   1.413   4.981   3.428 -2.0307  0.2293 -0.3103
 4187TIP3    H233977   1.443   5.127   3.453 -0.3247 -0.3061  0.9374
 4188TIP3   OH233978   0.333   6.458  10.735  0.0865 -0.1296 -0.1927
 4188TIP3    H133979   0.388   6.399  10.682  1.5993  0.9578  0.0933
 4188TIP3    H233980   0.360   6.545  10.708 -2.3798  0.4881 -0.8716
 4189TIP3   OH233981   1.495   5.502   4.297 -0.2461 -0.6720  0.1595
 4189TIP3    H133982   1.534   5.584   4.327 -0.0616 -0.8799  0.4845
 4189TIP3    H233983   1.409   5.500   4.338 -0.1977 -0.7075  0.2584
 4190TIP3   OH233984   5.822   0.866  16.078  0.2546 -0.3784 -0.2951
 4190TIP3    H133985   5.914   0.892  16.072  0.2601 -0.2859  0.1626
 4190TIP3    H233986   5.786   0.922  16.146 -0.6687  1.0702 -1.8907
 4191TIP3   OH233987   5.774   6.454   4.790 -0.2634  0.4690 -0.3158
 4191TIP3    H133988   5.714   6.449   4.716  0.7162 -0.1886 -1.0979
 4191TIP3    H233989   5.846   6.395   4.767 -0.3804 -0.5197  1.5869
 4192TIP3   OH233990   3.465   2.012   4.491  0.5436  0.2159 -0.1027
 4192TIP3    H133991   3.458   2.088   4.434 -0.6280  0.1864 -0.0131
 4192TIP3    H233992   3.404   2.029   4.563 -0.0296 -0.9670 -0.2717
 4193TIP3   OH233993   2.800   0.104   4.003  0.7348 -0.2218  0.2433
 4193TIP3    H133994   2.837   0.119   4.090  1.1121  1.2691 -0.1371
 4193TIP3    H233995   2.875   0.105   3.944  0.4655 -1.0568 -0.1239
 4194TIP3   OH233996   6.119   2.120   5.894 -0.2678 -0.0553 -0.9687
 4194TIP3    H133997   6.170   2.040   5.907 -0.8790 -0.1155  1.7539
 4194TIP3    H233998   6.150   2.179   5.963 -2.5625  0.5456 -0.3632
 4195TIP3   OH233999   4.987   0.139  10.524  0.0353  0.2318  0.3152
 4195TIP3    H134000   5.050   0.202  10.490  1.8290 -0.5860  1.9510
 4195TIP3    H234001   4.973   0.077  10.452  2.2846 -0.4152  0.3706
 4196TIP3   OH234002   5.184   4.680   1.260 -0.4382  0.7375  0.0690
 4196TIP3    H134003   5.183   4.586   1.240 -0.8988  1.0527 -1.5348
 4196TIP3    H234004   5.102   4.713   1.223 -0.3019  1.7653  0.6484
 4197TIP3   OH234005   4.999   4.490  12.354 -0.2357 -0.1310  0.2473
 4197TIP3    H134006   4.917   4.472  12.400 -0.3460 -0.2368  0.0087
 4197TIP3    H234007   5.064   4.498  12.424 -0.6857  1.3065  0.5450
 4198TIP3   OH234008   4.958   2.406   1.612  0.0318  0.0938  0.1655
 4198TIP3    H134009   4.880   2.444   1.572  1.0995 -0.4933 -2.7062
 4198TIP3    H234010   4.938   2.313   1.620  0.5521 -0.1315 -0.9851
 4199TIP3   OH234011   0.029   6.124   0.957 -0.2832 -0.1705 -0.1535
 4199TIP3    H134012   0.110   6.083   0.927  0.0542  0.2704  0.1455
 4199TIP3    H234013   0.013   6.086   1.043  0.4554  0.8891  0.4696
 4200TIP3   OH234014   3.763   4.847   1.590 -0.7903  0.1303  0.2418
 4200TIP3    H134015   3.684   4.793   1.590  0.3617 -1.6423  0.6205
 4200TIP3    H234016   3.731   4.937   1.591 -2.7904 -0.5385  0.1262
 4201TIP3   OH234017   5.164   1.881  11.217  0.1253  0.2307 -0.5131
 4201TIP3    H134018   5.092   1.938  11.191 -1.1824 -0.8410  0.6411
 4201TIP3    H234019   5.235   1.941  11.240 -1.2834  1.4455  0.9369
 4202TIP3   OH234020   2.569   0.357   5.137 -0.7045  0.5683  0.0669
 4202TIP3    H134021   2.530   0.278   5.099  1.2549 -0.0919 -0.6902
 4202TIP3    H234022   2.536   0.359   5.226 -0.5503 -1.3156  0.2092
 4203TIP3   OH234023   0.878   5.120   3.320  0.1012 -0.3809 -0.3642
 4203TIP3    H134024   0.848   5.202   3.281  0.6734  0.4837  0.8945
 4203TIP3    H234025   0.896   5.143   3.412  1.3727 -1.6310 -0.2539
 4204TIP3   OH234026   4.516   0.885  15.932 -0.3855  0.2059  0.3387
 4204TIP3    H134027   4.510   0.836  15.850 -0.7660  2.2501 -0.9515
 4204TIP3    H234028   4.593   0.941  15.921 -1.5851  1.9865  0.4430
 4205TIP3   OH234029   5.757   2.312  16.499 -0.2225  0.1403 -0.0552
 4205TIP3    H134030   5.834   2.259  16.475 -0.3600 -0.7513  1.3811
 4205TIP3    H234031   5.788   2.403  16.493  0.5567 -0.1599 -0.7663
 4206TIP3   OH234032   2.344   1.395  15.384  1.0183 -0.1198  0.3254
 4206TIP3    H134033   2.259   1.434  15.366  0.6070 -1.5448 -1.0468
 4206TIP3    H234034   2.355   1.403  15.478 -0.2530  0.8399  0.4119
 4207TIP3   OH234035   3.269   6.332  14.396 -0.3437  0.1182 -0.5535
 4207TIP3    H134036   3.183   6.310  14.361 -0.6482  0.6901 -0.1894
 4207TIP3    H234037   3.279   6.274  14.472 -1.1893  1.2567  0.4673
 4208TIP3   OH234038   1.819   4.120   2.445 -0.4885 -0.4114 -0.3980
 4208TIP3    H134039   1.742   4.134   2.391  0.5321 -0.5172 -1.9362
 4208TIP3    H234040   1.871   4.200   2.435 -0.0953 -0.5907  0.1258
 4209TIP3   OH234041   5.939   3.626  14.913 -0.0535  0.2449  0.1936
 4209TIP3    H134042   5.923   3.604  15.005 -0.3789  1.6315  0.4923
 4209TIP3    H234043   6.029   3.659  14.911  0.5073 -1.2356 -0.2870
 4210TIP3   OH234044   3.845   4.609  13.815 -0.2424 -0.7795 -0.4854
 4210TIP3    H134045   3.878   4.593  13.904  1.7097  0.6034 -0.8970
 4210TIP3    H234046   3.750   4.607  13.825 -0.1368  1.2747  2.0600
 4211TIP3   OH234047   2.603   4.719   2.512 -0.0052 -1.0728 -0.0612
 4211TIP3    H134048   2.632   4.634   2.545  1.4473  0.1117  1.8821
 4211TIP3    H234049   2.590   4.772   2.590  0.3049  0.8784 -1.2761
 4212TIP3   OH234050   3.112   4.918   4.011  0.2103 -0.4592 -0.0896
 4212TIP3    H134051   3.096   4.994   3.954  0.4815 -1.3310 -1.3626
 4212TIP3    H234052   3.165   4.953   4.083  3.7208 -0.1147 -2.6167
 4213TIP3   OH234053   5.673   0.902   3.467  0.1442 -0.5448 -0.3573
 4213TIP3    H134054   5.619   0.868   3.396 -0.4489  1.5756 -0.9851
 4213TIP3    H234055   5.761   0.912   3.429 -0.6089  2.6090 -1.6069
 4214TIP3   OH234056   1.420   4.852   1.739  0.2253  0.0631 -0.1570
 4214TIP3    H134057   1.484   4.828   1.807  0.9120  0.8597 -0.5019
 4214TIP3    H234058   1.409   4.947   1.750  1.2154  0.4261 -1.8561
 4215TIP3   OH234059   2.532   6.786  16.420 -0.5350  0.8893 -0.0982
 4215TIP3    H134060   2.495   6.792  16.509 -0.1864 -0.3340  0.1495
 4215TIP3    H234061   2.488   6.710  16.381 -0.2254  1.0440 -0.7559
 4216TIP3   OH234062   1.185   1.754  13.808 -0.6624  0.1578 -0.2594
 4216TIP3    H134063   1.189   1.663  13.837  2.2126  0.6972  1.3930
 4216TIP3    H234064   1.132   1.798  13.874 -1.3678 -0.1595 -0.6091
 4217TIP3   OH234065   1.354   6.125  11.544 -0.1255 -0.0648  0.6363
 4217TIP3    H134066   1.382   6.152  11.457 -3.8446 -1.7298 -1.3171
 4217TIP3    H234067   1.425   6.068  11.576  1.3576  0.6384 -1.2118
 4218TIP3   OH234068   5.950   5.414   1.987  0.5352 -0.0253  0.1143
 4218TIP3    H134069   5.936   5.463   1.906 -0.7852  1.0536  0.9612
 4218TIP3    H234070   5.975   5.326   1.958 -1.4879 -0.1315 -1.5012
 4219TIP3   OH234071   5.176   2.306  13.206 -1.2623 -0.0577 -0.7462
 4219TIP3    H134072   5.136   2.354  13.133 -1.3013 -0.5181 -1.0262
 4219TIP3    H234073   5.159   2.214  13.187  0.1272 -0.2855 -1.0001
 4220TIP3   OH234074   5.421   4.929  10.663  0.5355 -0.5100  0.8617
 4220TIP3    H134075   5.483   4.984  10.615 -2.3130  1.2464 -1.1351
 4220TIP3    H234076   5.386   4.988  10.731 -1.1821 -0.3780 -0.0870
 4221TIP3   OH234077   3.746   1.259   4.047 -0.4456 -0.0157  0.2854
 4221TIP3    H134078   3.697   1.338   4.071 -0.0117  0.5706 -0.6864
 4221TIP3    H234079   3.838   1.286   4.055 -0.2946 -0.2547 -0.5441
 4222TIP3   OH234080   5.873   4.238  15.308  0.0688 -0.4689 -0.1459
 4222TIP3    H134081   5.913   4.267  15.226 -0.4351  1.6034  0.3061
 4222TIP3    H234082   5.940   4.183  15.349 -0.0347 -2.4476 -2.3688
 4223TIP3   OH234083   6.210   4.809  13.588 -0.3062  0.8017  0.2020
 4223TIP3    H134084   6.175   4.851  13.667 -1.1652  2.2282 -0.9009
 4223TIP3    H234085   6.133   4.787  13.536  0.2973  1.3069 -0.9396
 4224TIP3   OH234086   0.812   2.202   5.036  0.2457  0.1750  0.3349
 4224TIP3    H134087   0.897   2.245   5.048  1.2164 -1.2064 -1.2171
 4224TIP3    H234088   0.822   2.150   4.957 -2.1225  0.0677  0.0347
 4225TIP3   OH234089   3.702   0.431  12.200 -0.4205 -0.2992  0.4234
 4225TIP3    H134090   3.640   0.377  12.250  2.4032 -3.0792  1.3130
 4225TIP3    H234091   3.739   0.490  12.265 -2.3289  1.7388 -0.2157
 4226TIP3   OH234092   2.982   4.546  15.735  0.9228 -0.0865  0.3177
 4226TIP3    H134093   3.004   4.541  15.827  2.5000 -1.1673 -0.0820
 4226TIP3    H234094   2.930   4.626  15.727  2.3665  1.0605  1.8060
 4227TIP3   OH234095   0.507   0.215   3.921  0.7009  0.1906  0.3189
 4227TIP3    H134096   0.583   0.271   3.935  0.1344  0.7507  1.2235
 4227TIP3    H234097   0.479   0.235   3.831  1.8759 -0.3648 -0.1994
 4228TIP3   OH234098   0.024   2.187   1.981  0.4624  0.0591  0.0655
 4228TIP3    H134099  -0.061   2.143   1.979  0.1601  0.6431 -0.5998
 4228TIP3    H234100   0.087   2.122   1.950  0.4013 -0.6453  1.3490
 4229TIP3   OH234101   6.743   3.643  15.728 -0.0279  0.9751 -0.0667
 4229TIP3    H134102   6.800   3.699  15.780 -2.0749  2.1209  1.0879
 4229TIP3    H234103   6.703   3.702  15.665 -0.4247  0.3283 -0.4273
 4230TIP3   OH234104   3.794   2.279  11.427 -0.1366 -0.2535 -0.0905
 4230TIP3    H134105   3.721   2.336  11.405 -0.2642 -0.6694 -0.7463
 4230TIP3    H234106   3.872   2.330  11.404 -0.2547 -0.4290 -0.9173
 4231TIP3   OH234107   1.744   0.364   2.902 -0.3720  0.4807  0.5035
 4231TIP3    H134108   1.835   0.346   2.928 -0.7170 -1.8437  0.3575
 4231TIP3    H234109   1.751   0.391   2.810  0.1021 -2.0043 -0.3000
 4232TIP3   OH234110   4.517   3.387   0.899  0.1423  0.4119  0.1228
 4232TIP3    H134111   4.434   3.346   0.925  0.2441  0.1395  0.0170
 4232TIP3    H234112   4.549   3.428   0.979 -0.6393  1.4709 -0.0781
 4233TIP3   OH234113   1.850   1.358   1.668  0.2652  0.3054 -0.0473
 4233TIP3    H134114   1.808   1.419   1.729 -1.5966 -0.1819 -0.7677
 4233TIP3    H234115   1.939   1.350   1.700  0.0402  1.9677  1.1505
 4234TIP3   OH234116   0.338   3.218   1.882  0.0940  0.1627  0.3753
 4234TIP3    H134117   0.329   3.129   1.917  0.7183 -0.1012 -0.1211
 4234TIP3    H234118   0.389   3.207   1.802  2.2973  1.2181  1.5548
 4235TIP3   OH234119   0.190   3.134  16.445  0.0442  0.4690 -0.0761
 4235TIP3    H134120   0.229   3.092  16.368 -0.3257  1.0404 -0.5833
 4235TIP3    H234121   0.244   3.212  16.460 -0.1286  0.5766 -0.0083
 4236TIP3   OH234122   5.425   6.524  11.094 -0.0069 -0.2243 -0.6886
 4236TIP3    H134123   5.354   6.581  11.065 -0.7727 -0.4819  0.5941
 4236TIP3    H234124   5.467   6.574  11.165 -0.5336 -1.1261  0.2820
 4237TIP3   OH234125   5.930   5.080  15.920 -0.8162  1.2400  1.0420
 4237TIP3    H134126   6.008   5.027  15.938 -0.7144  0.7774 -0.5797
 4237TIP3    H234127   5.856   5.024  15.943 -0.6833  1.0087  0.9134
 4238TIP3   OH234128   3.216   5.958  13.059 -0.2513 -0.3967 -0.4814
 4238TIP3    H134129   3.200   5.892  12.992  2.5252 -0.5630 -1.1212
 4238TIP3    H234130   3.274   6.021  13.016 -0.8694  1.1338  0.8685
 4239TIP3   OH234131   3.505   1.465  14.549  0.5938 -0.1070  0.1995
 4239TIP3    H134132   3.495   1.552  14.589  0.4847  0.2637 -0.6032
 4239TIP3    H234133   3.423   1.452  14.500  1.2629  0.0533 -1.0094
 4240TIP3   OH234134   0.639   5.256   5.498 -0.2589 -0.4851 -0.0982
 4240TIP3    H134135   0.701   5.263   5.425  0.6999 -1.3700  0.5917
 4240TIP3    H234136   0.678   5.309   5.567 -0.4082 -0.8409  0.2597
 4241TIP3   OH234137   1.560   0.407  14.133 -0.0098 -0.4618  0.0668
 4241TIP3    H134138   1.594   0.449  14.212  1.0390 -1.0761 -0.0362
 4241TIP3    H234139   1.506   0.335  14.165 -1.1206  0.4204  0.2323
 4242TIP3   OH234140   5.591   5.724   1.313 -0.1568  0.0314 -0.3914
 4242TIP3    H134141   5.654   5.668   1.268 -1.7657 -0.6123 -1.9994
 4242TIP3    H234142   5.528   5.663   1.352 -0.9232  0.6659 -0.6006
 4243TIP3   OH234143   5.596   0.827   2.608 -0.0761  0.1879  0.4911
 4243TIP3    H134144   5.572   0.819   2.515 -1.9868 -0.3421  0.9850
 4243TIP3    H234145   5.624   0.918   2.618 -0.2619  0.3656 -0.5129
 4244TIP3   OH234146   6.655   5.009  12.521 -0.0831 -0.7528  0.4044
 4244TIP3    H134147   6.744   4.978  12.534 -0.5122 -1.6077  1.5097
 4244TIP3    H234148   6.665   5.098  12.489  1.1706 -1.1485 -0.3625
 4245TIP3   OH234149   0.345   3.159  11.828  0.4032 -0.1542 -0.1165
 4245TIP3    H134150   0.351   3.085  11.767  0.5503 -0.7853  0.6527
 4245TIP3    H234151   0.283   3.131  11.894  0.0571  0.6300 -0.1028
 4246TIP3   OH234152   2.132   2.421  13.965 -0.3886  0.2477  0.4835
 4246TIP3    H134153   2.129   2.514  13.945 -0.6497  0.4056  1.2575
 4246TIP3    H234154   2.211   2.389  13.920 -1.9114  0.1951 -2.4509
 4247TIP3   OH234155   3.956   3.295  11.062  0.5644  0.2460  0.0319
 4247TIP3    H134156   3.961   3.265  10.971 -0.0016 -0.4504  0.2195
 4247TIP3    H234157   3.867   3.328  11.071  0.6409  0.3762  0.3197
 4248TIP3   OH234158   0.716   2.576   4.266 -0.2713  0.4579  0.0774
 4248TIP3    H134159   0.643   2.604   4.211 -1.6163 -0.9541  1.0429
 4248TIP3    H234160   0.730   2.648   4.327  0.8386  1.7839 -1.6554
 4249TIP3   OH234161   0.978   1.187  13.241 -0.2224  0.2649  0.2002
 4249TIP3    H134162   0.972   1.276  13.206 -0.5681 -0.2196 -1.0157
 4249TIP3    H234163   1.072   1.172  13.253 -0.1515  0.7096  0.2182
 4250TIP3   OH234164   2.874   0.531  16.809 -0.2548 -0.2823  0.3516
 4250TIP3    H134165   2.964   0.562  16.811 -0.5079  0.5387 -0.1876
 4250TIP3    H234166   2.826   0.601  16.764 -1.6975  0.7053  3.1585
 4251TIP3   OH234167   5.205   0.685  15.663 -1.5667  0.3444 -0.8551
 4251TIP3    H134168   5.244   0.600  15.643  0.4992  1.1807 -0.6469
 4251TIP3    H234169   5.155   0.670  15.743  1.0497 -0.1730  0.8377
 4252TIP3   OH234170   5.331   1.197  12.358  0.2571 -0.2624 -0.3815
 4252TIP3    H134171   5.415   1.242  12.348  1.3228 -1.9514  0.4237
 4252TIP3    H234172   5.353   1.104  12.347 -1.0456 -0.9767  2.2695
 4253TIP3   OH234173   6.672   1.883   4.427  0.2573 -0.0149  0.0064
 4253TIP3    H134174   6.743   1.833   4.387  1.3710  2.0712 -0.7672
 4253TIP3    H234175   6.653   1.953   4.364 -0.8497  0.8746  1.2705
 4254TIP3   OH234176   0.694   1.866   3.496  0.4124 -0.1254 -0.2054
 4254TIP3    H134177   0.645   1.823   3.566  0.6993  0.9985  0.7196
 4254TIP3    H234178   0.692   1.959   3.519  0.8675  0.2237 -1.4774
 4255TIP3   OH234179   0.090   1.251  11.083 -0.4348  0.3619 -0.8988
 4255TIP3    H134180   0.043   1.333  11.095 -0.8583 -0.0371  0.3426
 4255TIP3    H234181   0.026   1.183  11.104  1.0314 -0.1727  2.5336
 4256TIP3   OH234182   5.321   0.756   2.621 -0.6193 -0.2233  0.2040
 4256TIP3    H134183   5.408   0.792   2.638 -1.0523  1.3653 -0.7586
 4256TIP3    H234184   5.334   0.661   2.621  1.3531 -0.0083 -1.1483
 4257TIP3   OH234185   3.964   4.963  16.668  0.3418  0.7677  0.2183
 4257TIP3    H134186   4.038   4.905  16.686  0.0293 -0.5239 -2.1493
 4257TIP3    H234187   3.977   4.990  16.577 -2.1959  0.2761 -0.3688
 4258TIP3   OH234188   1.839   0.975  10.873 -0.1163 -0.1255 -0.0994
 4258TIP3    H134189   1.933   0.955  10.878 -0.3139 -0.8766  1.0852
 4258TIP3    H234190   1.811   0.978  10.965 -1.5348 -1.2791 -0.4629
 4259TIP3   OH234191   5.122   6.752  13.205  0.2307  0.4907 -0.1204
 4259TIP3    H134192   5.111   6.839  13.165  0.2956  0.6321  0.1656
 4259TIP3    H234193   5.076   6.693  13.146  0.0786  0.7378 -0.2528
 4260TIP3   OH234194   0.595   5.581  16.615 -0.0809 -0.5611 -0.0582
 4260TIP3    H134195   0.641   5.507  16.575 -0.1436 -1.3512  1.2687
 4260TIP3    H234196   0.505   5.551  16.625 -0.2361 -0.0893 -0.0048
 4261TIP3   OH234197   6.759   5.073  13.919 -0.3076  0.2332 -0.1772
 4261TIP3    H134198   6.714   5.154  13.895 -1.4961 -0.2215  0.4459
 4261TIP3    H234199   6.739   5.013  13.847  0.0026  0.2828 -0.3055
 4262TIP3   OH234200   1.399   2.841   5.807  0.2102  0.1657 -0.4942
 4262TIP3    H134201   1.366   2.866   5.893  2.4757 -1.0533  0.8415
 4262TIP3    H234202   1.442   2.919   5.773  0.3863  0.3126  0.0604
 4263TIP3   OH234203   6.303   3.279  13.836 -0.2963 -0.1182  0.4545
 4263TIP3    H134204   6.249   3.331  13.776  0.5043  0.2210  0.0172
 4263TIP3    H234205   6.252   3.199  13.851 -1.1228  0.3779  0.4027
 4264TIP3   OH234206   0.286   4.481  15.406 -0.6704 -0.5114 -0.4139
 4264TIP3    H134207   0.371   4.442  15.386  0.5836  1.2741  1.1176
 4264TIP3    H234208   0.244   4.494  15.321  1.1810 -0.1899 -1.3145
 4265TIP3   OH234209   2.334   1.635   0.783 -0.1185 -0.3044 -0.7483
 4265TIP3    H134210   2.342   1.718   0.831  1.3707 -1.1003  0.4600
 4265TIP3    H234211   2.381   1.650   0.701 -0.2470  0.1794 -0.7358
 4266TIP3   OH234212   5.553   5.912   1.843 -0.9106 -0.5912 -0.1148
 4266TIP3    H134213   5.511   5.873   1.920  1.1873 -0.3733  1.2208
 4266TIP3    H234214   5.589   5.838   1.796  0.1326 -0.5624  0.6004
 4267TIP3   OH234215   0.784   2.415   5.707 -0.4661  0.0291  0.2691
 4267TIP3    H134216   0.781   2.386   5.798 -1.3535  0.5790  0.4234
 4267TIP3    H234217   0.783   2.510   5.712  1.6979  0.1417 -0.2553
 4268TIP3   OH234218   6.291   3.160   1.739  0.4270  0.0760  0.2666
 4268TIP3    H134219   6.345   3.082   1.744 -0.4150 -0.5132  0.4206
 4268TIP3    H234220   6.340   3.221   1.684 -0.1073 -1.5463 -2.1493
 4269TIP3   OH234221   0.527   6.096   3.323  0.0392 -0.4556  0.1549
 4269TIP3    H134222   0.462   6.026   3.324  0.8784 -1.3131 -1.0395
 4269TIP3    H234223   0.488   6.167   3.374 -1.3654 -1.3256  0.3425
 4270TIP3   OH234224   0.725   5.589   0.194  0.0640  0.0027 -0.6396
 4270TIP3    H134225   0.716   5.520   0.261  0.7614  1.0213  0.5472
 4270TIP3    H234226   0.757   5.542   0.117  0.6032 -1.0174  0.1608
 4271TIP3   OH234227   3.456   4.271  15.816 -0.0961 -0.2314 -0.6518
 4271TIP3    H134228   3.423   4.199  15.868  0.1521 -0.6758 -1.0986
 4271TIP3    H234229   3.527   4.309  15.869 -0.9813  0.4350  0.0995
 4272TIP3   OH234230   3.192   5.968  14.941 -0.0612 -0.7703 -0.1874
 4272TIP3    H134231   3.269   6.024  14.934 -0.1673 -0.3326  1.5899
 4272TIP3    H234232   3.118   6.028  14.941 -0.3128 -1.0750 -0.3757
 4273TIP3   OH234233   1.972   5.845   4.367  0.2319  0.7469 -0.4658
 4273TIP3    H134234   1.896   5.866   4.312 -0.4727 -1.0481 -0.2728
 4273TIP3    H234235   2.021   5.781   4.315  1.1521  1.2407 -0.2136
 4274TIP3   OH234236   6.275   1.311   4.397 -0.0084 -0.1976 -0.3683
 4274TIP3    H134237   6.248   1.275   4.481  1.9256  1.4055  1.0307
 4274TIP3    H234238   6.363   1.278   4.384 -0.0472  0.0880 -1.4712
 4275TIP3   OH234239   5.895   4.822  11.639  0.1273 -0.3754 -0.0061
 4275TIP3    H134240   5.872   4.737  11.677  2.0197 -1.3901 -0.9576
 4275TIP3    H234241   5.814   4.854  11.601 -0.7075 -1.6015  0.6684
 4276TIP3   OH234242   3.982   6.622   4.444 -0.3035  0.3394 -0.1642
 4276TIP3    H134243   3.940   6.678   4.378  0.5555  1.1711 -0.0279
 4276TIP3    H234244   3.958   6.662   4.528 -2.1575 -1.2319  0.1504
 4277TIP3   OH234245   4.248   6.494  16.017  0.3176 -0.0938 -0.2137
 4277TIP3    H134246   4.168   6.460  15.978  0.8272 -0.7337 -0.7389
 4277TIP3    H234247   4.249   6.587  15.993  1.3956 -0.7496 -3.2453
 4278TIP3   OH234248   4.891   6.597  12.627  0.0243  0.1565 -0.2244
 4278TIP3    H134249   4.958   6.579  12.561  0.1141 -2.5625  0.4827
 4278TIP3    H234250   4.818   6.540  12.603 -0.6345  0.4393  1.0287
 4279TIP3   OH234251   5.733   5.250  12.703  0.0806  0.7830  0.4255
 4279TIP3    H134252   5.702   5.204  12.625  0.7815  0.6852  0.1978
 4279TIP3    H234253   5.785   5.323  12.669  1.7825 -0.2021  0.7699
 4280TIP3   OH234254   3.989   5.818   4.544 -0.0204 -0.2404  0.0651
 4280TIP3    H134255   3.978   5.900   4.591 -1.1702 -0.5489  0.3541
 4280TIP3    H234256   3.984   5.842   4.452 -3.0084 -0.2835  0.1422
 4281TIP3   OH234257   5.531   3.969  15.864  1.0250  1.0183 -0.0537
 4281TIP3    H134258   5.588   4.032  15.820  2.5538 -1.1613 -1.3347
 4281TIP3    H234259   5.581   3.940  15.940  1.7496 -1.0105 -1.2595
 4282TIP3   OH234260   3.834   6.189   3.130  0.7608 -0.0997  0.0656
 4282TIP3    H134261   3.802   6.145   3.209 -2.4966 -0.0284 -1.0542
 4282TIP3    H234262   3.900   6.129   3.095 -1.8493 -3.1240 -0.1718
 4283TIP3   OH234263   0.566   4.545   6.579  0.0590  0.6275  0.3403
 4283TIP3    H134264   0.608   4.554   6.664  1.5278 -0.6490 -0.1942
 4283TIP3    H234265   0.558   4.634   6.546  0.4074  1.0559  1.3836
 4284TIP3   OH234266   2.710   0.498  15.978 -0.3898  0.8370 -0.2605
 4284TIP3    H134267   2.722   0.414  16.023 -0.8763  1.8075  1.7934
 4284TIP3    H234268   2.741   0.482  15.889  0.7109 -1.1694  0.4234
 4285TIP3   OH234269   1.504   4.444   4.908 -0.6201 -0.1401  0.0720
 4285TIP3    H134270   1.581   4.440   4.851 -1.3951 -0.1686 -1.0218
 4285TIP3    H234271   1.513   4.369   4.966  1.7084  1.5514  2.0610
 4286TIP3   OH234272   5.936   2.067   2.788  0.6324  0.5825  0.3329
 4286TIP3    H134273   5.869   2.130   2.814  1.0304  0.9129  0.5797
 4286TIP3    H234274   5.925   2.058   2.693  1.3329  1.9444  0.0997
 4287TIP3   OH234275   1.821   0.383   0.428  0.5029 -0.3382 -0.1001
 4287TIP3    H134276   1.758   0.419   0.366  1.6033  1.2318 -0.3618
 4287TIP3    H234277   1.770   0.322   0.481 -1.1533  0.5828 -0.5594
 4288TIP3   OH234278   1.830   5.857  14.530 -0.6256 -0.2835 -0.0284
 4288TIP3    H134279   1.851   5.826  14.618  2.8561  0.5672 -0.3892
 4288TIP3    H234280   1.894   5.814  14.474  1.2362  3.5390 -1.1878
 4289TIP3   OH234281   6.557   5.012   4.852 -0.3127  0.0669 -0.6638
 4289TIP3    H134282   6.523   5.078   4.913 -0.2699 -0.1095 -0.4499
 4289TIP3    H234283   6.596   5.064   4.782  0.3910  0.2767 -0.1282
 4290TIP3   OH234284   2.033   3.413  15.830 -0.6349 -0.3781  0.3174
 4290TIP3    H134285   2.082   3.492  15.851 -1.9410  0.4761  0.2690
 4290TIP3    H234286   1.997   3.429  15.743 -1.0945 -0.9174  0.4000
 4291TIP3   OH234287   6.139   5.934   1.666  0.5608 -0.0596  0.0096
 4291TIP3    H134288   6.196   5.944   1.590 -0.0087 -0.3670 -0.4718
 4291TIP3    H234289   6.052   5.957   1.633  0.2304 -0.6757  0.4301
 4292TIP3   OH234290   5.279   3.848  15.274  0.5897  0.1887 -0.0916
 4292TIP3    H134291   5.218   3.869  15.344  2.0655 -1.2788  1.7717
 4292TIP3    H234292   5.263   3.755  15.255 -0.2257  0.7215 -2.2131
 4293TIP3   OH234293   6.464   3.800   2.512  0.3568  0.3371 -0.5997
 4293TIP3    H134294   6.492   3.727   2.457 -0.5657 -0.4400 -0.0759
 4293TIP3    H234295   6.376   3.821   2.481  0.4060  0.8681 -0.3858
 4294TIP3   OH234296   1.068   5.910  12.820  0.1388  0.0968  0.2937
 4294TIP3    H134297   1.042   5.917  12.729 -0.3120  0.7777  0.4663
 4294TIP3    H234298   1.162   5.928  12.820  0.1935 -0.1879 -0.0649
 4295TIP3   OH234299   2.789   2.097  15.063  0.6414 -0.0173  0.1945
 4295TIP3    H134300   2.825   2.163  15.122  2.3358 -2.4010  2.0096
 4295TIP3    H234301   2.860   2.076  15.003  0.2401 -0.4168 -0.1547
 4296TIP3   OH234302   6.194   5.572  12.101 -0.4509  0.2915  0.4186
 4296TIP3    H134303   6.183   5.495  12.045  0.4902  0.4026  0.0652
 4296TIP3    H234304   6.268   5.549  12.158  0.1144  1.0804  0.0259
 4297TIP3   OH234305   3.102   0.473  15.694  0.5026  0.3323  0.4644
 4297TIP3    H134306   3.080   0.543  15.755 -1.5423  0.1306  0.0217
 4297TIP3    H234307   3.146   0.518  15.622 -0.3132  1.1090  0.4258
 4298TIP3   OH234308   5.455   2.825   2.908  0.1443  0.2184  0.0252
 4298TIP3    H134309   5.387   2.862   2.964 -1.2268 -1.2061 -0.6147
 4298TIP3    H234310   5.419   2.832   2.819 -1.8855 -5.4195 -0.0123
 4299TIP3   OH234311   4.967   3.530   5.808 -0.1405 -0.4059  0.1771
 4299TIP3    H134312   4.875   3.551   5.824  0.1086 -0.0432  1.2200
 4299TIP3    H234313   4.984   3.453   5.862  0.2538 -0.2705  0.2497
 4300TIP3   OH234314   1.260   3.932   2.170  0.3422  0.2087  0.7495
 4300TIP3    H134315   1.278   4.014   2.124 -0.1735 -0.0036  0.1505
 4300TIP3    H234316   1.310   3.866   2.124  0.3994  0.1099  0.9502
 4301TIP3   OH234317   4.825   3.295   3.054 -0.1408 -0.0851  0.4707
 4301TIP3    H134318   4.858   3.379   3.086 -2.6897  1.0179  0.4627
 4301TIP3    H234319   4.731   3.297   3.073 -0.8311 -1.6733 -2.1684
 4302TIP3   OH234320   3.239   1.650   3.643  0.0726  0.1884 -0.2613
 4302TIP3    H134321   3.199   1.590   3.579  3.7400 -0.9701 -1.7580
 4302TIP3    H234322   3.240   1.600   3.725  0.7774 -0.8072 -0.8597
 4303TIP3   OH234323   0.681   0.128   3.538  0.0488 -0.8147  0.1544
 4303TIP3    H134324   0.753   0.172   3.582 -0.8338  3.1699 -1.9418
 4303TIP3    H234325   0.722   0.065   3.479  1.6520 -0.2278  0.6136
 4304TIP3   OH234326   5.312   4.259   5.944  0.7688 -0.1485  0.3858
 4304TIP3    H134327   5.371   4.329   5.971  1.1484 -1.2192  2.5701
 4304TIP3    H234328   5.345   4.230   5.859  0.5331  2.3201 -0.6303
 4305TIP3   OH234329   1.492   4.985   0.510 -0.2973 -0.2845  0.1572
 4305TIP3    H134330   1.544   4.946   0.440 -0.5852 -3.9337  1.7340
 4305TIP3    H234331   1.476   5.075   0.482  2.5685 -0.5083 -2.7129
 4306TIP3   OH234332   0.684   6.093   0.152 -0.0973 -0.2297 -0.2448
 4306TIP3    H134333   0.676   5.999   0.166  1.0454 -0.4623 -1.0247
 4306TIP3    H234334   0.724   6.126   0.232 -2.1949 -0.0803  0.8228
 4307TIP3   OH234335   3.227   3.875  16.566  0.3202 -0.3505  0.0765
 4307TIP3    H134336   3.228   3.853  16.659 -0.5568  0.1040  0.2061
 4307TIP3    H234337   3.189   3.963  16.563 -0.1210 -0.5590 -0.7501
 4308TIP3   OH234338   5.239   6.536  16.419  0.6638  0.0048  0.2883
 4308TIP3    H134339   5.160   6.500  16.378 -0.1121  0.4422  1.3432
 4308TIP3    H234340   5.238   6.628  16.394 -1.0238  0.8204  2.9470
 4309TIP3   OH234341   5.404   6.043  14.977  0.1910  0.4198 -0.1628
 4309TIP3    H134342   5.462   6.093  14.920  0.3615  0.7596  0.3069
 4309TIP3    H234343   5.451   6.037  15.060 -0.9312  1.6953  0.5953
 4310TIP3   OH234344   2.206   5.956  14.427 -0.0469 -0.7818 -0.0786
 4310TIP3    H134345   2.168   5.969  14.340  1.5762  0.8038 -0.6030
 4310TIP3    H234346   2.158   5.882  14.463 -1.4446 -0.8424 -1.9235
 4311TIP3   OH234347   4.422   3.277  12.617 -0.0571 -0.0104  0.0732
 4311TIP3    H134348   4.357   3.258  12.686  0.3551  0.4649  0.6052
 4311TIP3    H234349   4.386   3.236  12.539 -1.1835  0.5332  0.2740
 4312TIP3   OH234350   4.394   0.288   1.725 -0.3386 -0.1603 -0.2717
 4312TIP3    H134351   4.434   0.369   1.693 -0.2667  0.8778  2.1950
 4312TIP3    H234352   4.301   0.308   1.733  0.0233  0.9427  3.3088
 4313TIP3   OH234353   3.163   4.995  11.583 -0.2147  0.0402  0.1707
 4313TIP3    H134354   3.163   5.090  11.572  3.6210  0.1052 -0.5059
 4313TIP3    H234355   3.181   4.961  11.495  0.1452 -1.2106  0.7036
 4314TIP3   OH234356   6.383   6.336  14.380  0.8337  0.0244  0.0830
 4314TIP3    H134357   6.306   6.377  14.341  1.3098  0.1002 -0.7869
 4314TIP3    H234358   6.347   6.278  14.448  0.0034 -0.0766 -0.4323
 4315TIP3   OH234359   3.036   4.561  15.995 -0.0679  0.8352 -0.3481
 4315TIP3    H134360   3.123   4.564  16.033 -0.1420  1.3621 -0.2130
 4315TIP3    H234361   2.987   4.498  16.049 -0.2048  1.6572  0.4919
 4316TIP3   OH234362   2.102   4.720  11.090 -0.2551 -0.1690 -0.1222
 4316TIP3    H134363   2.038   4.783  11.123  0.4217  1.7890 -2.2640
 4316TIP3    H234364   2.076   4.704  11.000 -0.2551 -2.8828  0.2836
 4317TIP3   OH234365   5.942   5.604  16.036 -0.1243 -0.7645 -0.0962
 4317TIP3    H134366   5.918   5.512  16.032  0.2370 -0.8342 -1.2028
 4317TIP3    H234367   5.942   5.633  15.944 -1.8033  0.7666  0.3269
 4318TIP3   OH234368   3.130   1.864   6.550  0.2266 -0.1712  0.4286
 4318TIP3    H134369   3.188   1.928   6.592  1.0004 -0.6406  0.1019
 4318TIP3    H234370   3.102   1.807   6.622 -0.5575  0.5954  0.7393
 4319TIP3   OH234371   6.464   1.302   1.503 -0.5380 -0.1631 -0.1773
 4319TIP3    H134372   6.490   1.312   1.595 -0.6807  2.1190 -0.3298
 4319TIP3    H234373   6.381   1.255   1.507 -1.4210  1.3863  1.0439
 4320TIP3   OH234374   1.012   3.262  12.002  0.2104 -0.0823 -0.3505
 4320TIP3    H134375   0.953   3.223  12.067 -0.3952 -0.9209 -1.3654
 4320TIP3    H234376   1.094   3.276  12.049  0.4629 -2.6204  0.0961
 4321TIP3   OH234377   2.638   1.671   3.156  0.1944  0.2806  0.0194
 4321TIP3    H134378   2.666   1.714   3.237 -0.5945 -1.2075  1.1370
 4321TIP3    H234379   2.617   1.582   3.182  0.0652 -0.2942 -1.8782
 4322TIP3   OH234380   5.242   2.922   5.848 -0.1504 -0.2516  0.2564
 4322TIP3    H134381   5.263   2.921   5.941  1.0582 -2.0034  0.0272
 4322TIP3    H234382   5.322   2.890   5.806 -0.3002  1.5202 -1.4836
 4323TIP3   OH234383   1.904   3.400  11.009 -0.0342  0.1470  0.0327
 4323TIP3    H134384   1.870   3.477  11.055 -0.2243  0.1428 -0.1000
 4323TIP3    H234385   1.957   3.436  10.938 -0.5593  0.1633 -0.3590
 4324TIP3   OH234386   0.154   0.059  15.356 -0.0379  0.0963 -0.1175
 4324TIP3    H134387   0.130  -0.029  15.328  0.1540 -0.0120  0.0614
 4324TIP3    H234388   0.190   0.048  15.444  0.7391  0.2507 -0.4070
 4325TIP3   OH234389   6.189   4.127   1.563 -0.7813  0.2452  0.1083
 4325TIP3    H134390   6.130   4.197   1.537 -0.7980 -0.2230 -1.2058
 4325TIP3    H234391   6.140   4.046   1.547 -0.1434 -0.1141 -0.0856
 4326TIP3   OH234392   1.434   2.733   3.345 -0.0314 -0.1364  0.4307
 4326TIP3    H134393   1.368   2.795   3.377 -1.2472  0.6252 -3.0734
 4326TIP3    H234394   1.517   2.778   3.361 -0.7140  1.2100  0.4188
 4327TIP3   OH234395   5.439   6.583   1.211  0.6085  0.2945 -0.4896
 4327TIP3    H134396   5.487   6.666   1.209 -1.7615  1.7728 -2.4833
 4327TIP3    H234397   5.441   6.551   1.121  0.6266 -1.3273  0.0476
 4328TIP3   OH234398   5.367   3.144  16.327 -0.5509 -0.2315  0.3601
 4328TIP3    H134399   5.402   3.148  16.238  1.7242  0.2688  1.2279
 4328TIP3    H234400   5.404   3.064  16.364  0.2579  0.6459  1.5176
 4329TIP3   OH234401   6.453   5.375  13.214  0.8542 -0.0311 -0.4764
 4329TIP3    H134402   6.413   5.299  13.171  2.9427 -0.0962 -2.4682
 4329TIP3    H234403   6.522   5.403  13.155 -0.1940  3.8632 -0.1699
 4330TIP3   OH234404   5.383   3.809  13.146  0.5859  0.0280  0.4856
 4330TIP3    H134405   5.353   3.851  13.227  1.4272  1.4360  0.1061
 4330TIP3    H234406   5.424   3.727  13.174 -0.1284 -0.0339  1.3670
 4331TIP3   OH234407   2.625   3.516   1.320  0.1710  0.3399 -0.5161
 4331TIP3    H134408   2.631   3.611   1.335  2.1555 -0.0975  2.5170
 4331TIP3    H234409   2.564   3.485   1.387 -1.0518 -0.5011 -1.9673
 4332TIP3   OH234410   0.400   4.737   1.986 -0.1641  0.3543 -0.3135
 4332TIP3    H134411   0.356   4.793   1.922 -0.7276  3.9319  2.8954
 4332TIP3    H234412   0.329   4.700   2.039  0.3901  0.3236  0.4262
 4333TIP3   OH234413   6.644   1.800  13.724 -0.0681 -0.0429 -0.9958
 4333TIP3    H134414   6.561   1.834  13.690 -0.3952  0.4383  0.2046
 4333TIP3    H234415   6.620   1.761  13.809  1.1956  1.7189  0.2381
 4334TIP3   OH234416   6.534   1.578   1.962  0.1147  0.2806 -0.5839
 4334TIP3    H134417   6.580   1.568   2.045 -2.3347 -0.1249  0.8249
 4334TIP3    H234418   6.569   1.659   1.925  2.6126 -0.5143 -0.1400
 4335TIP3   OH234419   2.523   3.749  17.047 -0.1635  0.1353  0.2604
 4335TIP3    H134420   2.596   3.763  17.107  1.3262  2.2160 -1.8898
 4335TIP3    H234421   2.491   3.837  17.026 -1.7962 -0.6228 -0.6308
 4336TIP3   OH234422   4.475   4.852   4.335  0.0891 -0.1802 -0.7292
 4336TIP3    H134423   4.514   4.939   4.334  1.1181 -0.6023  0.3470
 4336TIP3    H234424   4.538   4.797   4.288 -0.1328 -0.5083 -0.6462
 4337TIP3   OH234425   0.742   4.491  13.781  0.8062 -0.2331 -0.0376
 4337TIP3    H134426   0.693   4.412  13.800  0.3355 -0.1040 -0.6811
 4337TIP3    H234427   0.676   4.554  13.753  1.2196  0.2707  0.1103
 4338TIP3   OH234428   2.488   0.361   4.054  0.0393 -0.8574  0.2537
 4338TIP3    H134429   2.551   0.385   3.986 -1.1032  0.1894 -0.4711
 4338TIP3    H234430   2.542   0.348   4.133  1.0239  1.7020  0.1024
 4339TIP3   OH234431   1.173   2.373   1.685 -0.2933 -0.4799 -0.4957
 4339TIP3    H134432   1.251   2.428   1.681 -1.5087  1.2601 -1.7312
 4339TIP3    H234433   1.172   2.338   1.774  1.7396 -0.3701 -0.3834
 4340TIP3   OH234434   3.135   3.085   4.048 -0.4605  1.0285  0.0989
 4340TIP3    H134435   3.148   3.008   3.993 -0.7985  1.6491 -0.8907
 4340TIP3    H234436   3.052   3.068   4.093 -1.8604  1.8569 -2.0249
 4341TIP3   OH234437   6.291   1.402  13.482 -0.6125 -0.4207  0.1629
 4341TIP3    H134438   6.227   1.471  13.467 -1.6383 -1.7034 -1.8294
 4341TIP3    H234439   6.298   1.395  13.577 -0.3148  2.5033  0.4264
 4342TIP3   OH234440   5.535   0.581   1.569  0.1728  0.4139 -0.0752
 4342TIP3    H134441   5.503   0.630   1.644  0.3050  1.2796 -0.5799
 4342TIP3    H234442   5.565   0.647   1.507  0.3539 -0.2965 -0.7657
 4343TIP3   OH234443   3.266   0.672   4.611 -0.1349 -0.1786  0.3781
 4343TIP3    H134444   3.246   0.696   4.701 -0.6526 -1.4327  0.6261
 4343TIP3    H234445   3.219   0.736   4.557 -0.0405  0.4129  0.9925
 4344TIP3   OH234446   6.380   0.957  16.824  0.0359  0.2306  0.2913
 4344TIP3    H134447   6.404   0.911  16.744  1.9480  1.3209  0.1765
 4344TIP3    H234448   6.351   0.887  16.884 -2.6766 -0.4813 -1.6830
 4345TIP3   OH234449   3.829   5.905   2.800 -0.1143 -0.6600 -0.3453
 4345TIP3    H134450   3.860   5.879   2.713  0.6079 -1.6186  0.1868
 4345TIP3    H234451   3.755   5.847   2.818 -1.4475  0.7498 -1.0577
 4346TIP3   OH234452   2.851   5.907  14.691  0.3489  0.7294 -0.2772
 4346TIP3    H134453   2.857   5.857  14.772  0.5294 -0.0896 -0.7852
 4346TIP3    H234454   2.760   5.899  14.664  0.2326  1.1973 -0.0460
 4347TIP3   OH234455   4.830   2.362   2.270  0.1371 -0.2565  0.4884
 4347TIP3    H134456   4.760   2.357   2.204  1.7216 -0.0712 -1.3140
 4347TIP3    H234457   4.804   2.433   2.328 -0.9978  0.0572 -0.3630
 4348TIP3   OH234458   2.336   5.467  16.592  0.2756  0.7133 -0.5531
 4348TIP3    H134459   2.271   5.490  16.658  0.1761  0.9123 -0.7195
 4348TIP3    H234460   2.409   5.430  16.642 -0.0101  0.3858 -0.3744
 4349TIP3   OH234461   0.926   0.782   1.942  0.1660 -0.4579 -0.1681
 4349TIP3    H134462   0.916   0.691   1.971  0.9253 -0.2590  0.7671
 4349TIP3    H234463   0.850   0.797   1.885  0.5745 -1.9885 -1.1819
 4350TIP3   OH234464   3.700   1.555  13.845  0.1454 -0.3145  0.2420
 4350TIP3    H134465   3.620   1.504  13.829  0.0382 -0.2383  0.5446
 4350TIP3    H234466   3.679   1.643  13.814 -0.2630 -0.0170  1.3229
 4351TIP3   OH234467   6.228   0.935   0.601 -0.0379 -0.0911 -0.0900
 4351TIP3    H134468   6.241   1.003   0.535  4.1802  0.3829  0.9632
 4351TIP3    H234469   6.255   0.854   0.558  2.1016  0.1240  0.7470
 4352TIP3   OH234470   4.378   4.572   3.625 -0.4602 -0.4162  0.7085
 4352TIP3    H134471   4.326   4.640   3.582 -0.8190 -1.2229 -0.1616
 4352TIP3    H234472   4.343   4.568   3.714 -2.0693 -1.0902  0.0866
 4353TIP3   OH234473   1.408   0.925   1.633 -1.1262  0.4280 -0.3178
 4353TIP3    H134474   1.330   0.934   1.578  0.8479  1.0930 -3.2233
 4353TIP3    H234475   1.470   0.877   1.578  0.7904  0.5712  1.5992
 4354TIP3   OH234476   0.771   5.699   4.267 -0.5501  0.2288 -0.3530
 4354TIP3    H134477   0.845   5.664   4.317 -0.4203 -0.7886 -1.2330
 4354TIP3    H234478   0.697   5.694   4.328 -0.3008 -0.5765 -0.1063
 4355TIP3   OH234479   4.402   1.889  12.774  0.1574 -0.0660  0.3094
 4355TIP3    H134480   4.354   1.907  12.693 -0.0291 -0.1735  0.3946
 4355TIP3    H234481   4.437   1.801  12.762  1.8080  0.6622 -0.4692
 4356TIP3   OH234482   2.773   5.831  13.713 -0.3478 -0.0402 -0.5144
 4356TIP3    H134483   2.781   5.873  13.627 -1.0980 -0.8019 -0.9765
 4356TIP3    H234484   2.691   5.781  13.707  0.5363 -1.6083 -0.0243
 4357TIP3   OH234485   1.124   6.455   0.630  0.2007 -0.8246 -0.1121
 4357TIP3    H134486   1.050   6.403   0.661  0.3063 -0.7131  0.3427
 4357TIP3    H234487   1.169   6.398   0.568  1.1980 -1.9091  1.5235
 4358TIP3   OH234488   5.884   0.556   4.820  0.3076 -0.0183 -0.0653
 4358TIP3    H134489   5.890   0.643   4.860  2.4910  0.6396 -1.6399
 4358TIP3    H234490   5.927   0.497   4.882  1.0894  0.4764 -0.1339
 4359TIP3   OH234491   5.243   3.881   5.533 -0.0866 -0.5861 -0.3495
 4359TIP3    H134492   5.283   3.906   5.617  1.1494  1.0354 -1.3710
 4359TIP3    H234493   5.170   3.942   5.523  0.4518 -0.0378 -0.9644
 4360TIP3   OH234494   5.339   3.990   5.781 -0.2148  0.5142  0.0568
 4360TIP3    H134495   5.422   3.963   5.820 -0.7562 -0.8017  0.3859
 4360TIP3    H234496   5.273   3.936   5.825 -1.4241  2.4629  0.7673
 4361TIP3   OH234497   5.351   5.737  16.034  0.9136  0.2372  0.0696
 4361TIP3    H134498   5.387   5.824  16.015  1.3880 -0.0787 -0.5367
 4361TIP3    H234499   5.381   5.718  16.123 -0.8789  1.5141  1.0051
 4362TIP3   OH234500   2.373   1.867   1.565  0.4433 -0.2544 -0.3593
 4362TIP3    H134501   2.345   1.891   1.477 -1.0447  3.0650  0.8452
 4362TIP3    H234502   2.465   1.843   1.556  0.4493  0.4688 -2.7433
 4363TIP3   OH234503   5.415   0.390   3.094 -0.1748 -0.3189 -0.2278
 4363TIP3    H134504   5.459   0.403   3.010 -2.2145  0.2699 -1.2776
 4363TIP3    H234505   5.462   0.318   3.135  1.7583  0.3069 -1.2249
 4364TIP3   OH234506   3.365   3.280  11.426 -1.0728 -0.2382  0.5672
 4364TIP3    H134507   3.442   3.304  11.477  0.5902 -2.9124 -0.4354
 4364TIP3    H234508   3.291   3.298  11.483  0.4194  0.7659  2.2723
 4365TIP3   OH234509   2.935   1.122  13.960 -0.1291 -0.4990  0.0205
 4365TIP3    H134510   3.028   1.141  13.970 -0.4736 -0.0414  3.4548
 4365TIP3    H234511   2.891   1.200  13.993 -1.7779 -0.9730 -0.9355
 4366TIP3   OH234512   2.242   4.405   5.755 -0.0741 -0.1203  0.3637
 4366TIP3    H134513   2.316   4.368   5.803 -0.4587 -1.2379  0.1317
 4366TIP3    H234514   2.280   4.471   5.699  1.1608 -2.3043 -1.5426
 4367TIP3   OH234515   2.263   1.073  12.777 -0.5502  0.6374 -0.8591
 4367TIP3    H134516   2.200   1.111  12.838  0.1577  1.0359 -0.3450
 4367TIP3    H234517   2.282   1.143  12.715 -0.2254  0.7068 -0.6889
 4368TIP3   OH234518   2.540   5.373  16.788 -0.0338 -0.2523  0.3787
 4368TIP3    H134519   2.546   5.432  16.862 -0.5251  0.6932 -0.3136
 4368TIP3    H234520   2.628   5.369  16.752  0.0815 -0.2609  0.6636
 4369TIP3   OH234521   4.717   2.907  16.000  0.4427 -0.2891 -0.3538
 4369TIP3    H134522   4.663   2.978  16.035  1.1156  0.8383 -1.5392
 4369TIP3    H234523   4.807   2.934  16.020  0.8535  0.4046 -2.8789
 4370TIP3   OH234524   2.235   0.599  13.347  0.1360 -0.1935  0.1298
 4370TIP3    H134525   2.187   0.547  13.283 -1.1109 -0.2699  1.0942
 4370TIP3    H234526   2.327   0.578  13.331 -0.1671 -0.3998 -1.4468
 4371TIP3   OH234527   4.612   5.534   1.102 -0.3496 -0.1728 -0.0598
 4371TIP3    H134528   4.517   5.540   1.110 -0.6842 -1.5493 -2.2849
 4371TIP3    H234529   4.636   5.466   1.165 -0.8439  0.0827  0.4167
 4372TIP3   OH234530   5.400   3.478  16.945  0.5343  0.2702  0.0760
 4372TIP3    H134531   5.482   3.525  16.929  0.5169  0.6189  0.9894
 4372TIP3    H234532   5.427   3.398  16.991  0.4014  0.1512 -0.0500
 4373TIP3   OH234533   1.063   6.695  14.525 -0.4773 -0.3440 -0.0730
 4373TIP3    H134534   1.078   6.765  14.461 -0.5126 -0.1483  0.1278
 4373TIP3    H234535   1.103   6.617  14.486  3.1425  0.5631  1.3322
 4374TIP3   OH234536   0.716   3.408   6.349  0.3015  0.2624 -0.3987
 4374TIP3    H134537   0.664   3.402   6.429 -0.2841 -0.2861 -0.8136
 4374TIP3    H234538   0.759   3.323   6.341  3.0037  1.3530  1.0616
 4375TIP3   OH234539   3.710   1.057   3.564 -0.2363 -0.4802 -0.5115
 4375TIP3    H134540   3.719   0.975   3.515  0.0654 -1.0572  0.4852
 4375TIP3    H234541   3.638   1.042   3.625  0.7692 -0.5553  0.7068
 4376TIP3   OH234542   4.518   6.083   1.477  1.0309 -0.2266 -0.6688
 4376TIP3    H134543   4.543   6.175   1.481  1.2699 -0.3216  0.6019
 4376TIP3    H234544   4.532   6.051   1.566 -2.7677 -0.5263 -0.0073
 4377TIP3   OH234545   3.644   4.587  12.219 -0.0702  0.7576  0.2607
 4377TIP3    H134546   3.597   4.670  12.228 -0.2820  0.5171  1.7944
 4377TIP3    H234547   3.576   4.521  12.232  0.1390  0.3498 -0.7115
 4378TIP3   OH234548   4.608   1.206   2.541  0.5423 -0.1778  0.0778
 4378TIP3    H134549   4.513   1.211   2.548  0.5906  0.4129  0.4831
 4378TIP3    H234550   4.631   1.123   2.582  0.1997 -0.3276 -0.0326
 4379TIP3   OH234551   5.401   4.254   0.478 -0.8168  0.6010 -0.1001
 4379TIP3    H134552   5.437   4.168   0.453  1.5762  1.2597  0.7304
 4379TIP3    H234553   5.418   4.260   0.572 -1.6618  1.6822 -0.0013
 4380TIP3   OH234554   5.696   5.064   4.243 -0.2593  0.0865  0.2190
 4380TIP3    H134555   5.622   5.046   4.301 -0.8537  0.8890 -0.2697
 4380TIP3    H234556   5.695   4.993   4.180 -0.8298  0.2737  0.0118
 4381TIP3   OH234557   4.600   2.751   3.912  0.1335  0.3508 -0.1652
 4381TIP3    H134558   4.641   2.669   3.941  0.6553  1.0394  1.1228
 4381TIP3    H234559   4.644   2.771   3.829  0.4213 -0.3689 -0.2007
 4382TIP3   OH234560   0.699   6.475  15.995  0.0751 -0.0523 -0.6373
 4382TIP3    H134561   0.653   6.537  16.052 -1.8867  0.0261 -2.2033
 4382TIP3    H234562   0.789   6.508  15.992 -0.6594  2.1202 -0.5493
 4383TIP3   OH234563   0.995   1.450  11.054  0.3566  0.4273 -0.2431
 4383TIP3    H134564   0.974   1.391  10.981  0.0229  0.4984 -0.2052
 4383TIP3    H234565   1.074   1.413  11.092 -0.0205 -0.1680 -0.0326
 4384TIP3   OH234566   6.037   1.659  15.113  0.6082  0.7493  0.4309
 4384TIP3    H134567   6.075   1.746  15.100  2.5745  0.0599  1.1557
 4384TIP3    H234568   6.043   1.645  15.207 -2.4348  0.9576  0.7362
 4385TIP3   OH234569   6.021   4.220  14.560  0.2594 -0.3381  0.3132
 4385TIP3    H134570   6.017   4.294  14.500  1.2680 -0.3438  0.2357
 4385TIP3    H234571   5.933   4.181  14.555 -0.3857  1.0082  0.5831
 4386TIP3   OH234572   2.788   0.662  11.771  0.3425 -0.0558 -0.8518
 4386TIP3    H134573   2.831   0.576  11.768 -0.3778 -0.4641  0.0121
 4386TIP3    H234574   2.695   0.642  11.773  0.1847  0.7088  0.4301
 4387TIP3   OH234575   4.761   3.249   0.517  0.1361  0.0458  0.1118
 4387TIP3    H134576   4.819   3.303   0.463  0.2054 -0.3296 -0.1989
 4387TIP3    H234577   4.806   3.164   0.522 -0.4038 -0.2637 -0.1713
 4388TIP3   OH234578   5.801   1.502  12.353 -0.6885 -0.3810  0.0469
 4388TIP3    H134579   5.832   1.512  12.263 -2.1275 -0.5309 -0.4954
 4388TIP3    H234580   5.872   1.535  12.407 -0.2405  0.7721 -1.1970
 4389TIP3   OH234581   1.949   1.789   1.120  0.2166  0.7623 -0.6370
 4389TIP3    H134582   1.890   1.864   1.119 -0.8610  0.0839  2.2925
 4389TIP3    H234583   1.966   1.773   1.213  1.4118 -1.8475 -1.2085
 4390TIP3   OH234584   4.383   3.515  16.645 -0.2914  0.3564 -0.2075
 4390TIP3    H134585   4.390   3.422  16.624 -1.5879  0.4636 -1.2490
 4390TIP3    H234586   4.472   3.542  16.665  0.1357 -1.0537 -0.1067
 4391TIP3   OH234587   6.761   5.707   5.475 -0.0305  1.1807  0.1660
 4391TIP3    H134588   6.773   5.801   5.493  0.1944  1.0024  1.0165
 4391TIP3    H234589   6.679   5.702   5.427  0.6291  1.9424 -1.1142
 4392TIP3   OH234590   1.621   4.015  11.276 -1.0251  0.3903  0.4812
 4392TIP3    H134591   1.573   3.936  11.251 -0.5558  0.8255 -2.0188
 4392TIP3    H234592   1.553   4.076  11.306 -1.6463 -0.1825  0.2651
 4393TIP3   OH234593   3.970   2.995  11.857 -0.7543  0.2458 -0.1443
 4393TIP3    H134594   3.949   3.082  11.892  0.1644  0.2235  0.5018
 4393TIP3    H234595   4.018   2.952  11.928 -0.3531 -0.4319 -0.8134
 4394TIP3   OH234596   5.549   1.795   3.937  0.1588  0.0076  0.1326
 4394TIP3    H134597   5.626   1.774   3.885  0.9038  4.0510 -0.7712
 4394TIP3    H234598   5.476   1.752   3.891  1.4466 -1.0530 -0.9957
 4395TIP3   OH234599   4.736   1.900  14.774 -0.0720  0.0278 -0.1790
 4395TIP3    H134600   4.723   1.812  14.809 -0.4943  0.2738  0.3039
 4395TIP3    H234601   4.763   1.952  14.850 -4.1571  1.3269  0.6147
 4396TIP3   OH234602   0.931   2.336   1.550 -0.4127 -0.0306 -0.1777
 4396TIP3    H134603   0.956   2.314   1.460  0.8573 -3.0828  0.7907
 4396TIP3    H234604   1.014   2.342   1.597 -1.1091 -0.0329  1.0911
 4397TIP3   OH234605   0.638   4.773   1.817  0.0378 -0.0441 -0.4331
 4397TIP3    H134606   0.607   4.768   1.727 -1.4762 -0.4235  0.0707
 4397TIP3    H234607   0.575   4.720   1.866  0.5145  0.6115  0.9259
 4398TIP3   OH234608   1.298   5.420   1.319 -0.6580 -0.6180 -0.4619
 4398TIP3    H134609   1.223   5.462   1.361 -0.2700  1.5635 -1.8011
 4398TIP3    H234610   1.298   5.455   1.230  2.5653  0.3661 -0.2113
 4399TIP3   OH234611   0.207   1.739   0.405  0.0486 -0.2852  0.0905
 4399TIP3    H134612   0.288   1.767   0.362  0.0674 -1.2674 -0.5443
 4399TIP3    H234613   0.147   1.813   0.394 -0.0125 -0.5817 -1.8225
 4400TIP3   OH234614   6.170   4.411   2.133  0.5790 -0.2861 -0.6293
 4400TIP3    H134615   6.076   4.397   2.118  0.2934  1.9503 -1.2526
 4400TIP3    H234616   6.175   4.440   2.224  0.4241  1.2128 -1.0714
 4401TIP3   OH234617   5.672   3.203   5.584 -0.3358  0.1613  0.4085
 4401TIP3    H134618   5.587   3.245   5.596 -0.6092 -0.1524 -0.3428
 4401TIP3    H234619   5.653   3.125   5.532  0.3411 -0.1990  0.6877
 4402TIP3   OH234620   1.837   5.085   4.406 -0.7519 -0.3442 -0.3312
 4402TIP3    H134621   1.813   5.156   4.466 -3.4946 -0.0626 -1.6389
 4402TIP3    H234622   1.811   5.005   4.451  1.2672 -0.5417  0.6344
 4403TIP3   OH234623   6.482   2.538  16.688  0.0032 -0.4891  0.3233
 4403TIP3    H134624   6.450   2.448  16.690  1.3158 -0.9831  0.2972
 4403TIP3    H234625   6.578   2.529  16.690  0.2300  0.8349 -1.6241
 4404TIP3   OH234626   6.103   2.555   5.715 -0.4937  0.9446 -0.3534
 4404TIP3    H134627   6.091   2.619   5.786 -0.9065 -2.6681  3.1725
 4404TIP3    H234628   6.014   2.532   5.689 -0.3860  0.6243 -0.4365
 4405TIP3   OH234629   0.959   4.557   2.316  0.0872  0.0243  0.5515
 4405TIP3    H134630   0.981   4.508   2.396  0.3949  0.5202  0.7749
 4405TIP3    H234631   0.866   4.541   2.303  0.9026 -4.2800 -1.8635
 4406TIP3   OH234632   2.232   3.965  14.526 -0.1353  0.4878 -0.0227
 4406TIP3    H134633   2.262   3.879  14.557 -0.8021  0.5289  0.7750
 4406TIP3    H234634   2.207   4.012  14.606  0.2397  1.4400 -0.4512
 4407TIP3   OH234635   0.709   3.885  16.657  0.8237  0.4952  0.0007
 4407TIP3    H134636   0.760   3.940  16.715 -1.0268  0.6524  1.5546
 4407TIP3    H234637   0.620   3.921  16.659 -0.1863 -1.7824  0.1445
 4408TIP3   OH234638   1.087   4.486  10.735 -0.1849  0.0698  0.3291
 4408TIP3    H134639   1.089   4.578  10.706  0.0507 -0.2147 -0.5815
 4408TIP3    H234640   1.150   4.442  10.678 -0.6159 -0.7408  0.4773
 4409TIP3   OH234641   4.838   2.930   4.480 -0.2901 -0.0398 -0.2238
 4409TIP3    H134642   4.838   2.855   4.539 -2.2604  0.7177  0.8335
 4409TIP3    H234643   4.893   2.995   4.524 -0.1189 -0.1788 -0.2283
 4410TIP3   OH234644   1.665   1.207  12.871  0.2767  0.3108  0.1220
 4410TIP3    H134645   1.603   1.138  12.851  0.5925  0.3085 -0.9257
 4410TIP3    H234646   1.656   1.222  12.965 -0.0033 -0.9441  0.3098
 4411TIP3   OH234647   0.629   2.343   4.775 -0.1370 -0.7298 -0.2531
 4411TIP3    H134648   0.677   2.385   4.847  0.7448  0.1271 -1.3070
 4411TIP3    H234649   0.677   2.262   4.759 -0.5996 -1.1460  0.3935
 4412TIP3   OH234650   4.078   3.763   5.477  0.0416 -0.2157 -0.1047
 4412TIP3    H134651   4.118   3.771   5.564  1.3251  2.1841 -0.8500
 4412TIP3    H234652   4.101   3.675   5.448  1.1712 -0.4000  1.2391
 4413TIP3   OH234653   4.423   1.145  15.665  0.1621  0.0991  1.2046
 4413TIP3    H134654   4.351   1.082  15.655  0.5799 -0.7822  3.2231
 4413TIP3    H234655   4.494   1.110  15.611 -0.9118  1.0826 -0.9666
 4414TIP3   OH234656   5.804   6.726  14.039  0.1502 -0.6504 -0.0994
 4414TIP3    H134657   5.813   6.682  13.954  0.7878  2.0912 -1.5658
 4414TIP3    H234658   5.745   6.799  14.021 -0.4424 -0.5235  2.0991
 4415TIP3   OH234659   0.729   5.076   3.547  0.7986  1.0104 -0.0881
 4415TIP3    H134660   0.642   5.093   3.512  1.0640  0.2850 -1.1706
 4415TIP3    H234661   0.760   4.999   3.498  1.2953  0.0886  1.5866
 4416TIP3   OH234662   5.585   5.409   3.989  0.6235  0.3658 -0.1150
 4416TIP3    H134663   5.543   5.361   4.061  0.7352 -0.9516 -0.8980
 4416TIP3    H234664   5.556   5.363   3.910  1.1749  1.2792 -0.8602
 4417TIP3   OH234665   4.652   0.679  15.073  0.0922 -0.0034  0.3211
 4417TIP3    H134666   4.685   0.707  14.988  0.2810  0.5054  0.5567
 4417TIP3    H234667   4.635   0.761  15.120 -0.6397 -0.2713  0.5353
 4418TIP3   OH234668   6.769   1.872  13.131 -0.4833 -0.8494 -0.3405
 4418TIP3    H134669   6.708   1.944  13.118  0.1416 -0.7264 -3.1211
 4418TIP3    H234670   6.855   1.908  13.108  0.0697 -2.0526 -0.2470
 4419TIP3   OH234671   5.819   0.535   3.985 -0.1784  0.0017 -0.1064
 4419TIP3    H134672   5.769   0.566   3.909  0.5374  0.0780 -0.5553
 4419TIP3    H234673   5.841   0.444   3.964  0.9658  0.3468 -0.5154
 4420TIP3   OH234674   6.767   3.153   4.540 -0.7838  0.5855 -0.3616
 4420TIP3    H134675   6.858   3.136   4.515 -0.6030  0.3237  0.4402
 4420TIP3    H234676   6.766   3.244   4.568 -1.1116  1.0631 -1.8057
 4421TIP3   OH234677   5.072   0.625  12.770 -0.1377 -0.2173 -0.0102
 4421TIP3    H134678   5.077   0.612  12.676  1.2938 -0.5158  0.0820
 4421TIP3    H234679   5.087   0.538  12.807  0.3719  0.0829  0.5074
 4422TIP3   OH234680   6.624   4.085  16.592 -0.3025  0.5793 -0.0537
 4422TIP3    H134681   6.590   4.170  16.566 -0.1916  1.1698  1.6339
 4422TIP3    H234682   6.581   4.066  16.675 -0.4420 -1.1030 -0.4729
 4423TIP3   OH234683   4.857   3.245   5.377 -0.2140  0.0045  0.3137
 4423TIP3    H134684   4.771   3.282   5.396  0.8069  1.5474  2.2153
 4423TIP3    H234685   4.900   3.237   5.462  1.3013 -1.4161 -0.5087
 4424TIP3   OH234686   1.859   1.178  16.990 -0.1136  0.4603 -0.0835
 4424TIP3    H134687   1.932   1.166  17.051 -0.1962  0.4523  0.0121
 4424TIP3    H234688   1.901   1.205  16.908 -0.0887  1.8026  0.3440
 4425TIP3   OH234689   2.045   3.831   2.153  0.1166 -0.4383  0.1843
 4425TIP3    H134690   2.083   3.756   2.109  1.1171  0.3398 -0.3075
 4425TIP3    H234691   2.087   3.833   2.239  0.0554 -0.4594  0.2153
 4426TIP3   OH234692   2.103   6.763  14.321 -0.5165  0.2468 -0.4012
 4426TIP3    H134693   2.198   6.767  14.313 -0.6589  0.1834 -2.6414
 4426TIP3    H234694   2.070   6.792  14.236 -2.4997 -0.1781  0.1721
 4427TIP3   OH234695   0.307   1.798  10.733 -0.1787  0.3632  0.0536
 4427TIP3    H134696   0.320   1.728  10.797 -2.3781 -2.7813 -2.5948
 4427TIP3    H234697   0.384   1.795  10.676 -1.3326 -1.8161 -1.5341
 4428TIP3   OH234698   3.033   3.288   5.029 -0.1201  0.1706  0.0463
 4428TIP3    H134699   3.021   3.222   4.960  0.1797  0.4053 -0.2323
 4428TIP3    H234700   3.067   3.239   5.103  0.1289  0.0146 -0.1683
 4429TIP3   OH234701   3.967   2.849  12.168 -0.3870 -0.0090 -0.2676
 4429TIP3    H134702   3.875   2.842  12.192 -0.1538 -2.0160  0.1974
 4429TIP3    H234703   4.014   2.804  12.238  0.9409  0.7938 -0.6074
 4430TIP3   OH234704   5.814   2.286  11.664 -0.3958  0.4604 -0.2157
 4430TIP3    H134705   5.794   2.379  11.655  0.1036  0.6416  0.4266
 4430TIP3    H234706   5.785   2.264  11.753  1.5346  0.5623  0.4740
 4431TIP3   OH234707   3.821   1.019  16.819 -0.3704 -0.4543 -0.1557
 4431TIP3    H134708   3.786   0.940  16.779 -1.2813 -0.8083  1.2620
 4431TIP3    H234709   3.797   1.089  16.759  1.4577 -1.3134 -2.0367
 4432TIP3   OH234710   0.744   3.038   4.179  0.5059 -0.2365  0.3076
 4432TIP3    H134711   0.802   2.967   4.151  0.5488  0.2534 -0.9135
 4432TIP3    H234712   0.781   3.068   4.262  1.2521 -0.7771  0.1802
 4433TIP3   OH234713   4.983   2.680   1.508  0.2031  0.3408 -0.2990
 4433TIP3    H134714   4.900   2.726   1.523  0.1692  0.6045 -1.2327
 4433TIP3    H234715   4.957   2.589   1.492  0.2311  0.0754  1.0020
 4434TIP3   OH234716   5.032   1.470   4.850 -0.0201 -0.4585 -0.3035
 4434TIP3    H134717   4.979   1.540   4.889 -0.4045 -0.7118 -0.3718
 4434TIP3    H234718   4.986   1.448   4.768  1.6003  1.1513 -1.7324
 4435TIP3   OH234719   4.792   3.498   6.494 -0.3369 -0.0299 -0.6372
 4435TIP3    H134720   4.779   3.464   6.582  1.7642  0.3312 -0.1201
 4435TIP3    H234721   4.784   3.422   6.437 -0.0943 -0.5672  0.0394
 4436TIP3   OH234722   1.660   3.557   5.914 -0.2109  0.4922 -0.0513
 4436TIP3    H134723   1.623   3.519   5.834 -2.2388  0.2221  0.9488
 4436TIP3    H234724   1.595   3.538   5.981  0.4379  2.5628  1.2398
 4437TIP3   OH234725   1.296   2.213   1.184 -0.2039  0.2936  0.1138
 4437TIP3    H134726   1.235   2.140   1.192 -0.1333  0.0321 -1.5031
 4437TIP3    H234727   1.359   2.186   1.118  1.7228  0.5613  1.7147
 4438TIP3   OH234728   0.052   4.581  14.826 -0.0733  0.1221 -0.5622
 4438TIP3    H134729   0.141   4.546  14.826  0.3491  1.1380  0.2935
 4438TIP3    H234730   0.001   4.516  14.873  0.3737 -0.1453 -0.4370
 4439TIP3   OH234731   4.190   1.495  12.249 -0.1980 -0.3322 -0.0097
 4439TIP3    H134732   4.227   1.421  12.202 -1.7658  0.2120 -2.2591
 4439TIP3    H234733   4.264   1.534  12.296  1.5476 -0.7103 -2.3046
 4440TIP3   OH234734   5.916   1.506   5.212 -0.2712  0.8093  0.2194
 4440TIP3    H134735   5.983   1.536   5.151  0.6653 -2.5690 -0.6115
 4440TIP3    H234736   5.836   1.503   5.160 -0.2976  1.3672  0.2147
 4441TIP3   OH234737   1.475   0.634   6.427 -0.4579 -0.1546 -0.1934
 4441TIP3    H134738   1.542   0.656   6.492 -0.9158 -0.0505  0.2453
 4441TIP3    H234739   1.493   0.694   6.354  0.9245 -1.2031 -0.7650
 4442TIP3   OH234740   2.534   5.786   0.016  0.8942  0.6504  0.2959
 4442TIP3    H134741   2.619   5.786   0.061  1.9427 -1.5859 -1.4677
 4442TIP3    H234742   2.555   5.810  -0.074 -0.4552  0.7198 -0.0201
 4443TIP3   OH234743   2.105   3.612   1.972 -0.6177 -0.3309  0.2446
 4443TIP3    H134744   2.156   3.592   1.893  0.8227 -0.5356  1.1844
 4443TIP3    H234745   2.016   3.581   1.952 -0.4565  0.2823 -1.5469
 4444TIP3   OH234746   4.131   3.501   5.249 -0.4093 -0.1228 -0.4577
 4444TIP3    H134747   4.216   3.486   5.208  0.0491 -1.0320  0.7523
 4444TIP3    H234748   4.127   3.436   5.319 -2.0969 -0.0647 -0.4704
 4445TIP3   OH234749   4.073   0.786   5.179  0.2637  0.6177  0.1075
 4445TIP3    H134750   4.039   0.820   5.097 -0.0850  1.6965  0.6835
 4445TIP3    H234751   4.159   0.750   5.157  0.2506  1.0736 -0.6819
 4446TIP3   OH234752   2.958   3.536   0.490  0.2124  0.1690  0.5321
 4446TIP3    H134753   2.942   3.452   0.533 -0.9237  0.7610  1.3255
 4446TIP3    H234754   2.934   3.602   0.555 -3.1806  1.1382 -1.4024
 4447TIP3   OH234755   0.206   0.210   2.541  0.2853  0.2780 -0.1700
 4447TIP3    H134756   0.184   0.172   2.456  0.5690 -2.3542  0.8214
 4447TIP3    H234757   0.277   0.271   2.523 -1.2445  1.6197 -2.0836
 4448TIP3   OH234758   2.340   3.287  15.645 -0.7975  0.1382  0.4912
 4448TIP3    H134759   2.264   3.233  15.663 -1.3964  0.8533  0.1727
 4448TIP3    H234760   2.377   3.307  15.732 -0.8543 -0.3658  0.6327
 4449TIP3   OH234761   1.062   6.715   4.131 -0.0560 -0.0624  0.2265
 4449TIP3    H134762   1.078   6.761   4.214 -3.6279  1.6271  0.1907
 4449TIP3    H234763   1.095   6.775   4.064 -2.4427  1.4489  0.2919
 4450TIP3   OH234764   4.776   0.334   3.044 -0.0062  0.0761 -0.2897
 4450TIP3    H134765   4.791   0.406   3.106  1.8203 -0.5999  0.1264
 4450TIP3    H234766   4.863   0.315   3.008 -0.2580 -2.4734  0.2448
 4451TIP3   OH234767   0.793   6.563   1.282 -0.0553  0.4128  0.4587
 4451TIP3    H134768   0.776   6.657   1.287  0.9537  0.5988  0.7260
 4451TIP3    H234769   0.709   6.522   1.299 -0.5384  1.2726  0.1932
 4452TIP3   OH234770   6.716   3.930  15.624  0.0548 -0.1058 -0.4812
 4452TIP3    H134771   6.799   3.915  15.669 -0.5132 -0.9905  0.3335
 4452TIP3    H234772   6.730   3.896  15.536  0.6437  0.0142 -0.4380
 4453TIP3   OH234773   4.846   1.262   3.207  0.3623  0.3618 -0.5252
 4453TIP3    H134774   4.887   1.269   3.293  0.4944  1.7360 -0.6683
 4453TIP3    H234775   4.918   1.239   3.148  1.1252  3.1147 -0.8325
 4454TIP3   OH234776   0.950   5.592   3.796  0.3633  0.0450  0.4740
 4454TIP3    H134777   1.013   5.647   3.842  2.1464  0.0470 -1.7769
 4454TIP3    H234778   0.880   5.652   3.770  0.3083  0.4145  1.4419
 4455TIP3   OH234779   3.908   0.762   6.275  0.4517 -0.1935  0.2293
 4455TIP3    H134780   3.967   0.688   6.261 -0.1956 -0.9376  1.3162
 4455TIP3    H234781   3.825   0.723   6.302  0.4440  0.9382  2.0806
 4456TIP3   OH234782   5.146   4.852   4.697 -0.4963 -0.1620 -0.3205
 4456TIP3    H134783   5.169   4.943   4.714  0.1749 -0.2079 -0.9104
 4456TIP3    H234784   5.197   4.802   4.762 -0.3120 -0.1552 -0.4584
 4457TIP3   OH234785   4.667   4.720  13.505 -0.4005 -0.0966 -0.0550
 4457TIP3    H134786   4.681   4.803  13.459  0.7676 -0.5194 -0.5068
 4457TIP3    H234787   4.727   4.659  13.462 -0.9480 -1.0757  0.5440
 4458TIP3   OH234788   3.245   1.118  15.675  0.4790 -0.0744  0.3045
 4458TIP3    H134789   3.157   1.081  15.668  0.5974 -0.2358 -0.5789
 4458TIP3    H234790   3.232   1.212  15.681  0.2529  0.0064 -0.9999
 4459TIP3   OH234791   4.869   2.218  13.370  0.0766 -0.4301  0.5321
 4459TIP3    H134792   4.879   2.210  13.275 -0.1552 -1.0834  0.5533
 4459TIP3    H234793   4.775   2.214  13.384  0.1196 -0.5009  0.8008
 4460TIP3   OH234794   1.391   2.961   4.799  0.3125  0.5668 -0.8824
 4460TIP3    H134795   1.311   3.007   4.825  0.2586  0.7486 -1.3563
 4460TIP3    H234796   1.360   2.894   4.737  0.2823 -0.6374  0.3725
 4461TIP3   OH234797   1.487   4.099  15.928  0.8084  0.2412  0.1607
 4461TIP3    H134798   1.555   4.097  15.995  3.2193  2.9380 -1.9241
 4461TIP3    H234799   1.473   4.193  15.912 -1.4958 -0.2865 -1.3618
 4462TIP3   OH234800   4.929   1.490   5.720  0.2052  0.3545 -0.5108
 4462TIP3    H134801   4.852   1.547   5.715  0.3576  0.9522  2.1983
 4462TIP3    H234802   4.996   1.536   5.671 -0.0341  1.9470  0.5778
 4463TIP3   OH234803   1.161   3.900  16.424 -0.8282 -0.1295 -0.8791
 4463TIP3    H134804   1.148   3.870  16.514  0.1543 -0.1009 -0.7201
 4463TIP3    H234805   1.110   3.981  16.418  0.0514  0.5111  0.0228
 4464TIP3   OH234806   2.917   2.401  10.911  0.0382 -0.0486 -0.1226
 4464TIP3    H134807   2.824   2.406  10.932  0.0117  3.9702 -0.4650
 4464TIP3    H234808   2.921   2.354  10.828 -1.5868 -0.6819  0.1293
 4465TIP3   OH234809   2.906   3.838  12.826 -0.0863  0.2431  0.2444
 4465TIP3    H134810   2.958   3.862  12.750  1.3688  1.6151  1.6028
 4465TIP3    H234811   2.929   3.746  12.843  0.4387  0.2757 -0.2812
 4466TIP3   OH234812   0.637   5.717  11.143  0.0097  0.0908  0.1291
 4466TIP3    H134813   0.573   5.770  11.097  0.7438  0.1410 -0.8727
 4466TIP3    H234814   0.721   5.760  11.125  0.3670 -0.1289  1.1797
 4467TIP3   OH234815   3.255   6.398   2.248 -0.3476  0.0768  0.0267
 4467TIP3    H134816   3.180   6.339   2.258 -0.5735  0.3999  0.2655
 4467TIP3    H234817   3.216   6.485   2.244  0.1241  0.4500  2.2777
 4468TIP3   OH234818   1.601   2.537   0.901 -0.2151  0.1426  0.0203
 4468TIP3    H134819   1.648   2.597   0.843 -1.2778  0.3863 -0.6067
 4468TIP3    H234820   1.517   2.579   0.916 -0.6956 -0.8477  0.1572
 4469TIP3   OH234821   0.827   3.720  15.694 -0.5467  0.2868 -0.5473
 4469TIP3    H134822   0.756   3.722  15.629  0.4373 -1.6635 -1.7874
 4469TIP3    H234823   0.785   3.686  15.773 -1.8838  3.1997  0.1203
 4470TIP3   OH234824   1.359   2.419   3.873  0.6249 -0.4758 -0.3165
 4470TIP3    H134825   1.360   2.471   3.954 -0.1985 -1.3077  0.2535
 4470TIP3    H234826   1.294   2.351   3.890  0.8864 -1.0258 -1.4636
 4471TIP3   OH234827   1.891   1.648  15.149  0.5295 -0.0968  0.0221
 4471TIP3    H134828   1.828   1.620  15.216  0.9995 -1.4278 -0.0562
 4471TIP3    H234829   1.977   1.634  15.190  0.8155 -0.5318 -0.7058
 4472TIP3   OH234830   6.097   5.449   0.353  0.1325 -0.6720 -0.4173
 4472TIP3    H134831   6.179   5.441   0.303 -0.5654 -1.3957 -1.4882
 4472TIP3    H234832   6.031   5.472   0.288 -0.8125 -1.6984  0.1341
 4473TIP3   OH234833   5.315   3.462  11.423  0.5009 -0.6387 -0.1099
 4473TIP3    H134834   5.249   3.398  11.450 -0.1648 -0.0292 -0.2649
 4473TIP3    H234835   5.361   3.419  11.350 -0.4506 -0.6446 -0.7239
 4474TIP3   OH234836   5.739   0.217   2.400 -0.5178  0.1054 -0.1972
 4474TIP3    H134837   5.688   0.213   2.319 -1.0839  1.0058  0.1007
 4474TIP3    H234838   5.679   0.187   2.468 -0.0483 -0.6337 -0.0989
 4475TIP3   OH234839   0.845   3.775  10.851 -0.6643 -0.6095  0.1786
 4475TIP3    H134840   0.837   3.724  10.771  1.0224 -1.0463  0.2509
 4475TIP3    H234841   0.894   3.719  10.911  0.7406  0.8435  0.4548
 4476TIP3   OH234842   2.861   3.961   1.875  0.2704 -0.0315  0.2951
 4476TIP3    H134843   2.887   4.052   1.889 -0.8934  0.1673  1.3190
 4476TIP3    H234844   2.940   3.910   1.893  1.0031  0.7767 -0.5451
 4477TIP3   OH234845   3.870   0.460   4.275 -0.1054  0.6643  0.3184
 4477TIP3    H134846   3.825   0.529   4.324 -0.8125 -0.7200  1.7177
 4477TIP3    H234847   3.850   0.380   4.323  2.8502 -0.2079  0.2688
 4478TIP3   OH234848   0.129   2.880   4.442 -0.1643 -0.2448 -0.2388
 4478TIP3    H134849   0.135   2.835   4.526  0.6831 -0.7795 -0.5741
 4478TIP3    H234850   0.042   2.859   4.410 -0.6329  0.2592  0.6642
 4479TIP3   OH234851   2.723   0.796  13.250 -0.6072  0.3498 -0.2518
 4479TIP3    H134852   2.677   0.861  13.303  0.9215  1.0814  0.2374
 4479TIP3    H234853   2.763   0.846  13.179  4.0496  0.8462  2.3228
 4480TIP3   OH234854   0.140   4.872   5.056 -0.2323  0.4575  0.0737
 4480TIP3    H134855   0.228   4.888   5.091 -1.0964 -0.4947  2.9762
 4480TIP3    H234856   0.082   4.918   5.117 -1.8217  0.8518 -1.6319
 4481TIP3   OH234857   1.620   1.208  13.159  0.3151  0.0931 -0.1474
 4481TIP3    H134858   1.558   1.221  13.231  0.5876 -0.6357  0.2283
 4481TIP3    H234859   1.681   1.142  13.191  1.1786  0.6528 -0.5815
 4482TIP3   OH234860   4.902   1.752   5.493 -0.2576 -0.0487  0.4142
 4482TIP3    H134861   4.822   1.785   5.535  0.2388 -1.0641  2.2738
 4482TIP3    H234862   4.955   1.830   5.478 -1.2501  0.5486 -0.1042
 4483TIP3   OH234863   1.746   0.326  15.520  0.5569  0.2768 -0.4379
 4483TIP3    H134864   1.767   0.381  15.595 -0.7311 -1.4031  1.2672
 4483TIP3    H234865   1.665   0.281  15.545  1.2180 -1.9401 -1.9485
 4484TIP3   OH234866   6.462   5.268   3.662  0.2924 -0.0598  0.3850
 4484TIP3    H134867   6.375   5.307   3.669 -0.1254 -0.9818  0.4835
 4484TIP3    H234868   6.522   5.342   3.657 -0.5745  0.5854 -0.6404
 4485TIP3   OH234869   2.407   5.450   2.529 -0.3481 -0.1950  0.4278
 4485TIP3    H134870   2.404   5.421   2.620 -0.7783  0.7176  0.7130
 4485TIP3    H234871   2.389   5.371   2.478 -4.3477 -0.0492  1.2574
 4486TIP3   OH234872   1.341   5.540  10.752 -0.6563  0.3711 -0.0071
 4486TIP3    H134873   1.362   5.606  10.819  0.7758  0.9097 -0.9569
 4486TIP3    H234874   1.346   5.457  10.799 -0.6796  0.7974  0.7838
 4487TIP3   OH234875   0.132   6.280   4.653  0.2191  0.9265 -0.1641
 4487TIP3    H134876   0.120   6.352   4.714  0.6200  0.0155  1.0377
 4487TIP3    H234877   0.224   6.254   4.663 -0.5785 -1.6067  1.6338
 4488TIP3   OH234878   5.949   6.178   1.277  0.2366 -0.5010  0.2308
 4488TIP3    H134879   5.953   6.083   1.267 -2.3212 -0.7021  0.5150
 4488TIP3    H234880   5.928   6.192   1.369  0.2962  0.3212  0.1303
 4489TIP3   OH234881   3.482   6.539   0.078 -0.1685  0.5585  0.6663
 4489TIP3    H134882   3.555   6.594   0.106  0.0520  0.5986  0.0347
 4489TIP3    H234883   3.494   6.457   0.126  1.6049 -0.2911 -1.0601
 4490TIP3   OH234884   1.990   0.539  14.351 -0.4728  0.1060 -0.4150
 4490TIP3    H134885   1.990   0.622  14.303 -3.5866 -1.5018 -3.6297
 4490TIP3    H234886   1.971   0.564  14.442 -0.5641  2.9132 -1.1069
 4491TIP3   OH234887   5.881   1.047   3.845  0.6597  0.1678  0.1103
 4491TIP3    H134888   5.826   0.970   3.832 -3.1193  2.5347  0.6897
 4491TIP3    H234889   5.875   1.066   3.939  0.7181  1.7157 -0.1769
 4492TIP3   OH234890   3.889   5.110   3.625 -0.8486  0.5721  0.7629
 4492TIP3    H134891   3.978   5.138   3.603 -0.8403  0.8505  1.1265
 4492TIP3    H234892   3.878   5.026   3.581 -0.5631  0.7461  0.3517
 4493TIP3   OH234893   5.889   5.919  15.030 -0.0970 -1.1819 -0.0542
 4493TIP3    H134894   5.917   5.987  15.091 -1.7139 -0.9952  0.5297
 4493TIP3    H234895   5.865   5.966  14.951 -2.1852 -0.8841  0.6851
 4494TIP3   OH234896   3.256   5.490  13.084 -0.3934  0.2627  0.5537
 4494TIP3    H134897   3.248   5.488  12.989 -0.7786 -2.1839  0.5904
 4494TIP3    H234898   3.350   5.496  13.100 -0.1774 -1.2217 -0.0188
 4495TIP3   OH234899   1.550   4.951  11.671  0.1471  0.1432 -0.2599
 4495TIP3    H134900   1.529   4.865  11.707  2.2182 -0.1231  0.4716
 4495TIP3    H234901   1.572   4.933  11.580  1.1040 -0.2392  0.0232
 4496TIP3   OH234902   3.149   2.157   5.319 -0.3116  0.1866  0.2758
 4496TIP3    H134903   3.211   2.098   5.363 -0.2014  1.4171  1.8446
 4496TIP3    H234904   3.182   2.245   5.336 -2.4246  0.8867  1.0945
 4497TIP3   OH234905   0.246   2.123  11.863  0.0398  0.2857 -0.7148
 4497TIP3    H134906   0.239   2.158  11.952  1.2787 -0.6574 -0.2114
 4497TIP3    H234907   0.217   2.032  11.871  0.9417 -0.0415 -1.0949
 4498TIP3   OH234908   0.943   6.465   1.981  0.3483  0.1843 -0.2644
 4498TIP3    H134909   0.956   6.382   2.028  0.3319  0.2705 -0.1094
 4498TIP3    H234910   1.031   6.494   1.960  0.3225 -1.1495 -2.5577
 4499TIP3   OH234911   6.792   5.755  15.987 -0.6177 -0.0623 -0.3789
 4499TIP3    H134912   6.790   5.684  15.923  1.1194 -0.2953 -0.2468
 4499TIP3    H234913   6.834   5.717  16.064 -0.8829  0.7417  0.1787
 4500TIP3   OH234914   5.400   2.624  13.536 -0.2204 -0.4412  0.3688
 4500TIP3    H134915   5.355   2.630  13.620 -1.4260  0.2466 -0.2945
 4500TIP3    H234916   5.341   2.572  13.481 -0.2890  0.6017 -0.5702
 4501TIP3   OH234917   2.968   3.350  14.958 -0.1823 -0.6865 -0.0891
 4501TIP3    H134918   3.048   3.389  14.923 -0.1362 -0.8602 -0.1816
 4501TIP3    H234919   2.958   3.268  14.909  1.0517 -2.0026  1.7401
 4502TIP3   OH234920   2.343   0.366   2.594 -0.6415  0.4526 -0.0570
 4502TIP3    H134921   2.384   0.427   2.656  2.5216 -1.6375  0.1612
 4502TIP3    H234922   2.323   0.289   2.646 -1.7989  0.1617 -0.8931
 4503TIP3   OH234923   2.950   6.082  13.357  0.4041 -0.0807 -0.3272
 4503TIP3    H134924   3.001   6.025  13.415  0.4102  0.2479 -0.0093
 4503TIP3    H234925   2.976   6.171  13.382  0.0591  0.0740 -0.5162
 4504TIP3   OH234926   5.594   3.435  12.377  0.5235 -0.4796 -0.2983
 4504TIP3    H134927   5.506   3.402  12.398  0.4547 -0.4997 -0.6219
 4504TIP3    H234928   5.652   3.362  12.396  0.4596 -0.5072 -0.2041
 4505TIP3   OH234929   5.356   2.386  11.451  0.0286  0.5046  0.4666
 4505TIP3    H134930   5.425   2.339  11.403 -2.1821 -3.2677  0.6140
 4505TIP3    H234931   5.376   2.371  11.543 -0.4342  0.2307  0.5250
 4506TIP3   OH234932   1.349   5.430  16.746 -0.3083 -0.3951  0.2328
 4506TIP3    H134933   1.392   5.411  16.663 -2.4452 -0.9229 -0.8369
 4506TIP3    H234934   1.320   5.521  16.738  0.5245 -0.0603  0.9116
 4507TIP3   OH234935   2.333   3.394   2.394 -0.0738  0.2852 -0.2620
 4507TIP3    H134936   2.315   3.315   2.343 -0.0329 -1.0747  1.7347
 4507TIP3    H234937   2.375   3.454   2.331 -1.9938 -0.4196 -2.3507
 4508TIP3   OH234938   6.366   4.633   4.366 -0.6972 -0.3978 -0.1769
 4508TIP3    H134939   6.361   4.662   4.457 -0.0534  0.2430 -0.3361
 4508TIP3    H234940   6.457   4.605   4.355 -0.2355  1.3146 -1.1263
 4509TIP3   OH234941   6.293   3.896   3.465 -0.0694  0.6541  0.2634
 4509TIP3    H134942   6.220   3.904   3.526  0.2312  0.1479  0.7037
 4509TIP3    H234943   6.284   3.808   3.428  1.3676 -0.1836  1.7444
 4510TIP3   OH234944   3.756   6.132  12.522 -0.5876 -0.1818 -0.6277
 4510TIP3    H134945   3.817   6.092  12.584 -0.8035  1.3177  0.6059
 4510TIP3    H234946   3.674   6.083  12.536 -0.5714 -0.0127  0.1378
 4511TIP3   OH234947   4.105   2.806  13.089  0.5725 -0.3208  0.1621
 4511TIP3    H134948   4.153   2.724  13.085  0.3921 -0.3960 -3.2919
 4511TIP3    H234949   4.147   2.862  13.023 -0.3605  1.7781  1.2297
 4512TIP3   OH234950   5.742   5.114   3.356  0.0147 -0.1491  0.2966
 4512TIP3    H134951   5.730   5.120   3.450 -2.0044  2.8856 -0.0312
 4512TIP3    H234952   5.785   5.196   3.331  0.5849 -0.9234 -1.4301
 4513TIP3   OH234953   2.224   5.365  15.223  0.5722 -0.0674  0.2459
 4513TIP3    H134954   2.306   5.413  15.210 -0.1180  1.1571  0.2827
 4513TIP3    H234955   2.249   5.289  15.276  1.4885  0.9041  1.2670
 4514TIP3   OH234956   3.519   3.586   0.823  0.3365  0.0756  0.0449
 4514TIP3    H134957   3.481   3.673   0.808 -2.1999 -1.0949 -1.0672
 4514TIP3    H234958   3.603   3.602   0.866  0.2530  3.0775 -0.7393
 4515TIP3   OH234959   4.560   5.865  12.511 -0.3136  0.3931  0.6536
 4515TIP3    H134960   4.548   5.940  12.453 -0.8344  2.0759  2.8012
 4515TIP3    H234961   4.476   5.855  12.556 -0.5391 -2.0710 -0.1608
 4516TIP3   OH234962   0.424   0.354  15.333 -0.6667  0.2071  0.1335
 4516TIP3    H134963   0.507   0.362  15.287 -1.2660 -0.9576 -1.2402
 4516TIP3    H234964   0.445   0.372  15.424  1.0586  0.0812 -0.2099
 4517TIP3   OH234965   0.736   4.361  13.406 -0.1027 -0.0365 -0.3605
 4517TIP3    H134966   0.761   4.271  13.387  0.5887  0.0582  0.0995
 4517TIP3    H234967   0.669   4.353  13.474 -0.0644 -0.2062 -0.3415
 4518TIP3   OH234968   6.484   5.345   1.823  0.6038  0.4741 -0.5199
 4518TIP3    H134969   6.492   5.306   1.736 -2.2387 -0.4526 -0.4765
 4518TIP3    H234970   6.390   5.340   1.843  0.9148  2.3136  1.8633
 4519TIP3   OH234971   1.306   5.540   0.367 -0.4989  0.1519 -0.6091
 4519TIP3    H134972   1.292   5.616   0.424 -1.7425  1.5854 -2.6863
 4519TIP3    H234973   1.237   5.546   0.302  0.9962 -1.2375 -2.4389
 4520TIP3   OH234974   4.320   3.223   0.230 -0.0882  0.1851  0.0345
 4520TIP3    H134975   4.344   3.130   0.238 -0.5665 -0.1228 -1.6420
 4520TIP3    H234976   4.370   3.267   0.298  0.7635 -1.2038  0.3506
 4521TIP3   OH234977   4.732   6.575  11.598 -0.2567 -0.5678  0.4036
 4521TIP3    H134978   4.655   6.572  11.540  0.7942 -1.8870 -0.9832
 4521TIP3    H234979   4.728   6.663  11.637 -1.1114  0.3108 -1.5245
 4522TIP3   OH234980   1.835   1.927  14.016 -0.1819 -0.1608  0.0846
 4522TIP3    H134981   1.860   1.986  14.087 -0.2330  0.6191 -0.5305
 4522TIP3    H234982   1.766   1.872  14.053  1.1292 -1.0952  1.2294
 4523TIP3   OH234983   4.069   3.008   2.854 -0.1755  0.1670 -0.3539
 4523TIP3    H134984   4.152   2.971   2.884  0.0998 -0.2804 -1.6199
 4523TIP3    H234985   4.031   3.048   2.932  2.4399  2.7142 -0.2129
 4524TIP3   OH234986   2.841   0.494  11.231 -0.5623 -0.0102 -0.8240
 4524TIP3    H134987   2.777   0.557  11.199 -0.1603 -1.0645 -4.1672
 4524TIP3    H234988   2.800   0.454  11.308 -2.6323  1.3289 -1.1671
 4525TIP3   OH234989   5.921   6.406  15.060 -0.1239 -0.3978  0.4590
 4525TIP3    H134990   5.979   6.396  15.135  2.5529 -0.1026 -1.4365
 4525TIP3    H234991   5.963   6.473  15.006 -2.2783 -0.1569 -1.0276
 4526TIP3   OH234992   0.085   1.944  11.266 -0.2428 -0.3209  0.1210
 4526TIP3    H134993   0.010   1.885  11.255 -0.7389  0.3548 -0.1963
 4526TIP3    H234994   0.140   1.927  11.190 -0.8185  0.2372 -0.4324
 4527TIP3   OH234995   1.510   6.651  15.166 -0.0284  0.0016 -0.0054
 4527TIP3    H134996   1.532   6.606  15.248 -0.4657  1.3217  0.8729
 4527TIP3    H234997   1.493   6.741  15.193  0.2631  0.5646 -1.6338
 4528TIP3   OH234998   4.675   2.343  10.463  0.4381 -0.1552  0.6547
 4528TIP3    H134999   4.766   2.366  10.449 -0.0876  1.4665 -0.3544
 4528TIP3    H235000   4.633   2.425  10.489 -0.9540 -0.5669 -0.1708
 4529TIP3   OH235001   4.549   6.232  13.274  0.1415 -0.7099  0.4431
 4529TIP3    H135002   4.632   6.194  13.244  0.8578  0.7491  0.5093
 4529TIP3    H235003   4.488   6.158  13.273  1.0672 -1.5186 -1.0120
 4530TIP3   OH235004   2.965   2.410  16.733 -0.7767 -0.0348  0.2241
 4530TIP3    H135005   2.903   2.340  16.713  0.6557 -0.5543 -3.1257
 4530TIP3    H235006   2.923   2.489  16.699 -0.9030  0.1621  0.8243
 4531TIP3   OH235007   5.882   0.012   2.555 -0.4716 -0.2149 -0.1277
 4531TIP3    H135008   5.850   0.063   2.480  1.4978  0.8087 -0.3457
 4531TIP3    H235009   5.861  -0.079   2.533  1.4054 -0.1377 -2.7302
 4532TIP3   OH235010   1.850   2.175  16.512 -0.4602  1.1157 -0.5842
 4532TIP3    H135011   1.804   2.144  16.590 -1.7913  0.3549 -1.6264
 4532TIP3    H235012   1.792   2.243  16.476  0.6168  2.1683 -0.3981
 4533TIP3   OH235013   0.306   0.194  15.860 -0.2554 -0.0686 -0.2950
 4533TIP3    H135014   0.263   0.140  15.925  0.9591 -0.6736  0.0449
 4533TIP3    H235015   0.282   0.284  15.883  1.2103 -0.1575  1.8460
 4534TIP3   OH235016   3.411   2.212   4.276  0.4359  0.3432  0.1069
 4534TIP3    H135017   3.438   2.299   4.246 -0.1347  1.1185  1.7720
 4534TIP3    H235018   3.403   2.161   4.195  0.8156  1.8132 -0.9029
 4535TIP3   OH235019   0.340   2.888  15.559 -0.5113  0.7451  0.7627
 4535TIP3    H135020   0.289   2.809  15.541  0.3154  0.1553  0.9118
 4535TIP3    H235021   0.350   2.931  15.474 -0.8240  0.5986  0.6522
 4536TIP3   OH235022   2.567   4.878   2.762  0.1148  0.4179  0.6077
 4536TIP3    H135023   2.640   4.937   2.782  1.4010 -0.6441 -0.7138
 4536TIP3    H235024   2.514   4.877   2.841  0.3475  2.8913  0.8736
 4537TIP3   OH235025   5.734   1.754  16.012  0.0319 -0.0808 -0.0070
 4537TIP3    H135026   5.760   1.685  15.952 -0.3858 -1.0311  0.8749
 4537TIP3    H235027   5.662   1.716  16.062  2.4103 -0.5674  3.3596
 4538TIP3   OH235028   1.822   3.179  15.180  0.0248  0.2015 -0.2556
 4538TIP3    H135029   1.811   3.227  15.097 -0.8309  2.1100  0.8863
 4538TIP3    H235030   1.916   3.180  15.195  0.2536 -0.6619 -1.4571
 4539TIP3   OH235031   4.350   2.700   3.559 -0.5565  0.0560  0.0628
 4539TIP3    H135032   4.281   2.766   3.574 -0.9967 -0.1439 -1.0333
 4539TIP3    H235033   4.426   2.751   3.533  0.2450  0.4244  2.8286
 4540TIP3   OH235034   0.137   5.554   5.361  0.0038  0.0758 -0.0184
 4540TIP3    H135035   0.067   5.599   5.408  0.8952  1.2867  0.1797
 4540TIP3    H235036   0.217   5.579   5.406  0.8305  0.8240 -1.8115
 4541TIP3   OH235037   3.456   4.642  10.264 -0.0256 -0.3170 -0.2723
 4541TIP3    H135038   3.516   4.638  10.339 -0.3627  0.2303  0.0358
 4541TIP3    H235039   3.370   4.624  10.302 -0.2880  0.5994 -0.4056
 4542TIP3   OH235040   1.350   1.454  12.080 -0.4782 -0.2002  0.1876
 4542TIP3    H135041   1.344   1.440  11.986  1.7602 -1.2498  0.1367
 4542TIP3    H235042   1.347   1.549  12.091 -1.4788 -0.0961 -0.8485
 4543TIP3   OH235043   4.370   4.772  16.212 -0.1893  0.2118 -0.1763
 4543TIP3    H135044   4.441   4.836  16.206 -1.5938  1.7172 -5.0145
 4543TIP3    H235045   4.415   4.689  16.229  2.0592  1.8000  2.4568
 4544TIP3   OH235046   4.999   1.082  10.965  0.4638 -0.1358 -0.0967
 4544TIP3    H135047   4.987   1.172  10.992  0.8186 -0.1437  0.1031
 4544TIP3    H235048   5.034   1.088  10.876 -0.3733 -0.1014 -0.4306
 4545TIP3   OH235049   0.182   5.068  13.363 -0.0717  0.1509  0.1651
 4545TIP3    H135050   0.142   5.146  13.324 -1.7060  0.0679  1.5251
 4545TIP3    H235051   0.121   4.997  13.341  0.5524 -0.4386  0.3104
 4546TIP3   OH235052   2.529   1.095  14.917  0.1870 -0.5094 -0.8064
 4546TIP3    H135053   2.483   1.049  14.987 -0.2764  0.1479 -0.6773
 4546TIP3    H235054   2.465   1.158  14.883  0.7754 -0.0421 -1.0612
 4547TIP3   OH235055   2.120   1.123  10.787 -0.1963 -0.6478  0.0348
 4547TIP3    H135056   2.147   1.106  10.878  0.3532  0.8836  0.1952
 4547TIP3    H235057   2.077   1.209  10.791 -1.8991 -1.4205 -0.8548
 4548TIP3   OH235058   4.102   2.161  12.414  0.3202  0.0607 -0.0928
 4548TIP3    H135059   4.175   2.176  12.354 -0.5985  1.1509 -0.9964
 4548TIP3    H235060   4.100   2.066  12.428  0.4830 -0.2453 -1.9225
 4549TIP3   OH235061   4.205   2.574   3.247 -0.0608 -0.4094 -0.0495
 4549TIP3    H135062   4.144   2.539   3.182  0.4511 -1.2090 -0.1155
 4549TIP3    H235063   4.174   2.540   3.330 -0.9228  0.9017  0.1864
 4550TIP3   OH235064   0.626   0.680   1.824 -0.0816 -0.1714  0.1342
 4550TIP3    H135065   0.669   0.713   1.746 -2.0977  2.6948  0.0749
 4550TIP3    H235066   0.622   0.585   1.811 -0.0988  0.1654 -3.1013
 4551TIP3   OH235067   2.743   0.697   3.843  0.1411  0.0289 -0.3192
 4551TIP3    H135068   2.687   0.719   3.768 -0.2075  2.0843  0.4915
 4551TIP3    H235069   2.754   0.602   3.837  0.3089  0.1335 -3.1024
 4552TIP3   OH235070   5.168   6.099   5.486  0.1807 -0.0040 -0.5132
 4552TIP3    H135071   5.120   6.043   5.425 -0.2233  0.0298 -0.2258
 4552TIP3    H235072   5.195   6.175   5.433 -0.5509  0.2367 -0.5453
 4553TIP3   OH235073   1.688   2.692  14.424 -0.5648  0.1121 -0.2698
 4553TIP3    H135074   1.744   2.619  14.396 -0.0281  0.7109 -0.7926
 4553TIP3    H235075   1.604   2.651  14.445 -0.0837 -0.7385  0.0518
 4554TIP3   OH235076   2.823   1.554  15.552 -0.2945 -1.0071  0.1553
 4554TIP3    H135077   2.767   1.562  15.629  0.8980 -1.2862  1.0686
 4554TIP3    H235078   2.766   1.579  15.479 -1.1652  0.2257  1.2071
 4555TIP3   OH235079   2.689   4.118  11.689 -0.4579 -0.3456  0.0821
 4555TIP3    H135080   2.649   4.159  11.612  2.7305  5.2110  0.7836
 4555TIP3    H235081   2.641   4.155  11.763  1.9859  1.9220  0.7333
 4556TIP3   OH235082   0.911   1.912  15.747  0.1931 -0.6084 -0.7331
 4556TIP3    H135083   0.840   1.878  15.694 -1.4381  0.6187  0.5338
 4556TIP3    H235084   0.868   1.947  15.825  2.4028 -1.7811  1.1430
 4557TIP3   OH235085   5.724   4.630   3.876  0.0123 -0.2730  0.1794
 4557TIP3    H135086   5.690   4.716   3.849 -1.0122 -0.6999  0.0636
 4557TIP3    H235087   5.661   4.567   3.842  1.0916 -1.1396 -0.2849
 4558TIP3   OH235088   0.589   1.841   2.108 -0.1117  0.4179 -0.4950
 4558TIP3    H135089   0.596   1.888   2.024  1.3969 -1.5057 -1.5212
 4558TIP3    H235090   0.678   1.811   2.126 -1.2640 -4.2115 -1.2612
 4559TIP3   OH235091   2.076   5.581  11.449  0.8750 -0.1393  0.0960
 4559TIP3    H135092   2.054   5.666  11.412  2.7406  0.7368  0.8790
 4559TIP3    H235093   1.998   5.527  11.434  1.0155  0.4589 -3.9866
 4560TIP3   OH235094   4.624   1.956   1.875  0.4575  0.9572 -0.1892
 4560TIP3    H135095   4.586   2.039   1.904  2.2346  1.7022  0.1415
 4560TIP3    H235096   4.696   1.981   1.818  1.4157 -0.3315  0.4031
 4561TIP3   OH235097   2.644   5.493  15.184 -0.6444 -0.2214  0.3295
 4561TIP3    H135098   2.704   5.431  15.143 -2.7373 -0.5897 -2.4571
 4561TIP3    H235099   2.625   5.454  15.269  0.4424 -1.8360 -0.1051
 4562TIP3   OH235100   3.950   5.974   3.038  0.2018  0.8577 -0.1148
 4562TIP3    H135101   3.890   5.967   2.964 -0.6221 -0.1414  0.6290
 4562TIP3    H235102   4.000   5.892   3.036  1.3563  1.5366 -0.5308
 4563TIP3   OH235103   5.730   4.577  13.452  0.3493  0.9141 -0.2668
 4563TIP3    H135104   5.729   4.498  13.506 -0.7590  1.8858  1.1963
 4563TIP3    H235105   5.639   4.604  13.448  0.3346  0.7897 -2.8477
 4564TIP3   OH235106   5.514   5.175  13.586 -0.1336  0.4520 -0.1661
 4564TIP3    H135107   5.558   5.227  13.654 -0.1680  1.1942 -0.6915
 4564TIP3    H235108   5.561   5.198  13.505  0.0956 -0.6441 -0.3502
 4565TIP3   OH235109   1.489   6.457   3.416  0.1826  0.0518  0.2090
 4565TIP3    H135110   1.516   6.436   3.505 -1.2552 -0.7350  0.4919
 4565TIP3    H235111   1.449   6.376   3.383 -1.9007  1.1452 -0.1206
 4566TIP3   OH235112   6.415   1.187   3.575  0.1890  0.0712 -0.1095
 4566TIP3    H135113   6.327   1.183   3.537  0.4637 -0.3903 -0.7145
 4566TIP3    H235114   6.443   1.277   3.562  1.0611 -0.4986 -2.8750
 4567TIP3   OH235115   0.028   6.614  15.140  0.1246 -0.2340  0.0659
 4567TIP3    H135116  -0.038   6.577  15.082  0.0434 -0.1083  0.0790
 4567TIP3    H235117  -0.004   6.596  15.228  0.0913 -0.1417  0.0725
 4568TIP3   OH235118   2.600   5.748  15.119  0.3114 -0.3064  0.2022
 4568TIP3    H135119   2.593   5.653  15.130 -1.2947 -0.2912 -0.4163
 4568TIP3    H235120   2.512   5.781  15.138  0.1440  0.7582 -2.0358
 4569TIP3   OH235121   0.175   0.937   5.574  0.2250  0.1095 -0.3365
 4569TIP3    H135122   0.253   0.935   5.518 -0.0313  1.8159 -0.7893
 4569TIP3    H235123   0.189   1.012   5.632 -1.0341  0.3777 -0.3634
 4570TIP3   OH235124   0.317   5.724  10.405 -0.3038 -0.8197  0.4223
 4570TIP3    H135125   0.338   5.814  10.379 -3.0239  0.0801  1.0086
 4570TIP3    H235126   0.347   5.717  10.496 -0.3693 -0.3965  0.4778
 4571TIP3   OH235127   1.607   3.120   3.080 -0.3691 -0.1166  0.5202
 4571TIP3    H135128   1.592   3.196   3.024 -0.2271 -0.3868  0.1080
 4571TIP3    H235129   1.531   3.064   3.067  0.3018 -0.8259 -0.4837
 4572TIP3   OH235130   2.448   5.797   4.731  0.1852  0.2201  0.3816
 4572TIP3    H135131   2.477   5.871   4.784  0.3072  0.5777 -0.1762
 4572TIP3    H235132   2.501   5.723   4.762 -0.6182  0.1347  1.6076
 4573TIP3   OH235133   2.192   3.347  12.419  0.0323  0.4970  0.6961
 4573TIP3    H135134   2.174   3.424  12.473  0.3673  0.3974  0.9542
 4573TIP3    H235135   2.285   3.329  12.433 -0.3016 -0.6884  1.6013
 4574TIP3   OH235136   4.811   6.261   3.438 -0.2246  0.0477  0.0420
 4574TIP3    H135137   4.718   6.243   3.423 -0.4305  0.5863  0.6316
 4574TIP3    H235138   4.831   6.219   3.521  0.2290 -0.6150 -0.3935
 4575TIP3   OH235139   4.575   3.925  15.479  0.0266  0.1254 -0.1210
 4575TIP3    H135140   4.639   3.975  15.429 -0.4287  0.3382 -0.5075
 4575TIP3    H235141   4.495   3.929  15.426 -0.1513 -0.6108  0.0761
 4576TIP3   OH235142   1.285   4.537  11.215 -0.4009  0.4961  0.2772
 4576TIP3    H135143   1.244   4.505  11.135 -1.7038  0.8833  0.7619
 4576TIP3    H235144   1.348   4.603  11.186  0.4836 -0.6643 -0.5383
 4577TIP3   OH235145   5.094   3.206  13.186 -0.4806 -0.4080  0.1837
 4577TIP3    H135146   5.101   3.228  13.279 -0.6293 -1.2463  0.4029
 4577TIP3    H235147   5.052   3.282  13.146 -0.4420 -0.0549  0.8073
 4578TIP3   OH235148   2.499   1.949  16.242  0.0407  0.3765  0.3848
 4578TIP3    H135149   2.569   1.912  16.189 -1.3949 -0.5229 -0.9482
 4578TIP3    H235150   2.520   1.921  16.332  0.3402 -1.5772 -0.2497
 4579TIP3   OH235151   5.837   5.911  11.171 -0.4803 -0.2236 -0.1232
 4579TIP3    H135152   5.859   5.906  11.264 -2.8116  1.7292  0.6696
 4579TIP3    H235153   5.913   5.875  11.126  1.4884  0.3756  2.4636
 4580TIP3   OH235154   5.129   4.520   3.878 -0.2527 -0.5735 -0.0863
 4580TIP3    H135155   5.136   4.471   3.796  0.8597 -1.6062  0.6041
 4580TIP3    H235156   5.120   4.612   3.850  0.4602 -0.8685 -1.3614
 4581TIP3   OH235157   5.974   4.590  11.137 -0.0902  0.0495  0.9619
 4581TIP3    H135158   6.023   4.625  11.212  0.3058  1.2283  0.1789
 4581TIP3    H235159   5.920   4.663  11.107 -0.0220 -0.3165 -0.0848
 4582TIP3   OH235160   0.391   4.831  11.663  0.2219  0.0692  0.0243
 4582TIP3    H135161   0.432   4.898  11.718  1.2675 -1.2304  0.8830
 4582TIP3    H235162   0.465   4.782  11.626 -0.4698  0.5539 -2.1247
 4583TIP3   OH235163   3.589   1.707  16.937  0.1337 -0.0122  0.6567
 4583TIP3    H135164   3.525   1.669  16.997 -2.1562  2.0437 -0.3236
 4583TIP3    H235165   3.665   1.727  16.992 -1.1625  0.0851  2.4843
 4584TIP3   OH235166   0.410   3.459   5.277  0.6847  0.2397  0.4029
 4584TIP3    H135167   0.462   3.448   5.197  2.1739  0.6585  1.2655
 4584TIP3    H235168   0.319   3.462   5.247  1.1586 -0.4182 -1.1824
 4585TIP3   OH235169   3.791   6.094  13.722 -0.2432  0.1415  0.0023
 4585TIP3    H135170   3.867   6.038  13.736  0.5249  0.7155 -1.6006
 4585TIP3    H235171   3.744   6.092  13.805  0.3323 -1.9931  0.3428
 4586TIP3   OH235172   5.755   1.025  15.710  0.3974  0.7806 -0.6952
 4586TIP3    H135173   5.837   0.979  15.725  1.8026  2.9802 -1.2779
 4586TIP3    H235174   5.688   0.957  15.717  2.1647 -0.9280  0.6160
 4587TIP3   OH235175   0.570   3.702   3.821  0.9796  0.3345  0.0159
 4587TIP3    H135176   0.655   3.694   3.776  1.6468  0.8009  1.1535
 4587TIP3    H235177   0.505   3.691   3.751  1.9739  0.2685 -0.9312
 4588TIP3   OH235178   2.036   4.396   1.152  0.4323  0.0817 -0.0958
 4588TIP3    H135179   1.975   4.433   1.215  0.6553  0.3075 -0.0101
 4588TIP3    H235180   2.049   4.306   1.180  0.0411 -0.0065 -0.1892
 4589TIP3   OH235181   0.439   3.640  12.728 -0.0999 -0.4998  0.4170
 4589TIP3    H135182   0.360   3.618  12.777 -2.7516  1.8227 -2.3595
 4589TIP3    H235183   0.428   3.594  12.644  0.7251  0.9643 -0.5316
 4590TIP3   OH235184   3.848   6.203   0.834  0.1025  0.3426 -0.1482
 4590TIP3    H135185   3.898   6.270   0.881  0.6176 -1.1365  1.5012
 4590TIP3    H235186   3.913   6.137   0.809 -0.6147 -0.2856 -0.4119
 4591TIP3   OH235187   4.718   3.327  17.056 -0.6358  0.2542 -0.2200
 4591TIP3    H135188   4.719   3.391  16.984 -0.4384 -0.0586 -0.4972
 4591TIP3    H235189   4.810   3.300  17.065 -0.6164  0.4795  0.3218
 4592TIP3   OH235190   6.267   5.323   2.079  0.0818  0.7038  0.0577
 4592TIP3    H135191   6.192   5.285   2.123 -0.1129  0.7241 -0.2523
 4592TIP3    H235192   6.235   5.406   2.044  0.2272  0.6810 -0.1328
 4593TIP3   OH235193   2.026   3.291   6.149  0.0157 -0.2138 -0.3206
 4593TIP3    H135194   2.073   3.228   6.204  0.2771  0.5487  0.3654
 4593TIP3    H235195   1.964   3.333   6.209  0.4166  0.7498 -0.5481
 4594TIP3   OH235196   3.371   3.286  15.277 -0.5023 -0.2759 -0.1552
 4594TIP3    H135197   3.344   3.353  15.340 -1.4435  0.4335 -1.2666
 4594TIP3    H235198   3.373   3.205  15.327  0.8202  0.5757  1.2768
 4595TIP3   OH235199   2.321   1.265  14.830  0.0361 -0.0863 -0.4193
 4595TIP3    H135200   2.310   1.304  14.917 -0.4302 -0.7665 -0.1627
 4595TIP3    H235201   2.368   1.331  14.779  0.8178  0.0910  0.5123
 4596TIP3   OH235202   5.745   6.085  15.746 -0.0414  0.2126  0.1738
 4596TIP3    H135203   5.665   6.120  15.705 -0.0831  0.8545  0.7797
 4596TIP3    H235204   5.807   6.158  15.743 -0.2900  0.5359  1.8942
 4597TIP3   OH235205   1.741   1.556   0.173  0.5883  0.0484  0.3177
 4597TIP3    H135206   1.695   1.491   0.119  0.8455  0.3321 -0.2532
 4597TIP3    H235207   1.813   1.507   0.213 -0.4869 -0.5221  1.6257
 4598TIP3   OH235208   3.869   0.952  12.964  0.4413 -0.0206 -0.0132
 4598TIP3    H135209   3.902   1.041  12.952  0.5582 -0.1721 -0.9029
 4598TIP3    H235210   3.821   0.955  13.046 -0.6589  1.2012 -0.6608
 4599TIP3   OH235211   1.088   3.179   2.467 -0.0369  0.5127  0.3451
 4599TIP3    H135212   1.177   3.145   2.459  0.3794  1.8472 -0.9419
 4599TIP3    H235213   1.035   3.117   2.418  0.2696  0.0775  0.5520
 4600TIP3   OH235214   2.836   2.916   0.667  0.0708 -0.0244 -0.0303
 4600TIP3    H135215   2.903   2.979   0.641 -0.4264 -0.4015 -2.4725
 4600TIP3    H235216   2.871   2.831   0.640  0.1790 -0.7081  2.0642
 4601TIP3   OH235217   5.676   6.402   1.334  0.2317 -0.0991 -0.1341
 4601TIP3    H135218   5.599   6.446   1.369 -0.1242  0.0665 -1.0965
 4601TIP3    H235219   5.659   6.308   1.348 -0.5861 -0.1246 -1.1853
 4602TIP3   OH235220   2.574   3.908   5.449  0.8990 -0.5957 -0.2867
 4602TIP3    H135221   2.571   3.835   5.510 -0.5642 -0.5222 -0.2422
 4602TIP3    H235222   2.667   3.922   5.432  1.3578 -0.4052  2.1574
 4603TIP3   OH235223   3.044   6.722   4.284 -0.1180 -0.2980  0.1710
 4603TIP3    H135224   3.059   6.701   4.376  2.4496 -1.0509 -0.3450
 4603TIP3    H235225   3.042   6.637   4.240 -0.0853  0.0952 -0.6115
 4604TIP3   OH235226   6.089   5.859  15.859 -0.0714 -0.1382 -0.4732
 4604TIP3    H135227   6.137   5.777  15.847  2.3381  1.1303  0.0417
 4604TIP3    H235228   6.023   5.838  15.926  0.8162 -1.5353 -0.0013
 4605TIP3   OH235229   0.427   6.528  16.013 -0.3018 -0.0559  0.3906
 4605TIP3    H135230   0.437   6.566  15.926 -1.9258  0.6254  0.4714
 4605TIP3    H235231   0.414   6.434  15.997 -3.0442  0.3460 -0.3614
 4606TIP3   OH235232   5.358   3.701   6.503  0.4519 -0.7014  0.2083
 4606TIP3    H135233   5.344   3.607   6.511  0.3746 -0.5765  1.8628
 4606TIP3    H235234   5.293   3.740   6.561  3.2614  0.1660  3.0286
 4607TIP3   OH235235   0.203   0.426   0.217  0.3292  0.0960  0.4155
 4607TIP3    H135236   0.278   0.408   0.160 -0.9419 -1.8502 -0.7471
 4607TIP3    H235237   0.219   0.515   0.250  3.2599 -0.3391  0.4383
 4608TIP3   OH235238   2.974   5.220   2.195 -0.3234 -0.3473  0.1674
 4608TIP3    H135239   3.001   5.130   2.178  0.0379  0.3036 -3.4474
 4608TIP3    H235240   3.056   5.270   2.197 -0.6532  0.2310 -0.3846
 4609TIP3   OH235241   0.732   3.496   0.711 -0.0287  0.5873  0.0941
 4609TIP3    H135242   0.670   3.426   0.692 -0.0436  0.9086 -1.1017
 4609TIP3    H235243   0.763   3.477   0.800 -2.2356  0.7247  0.9641
 4610TIP3   OH235244   3.615   1.979  11.982 -0.6581 -0.2157 -0.0600
 4610TIP3    H135245   3.613   2.027  11.899  0.5672  0.1762  0.1172
 4610TIP3    H235246   3.674   2.029  12.038 -0.5060 -1.1366  0.6356
 4611TIP3   OH235247   0.731   1.588   5.554 -0.5704  0.3975 -0.5200
 4611TIP3    H135248   0.649   1.604   5.507 -0.6780  1.2114 -0.0710
 4611TIP3    H235249   0.746   1.494   5.544 -1.7331  0.1776 -0.3269
 4612TIP3   OH235250   5.031   0.182   3.786 -0.0446 -0.2896  0.2753
 4612TIP3    H135251   5.045   0.092   3.756 -0.8176 -0.4808  0.4705
 4612TIP3    H235252   4.937   0.197   3.774 -0.2615 -0.1219  1.8846
 4613TIP3   OH235253   2.943   1.884   3.575 -0.0812  0.0488  0.2538
 4613TIP3    H135254   2.928   1.978   3.588 -2.0039 -0.0898 -0.5400
 4613TIP3    H235255   3.033   1.878   3.545  0.0290  1.6668  0.1498
 4614TIP3   OH235256   4.327   2.661   5.310 -0.2072 -0.0916 -0.5215
 4614TIP3    H135257   4.276   2.717   5.368  0.6890  0.5022 -0.2946
 4614TIP3    H235258   4.300   2.572   5.333  1.3405  0.0103  2.0157
 4615TIP3   OH235259   1.886   4.588   0.271 -0.7105  0.3818 -0.1174
 4615TIP3    H135260   1.964   4.558   0.317 -0.5393  0.0447 -0.6199
 4615TIP3    H235261   1.858   4.666   0.320 -0.3061  0.2618  0.3121
 4616TIP3   OH235262   4.519   6.534   4.097  0.2376 -0.2918  0.3640
 4616TIP3    H135263   4.614   6.543   4.093  0.3786 -0.5570  2.1964
 4616TIP3    H235264   4.490   6.602   4.157 -0.8135  0.1052 -0.5420
 4617TIP3   OH235265   3.865   1.323  14.398 -0.1996  0.0083  0.0047
 4617TIP3    H135266   3.801   1.260  14.431  0.9328 -2.1217 -1.5495
 4617TIP3    H235267   3.876   1.300  14.305  2.9832  0.0292  0.2499
 4618TIP3   OH235268   4.875   4.080  11.874 -0.1815  0.4396 -0.4892
 4618TIP3    H135269   4.899   4.087  11.966 -0.9820  1.2918 -0.3255
 4618TIP3    H235270   4.952   4.113  11.827 -0.1304  0.9246 -0.0826
 4619TIP3   OH235271   3.005   2.583  14.815 -0.5946  0.3877  0.6956
 4619TIP3    H135272   3.082   2.580  14.758 -0.8809  0.3308  0.3094
 4619TIP3    H235273   2.956   2.660  14.787 -0.0351  1.1692  1.7959
 4620TIP3   OH235274   0.825   3.257   0.422 -0.2824 -0.0042 -0.3309
 4620TIP3    H135275   0.855   3.265   0.332 -0.3396  0.6591 -0.2975
 4620TIP3    H235276   0.901   3.225   0.470 -0.4816 -1.1497 -0.7425
 4621TIP3   OH235277   4.417   1.882  12.137  0.3719 -0.5345  0.2785
 4621TIP3    H135278   4.321   1.875  12.130  0.0743  0.6245  2.3641
 4621TIP3    H235279   4.437   1.968  12.101  0.5998 -0.6292  0.1775
 4622TIP3   OH235280   3.414   0.153  10.601  0.3938 -0.1860 -0.4413
 4622TIP3    H135281   3.477   0.182  10.536  0.8989 -0.2467  0.0097
 4622TIP3    H235282   3.438   0.062  10.621 -0.1089 -0.3565 -0.5863
 4623TIP3   OH235283   5.123   0.855  16.477  0.0409 -0.8261  0.1476
 4623TIP3    H135284   5.186   0.916  16.438  0.5893 -1.9328 -0.7642
 4623TIP3    H235285   5.162   0.831  16.562 -0.7584  0.9578  1.0717
 4624TIP3   OH235286   3.919   4.238  11.236 -0.5569  0.1724 -0.2498
 4624TIP3    H135287   4.001   4.189  11.226 -0.9581 -0.6042  0.1271
 4624TIP3    H235288   3.915   4.294  11.159  0.5134  0.4969 -0.0861
 4625TIP3   OH235289   1.824   2.060  15.425 -0.3091 -0.2449 -0.2117
 4625TIP3    H135290   1.780   2.140  15.397  0.3246  0.6745  1.2841
 4625TIP3    H235291   1.753   2.003  15.455 -0.6524  0.4736  0.3817
 4626TIP3   OH235292   1.831   3.951  11.441 -0.5358 -0.6802  0.0097
 4626TIP3    H135293   1.755   3.978  11.389  0.1203  1.6540  0.1727
 4626TIP3    H235294   1.893   4.022  11.431  0.9191 -1.6954  1.3887
 4627TIP3   OH235295   3.302   2.772   6.103 -0.1552  0.2108 -0.5839
 4627TIP3    H135296   3.374   2.759   6.042  0.7708  1.0490  0.2956
 4627TIP3    H235297   3.315   2.861   6.136 -1.4263  0.2633 -0.1852
 4628TIP3   OH235298   1.073   2.023  11.795 -0.7207 -0.2892 -0.0454
 4628TIP3    H135299   1.164   2.043  11.819 -0.3198 -0.6579 -1.1935
 4628TIP3    H235300   1.034   1.991  11.876  0.5766 -1.4829  0.1567
 4629TIP3   OH235301   3.940   3.464   4.645 -0.1013 -0.1628 -0.2502
 4629TIP3    H135302   3.937   3.384   4.593  0.6592 -0.3619 -0.0032
 4629TIP3    H235303   3.849   3.491   4.652 -0.1382  0.8253 -3.1351
 4630TIP3   OH235304   1.688   4.825  11.956  0.1652 -0.1467  0.4548
 4630TIP3    H135305   1.654   4.910  11.929  1.5925  0.4588  0.5137
 4630TIP3    H235306   1.624   4.793  12.020 -0.8620  0.4500 -0.2463
 4631TIP3   OH235307   5.801   3.387  14.288  0.4469  0.5843 -0.5600
 4631TIP3    H135308   5.795   3.402  14.193  0.2617  1.0407 -0.4787
 4631TIP3    H235309   5.781   3.472  14.327 -0.3254  0.2001 -0.0911
 4632TIP3   OH235310   5.711   5.725  16.154  0.3582  0.1204  0.2876
 4632TIP3    H135311   5.736   5.806  16.109  0.1963 -1.0946 -2.1832
 4632TIP3    H235312   5.770   5.658  16.117  0.2136 -0.9750  1.9440
 4633TIP3   OH235313   4.054   5.579   3.508  0.8299  0.1044  0.0245
 4633TIP3    H135314   4.123   5.640   3.535  1.2782 -0.2701 -0.2802
 4633TIP3    H235315   4.022   5.614   3.425  0.4584  0.4286  0.2959
 4634TIP3   OH235316   1.598   3.265   3.871 -0.4063  0.2976  0.0324
 4634TIP3    H135317   1.521   3.233   3.823  0.0986  1.1495 -1.4218
 4634TIP3    H235318   1.567   3.345   3.914 -0.0328  1.4633 -1.7370
 4635TIP3   OH235319   2.671   2.153   3.026 -0.4490  0.6233 -0.5017
 4635TIP3    H135320   2.748   2.160   2.970 -0.4783  1.8336 -0.4087
 4635TIP3    H235321   2.637   2.065   3.009  0.3866  0.4377 -1.2738
 4636TIP3   OH235322   3.119   4.132  11.347  0.1828 -0.5686  0.5060
 4636TIP3    H135323   3.048   4.167  11.294 -0.0743  0.0504  1.2453
 4636TIP3    H235324   3.075   4.091  11.421  0.5808 -0.6238  0.7116
 4637TIP3   OH235325   2.072   6.637   5.597  0.0538  0.5320 -0.2920
 4637TIP3    H135326   2.060   6.578   5.523  1.8263 -0.6030  0.2569
 4637TIP3    H235327   1.990   6.630   5.647  0.0597 -1.1932 -0.4577
 4638TIP3   OH235328   1.046   4.659   1.984 -0.6408  0.5589 -0.3145
 4638TIP3    H135329   1.007   4.651   1.897 -1.5490  0.5558  0.0816
 4638TIP3    H235330   1.103   4.736   1.978 -0.2826  0.2455 -1.0544
 4639TIP3   OH235331   3.954   5.731  10.532 -0.6295  0.8589  0.0568
 4639TIP3    H135332   3.884   5.714  10.595  1.1402 -0.6509  1.7514
 4639TIP3    H235333   4.023   5.774  10.583  0.5640  0.2688 -0.9791
 4640TIP3   OH235334   3.334   2.962  14.962  0.6747  0.1877 -0.0397
 4640TIP3    H135335   3.326   2.912  15.043 -0.7339  0.8260  0.2552
 4640TIP3    H235336   3.428   2.968  14.946  0.9109 -1.9773  0.2459
 4641TIP3   OH235337   4.760   4.002   2.279 -0.6930  0.4939  0.6371
 4641TIP3    H135338   4.674   3.998   2.322 -0.4945  1.9781  1.2367
 4641TIP3    H235339   4.773   4.096   2.262  1.1628  0.3902  1.3148
 4642TIP3   OH235340   4.307   5.333  12.282  0.6801 -0.3541 -0.0005
 4642TIP3    H135341   4.315   5.427  12.299  0.3190  0.4704 -3.4740
 4642TIP3    H235342   4.394   5.305  12.255  0.6215 -0.8592  0.3133
 4643TIP3   OH235343   2.059   6.281   4.194 -0.9461 -0.4561  0.1709
 4643TIP3    H135344   2.004   6.204   4.177 -1.2642 -0.4838  1.2747
 4643TIP3    H235345   2.028   6.315   4.278  0.2826 -0.0695  0.4884
 4644TIP3   OH235346   1.701   2.122  14.182 -0.4736  0.4057  0.2034
 4644TIP3    H135347   1.705   2.088  14.272 -1.3064 -1.0651 -0.2800
 4644TIP3    H235348   1.653   2.055  14.134 -0.4244  1.3873 -1.2559
 4645TIP3   OH235349   4.301   5.097  13.204  0.2093  0.1198 -0.7125
 4645TIP3    H135350   4.276   5.107  13.296  0.8926  2.1793 -0.7016
 4645TIP3    H235351   4.293   5.003  13.188  0.2715 -0.3366  1.5111
 4646TIP3   OH235352   4.636   2.629  12.182  0.0329 -0.1775 -0.5124
 4646TIP3    H135353   4.675   2.715  12.165  0.4530 -0.3460 -0.4310
 4646TIP3    H235354   4.642   2.583  12.098 -1.1429  0.2288 -0.8396
 4647TIP3   OH235355   3.213   3.122   5.533  0.3287  0.0190  0.0982
 4647TIP3    H135356   3.283   3.151   5.590  0.2645 -1.9560  1.2829
 4647TIP3    H235357   3.215   3.026   5.538 -1.6849 -0.1408 -0.7655
 4648TIP3   OH235358   2.541   3.426   3.574  0.2505  0.4255 -0.1924
 4648TIP3    H135359   2.503   3.339   3.561 -0.4065  0.7998 -0.8420
 4648TIP3    H235360   2.466   3.483   3.592  0.8374  0.5314  2.2474
 4649TIP3   OH235361   2.136   1.629  12.690  0.2070  0.5530 -0.0122
 4649TIP3    H135362   2.046   1.643  12.658  0.3278 -0.4155 -0.8043
 4649TIP3    H235363   2.191   1.651  12.615  0.6141  0.7329  0.3424
 4650TIP3   OH235364   1.680   6.795   6.072 -0.0546 -0.0276 -0.2503
 4650TIP3    H135365   1.666   6.711   6.116  0.7303 -0.6899 -1.2351
 4650TIP3    H235366   1.702   6.773   5.982  3.3978  1.0030  0.1773
 4651TIP3   OH235367   6.511   4.013   3.577 -0.3948 -0.1372 -0.1159
 4651TIP3    H135368   6.464   4.052   3.651  0.2612 -1.7322  1.1863
 4651TIP3    H235369   6.441   3.979   3.520 -0.9605  2.2493 -0.9817
 4652TIP3   OH235370   2.205   0.816   0.454  0.1253 -0.3701 -0.0232
 4652TIP3    H135371   2.286   0.830   0.407  0.5104  1.6316  1.1318
 4652TIP3    H235372   2.165   0.903   0.462 -2.3737 -1.3249 -0.9235
 4653TIP3   OH235373   0.321   1.104   5.196  0.7875  0.0190 -0.1217
 4653TIP3    H135374   0.229   1.097   5.171  0.7607  1.3913 -0.4608
 4653TIP3    H235375   0.355   1.177   5.143  1.8740  0.0168  0.5497
 4654TIP3   OH235376   4.336   0.058  12.251 -0.1153  0.5640 -0.1936
 4654TIP3    H135377   4.244   0.037  12.268  0.0957 -1.3782 -1.1372
 4654TIP3    H235378   4.365   0.103  12.330 -1.7541  0.8092  0.3164
 4655TIP3   OH235379   4.286   6.013  14.509 -0.2905  0.1218 -0.7582
 4655TIP3    H135380   4.274   5.971  14.424  1.6235 -0.3309 -0.8603
 4655TIP3    H235381   4.202   6.004  14.553  0.0118 -4.3290 -0.5809
 4656TIP3   OH235382   0.705   4.739  15.091 -0.4692  0.3801  0.7135
 4656TIP3    H135383   0.730   4.786  15.011 -0.6181  0.2726  0.6032
 4656TIP3    H235384   0.611   4.756  15.101 -0.5938 -0.1500  0.4994
 4657TIP3   OH235385   3.643   5.067   0.948  0.4519  0.3090 -0.5655
 4657TIP3    H135386   3.608   5.080   1.036 -0.3747 -1.5160 -0.5695
 4657TIP3    H235387   3.705   4.995   0.957  2.7928  2.1557 -0.9560
 4658TIP3   OH235388   1.594   6.102   5.579 -0.3735  0.1997 -0.0919
 4658TIP3    H135389   1.574   6.098   5.486 -1.1804  1.6401  0.0063
 4658TIP3    H235390   1.568   6.190   5.606 -0.7444 -0.4041  1.6283
 4659TIP3   OH235391   5.023   0.954   0.754 -0.2484 -0.1157  0.1089
 4659TIP3    H135392   5.039   0.869   0.712  1.6342  0.9157 -1.4062
 4659TIP3    H235393   4.951   0.993   0.705 -0.0785 -0.1933 -0.2045
 4660TIP3   OH235394   0.984   3.260   2.150 -0.4226 -0.1206 -0.5321
 4660TIP3    H135395   1.018   3.347   2.130  1.2505  0.0186  2.2844
 4660TIP3    H235396   0.941   3.271   2.235  0.5697 -2.1560  0.3098
 4661TIP3   OH235397   1.113   0.420   4.940  0.4074  0.3666  0.4937
 4661TIP3    H135398   1.143   0.381   5.022 -0.1500  1.3005  1.1652
 4661TIP3    H235399   1.041   0.364   4.911 -0.6044  1.0358  1.6154
 4662TIP3   OH235400   2.360   3.038   1.486 -0.0360 -0.1174 -0.2768
 4662TIP3    H135401   2.402   2.966   1.438 -1.9857 -0.0960 -2.1866
 4662TIP3    H235402   2.368   3.113   1.428  3.1904  1.7681  2.2507
 4663TIP3   OH235403   4.228   3.285   4.261 -0.6524 -0.0722  0.3873
 4663TIP3    H135404   4.198   3.251   4.177  1.4122  3.0832 -1.8018
 4663TIP3    H235405   4.285   3.216   4.296  1.0604 -0.2396 -2.4360
 4664TIP3   OH235406   2.687   2.961   2.662 -0.1904  0.1891 -0.4832
 4664TIP3    H135407   2.691   2.898   2.733 -0.9924  0.0711 -0.5396
 4664TIP3    H235408   2.768   2.946   2.612  0.9491  1.0361  1.0152
 4665TIP3   OH235409   6.052   1.742   2.182 -0.8393 -0.0699 -0.2768
 4665TIP3    H135410   5.993   1.671   2.207 -0.7620 -0.3370 -0.8358
 4665TIP3    H235411   6.103   1.706   2.109 -1.2114  0.7726 -0.9623
 4666TIP3   OH235412   1.025   4.693   2.616  0.2876  0.1716 -0.0956
 4666TIP3    H135413   1.033   4.757   2.687 -1.5349 -0.6847  0.9420
 4666TIP3    H235414   0.944   4.716   2.572 -0.3292 -1.3290  0.2082
 4667TIP3   OH235415   5.457   4.480  16.835  0.2905  0.1807 -0.2147
 4667TIP3    H135416   5.451   4.514  16.924 -1.4639 -1.2155  0.2736
 4667TIP3    H235417   5.527   4.415  16.839 -0.1078 -0.2287  0.2992
 4668TIP3   OH235418   2.204   3.479  13.677 -0.2625 -0.1307  0.2379
 4668TIP3    H135419   2.223   3.389  13.649 -2.3734 -0.3331 -0.7620
 4668TIP3    H235420   2.132   3.507  13.621  0.1021  2.0900  0.7684
 4669TIP3   OH235421   3.065   0.792  16.182 -0.0384  0.3358 -0.1011
 4669TIP3    H135422   3.087   0.717  16.236 -0.2646 -0.4283 -1.0445
 4669TIP3    H235423   2.970   0.788  16.173 -0.3570  2.0763  1.7275
 4670TIP3   OH235424   3.534   5.363  16.903 -0.5313  0.0917 -0.3250
 4670TIP3    H135425   3.501   5.450  16.878 -0.2037  0.4754  0.5566
 4670TIP3    H235426   3.600   5.381  16.969 -0.7905 -0.8687  0.2014
 4671TIP3   OH235427   6.253   5.960   4.140  0.3082  0.0872  0.3622
 4671TIP3    H135428   6.279   6.048   4.169 -1.3952  1.1941 -1.2248
 4671TIP3    H235429   6.317   5.938   4.073 -0.1216  0.8334 -0.3237
 4672TIP3   OH235430   1.315   2.086  16.754 -0.4716  0.2768 -0.4713
 4672TIP3    H135431   1.388   2.087  16.692 -0.0960 -1.3486 -0.0917
 4672TIP3    H235432   1.338   2.020  16.818 -2.4596 -0.5897 -0.5613
 4673TIP3   OH235433   5.674   5.878  13.537  0.0874 -0.5142  0.4472
 4673TIP3    H135434   5.664   5.811  13.469 -0.3257 -0.1606  0.1571
 4673TIP3    H235435   5.746   5.846  13.591  2.0057  0.2808 -1.4773
 4674TIP3   OH235436   2.988   2.692  12.733  0.1114 -0.7176 -1.0842
 4674TIP3    H135437   3.017   2.765  12.787  0.3650 -0.1148 -2.0198
 4674TIP3    H235438   2.901   2.670  12.766  0.3625 -0.5240 -0.2742
 4675TIP3   OH235439   0.554   4.302  16.508 -0.6337  0.2239 -0.2678
 4675TIP3    H135440   0.518   4.257  16.431 -0.4575  0.8374 -0.7158
 4675TIP3    H235441   0.484   4.362  16.535 -1.1297 -0.7696  0.7315
 4676TIP3   OH235442   1.144   1.060  11.920 -0.7197 -0.4685  0.6610
 4676TIP3    H135443   1.123   1.134  11.978  1.7240  0.3944  0.5673
 4676TIP3    H235444   1.195   1.000  11.975  2.7041  0.9332 -0.7200
 4677TIP3   OH235445   1.900   4.178  13.082 -0.5336  0.1629  0.6548
 4677TIP3    H135446   1.869   4.141  13.000 -0.6015  0.3919  0.5772
 4677TIP3    H235447   1.913   4.271  13.064 -3.7034  0.9416  1.7609
 4678TIP3   OH235448   1.267   1.978  13.419  0.0219  0.4728  0.2689
 4678TIP3    H135449   1.203   1.924  13.466  1.1256 -0.1874  1.0594
 4678TIP3    H235450   1.327   2.008  13.487  0.6008  1.0356 -0.4737
 4679TIP3   OH235451   6.410   0.160   0.034  0.1391  0.4750 -0.3564
 4679TIP3    H135452   6.499   0.142   0.005  0.3206 -0.5450  0.7310
 4679TIP3    H235453   6.419   0.234   0.094  0.2120  0.5966 -0.5193
 4680TIP3   OH235454   0.712   1.366  16.032 -0.7657  0.2912 -0.3864
 4680TIP3    H135455   0.694   1.273  16.018 -2.0665  0.3890  0.4880
 4680TIP3    H235456   0.668   1.387  16.115 -0.0588  1.5653 -0.3117
 4681TIP3   OH235457   4.687   0.077  13.712  0.1076 -0.4872 -0.5629
 4681TIP3    H135458   4.670   0.021  13.788  0.1620 -1.2351 -1.0841
 4681TIP3    H235459   4.748   0.026  13.658  0.0720  0.0278 -1.1056
 4682TIP3   OH235460   4.120   5.623  15.467 -0.0211 -0.0739 -0.1384
 4682TIP3    H135461   4.173   5.544  15.466  0.6030  0.2998 -2.2230
 4682TIP3    H235462   4.140   5.666  15.384 -0.7902  1.9785  0.6763
 4683TIP3   OH235463   4.317   5.999   0.728 -0.1313 -0.2906  0.2219
 4683TIP3    H135464   4.364   5.990   0.645 -0.9448  0.4107 -0.3363
 4683TIP3    H235465   4.373   6.057   0.780 -0.3470  0.5240 -0.4309
 4684TIP3   OH235466   4.455   6.036   0.430 -0.4074  0.0369 -0.1818
 4684TIP3    H135467   4.416   6.121   0.406 -1.7899 -0.4893  0.1343
 4684TIP3    H235468   4.479   5.997   0.346  0.0794  0.6573 -0.3402
 4685TIP3   OH235469   3.250   2.521   2.728  0.1937  0.3536  0.4727
 4685TIP3    H135470   3.157   2.498   2.728 -0.0964  1.3937 -0.9181
 4685TIP3    H235471   3.251   2.613   2.756  1.0033 -0.1748  2.3767
 4686TIP3   OH235472   1.863   4.171  12.122 -0.1801  0.0738 -0.6097
 4686TIP3    H135473   1.771   4.144  12.119  0.0762 -0.7813 -0.9965
 4686TIP3    H235474   1.908   4.110  12.065  0.7378  0.0887  0.0687
 4687TIP3   OH235475   1.946   1.916   1.666  0.1978  0.1009  0.6726
 4687TIP3    H135476   2.037   1.931   1.694  0.1283  0.4453  0.7182
 4687TIP3    H235477   1.943   1.947   1.576  0.6522 -1.8426 -0.0655
 4688TIP3   OH235478   4.564   1.518  11.106  0.0364 -0.2835 -0.0025
 4688TIP3    H135479   4.635   1.472  11.151  0.7644  0.8451  0.0551
 4688TIP3    H235480   4.603   1.547  11.023  0.1897  1.7837  0.7411
 4689TIP3   OH235481   5.880   5.635  12.834 -0.0099 -0.0271 -0.1153
 4689TIP3    H135482   5.854   5.574  12.765  0.8965  1.0979 -1.5084
 4689TIP3    H235483   5.818   5.708  12.826  0.5761  0.4609 -0.2653
 4690TIP3   OH235484   6.620   3.895   0.862  0.4376 -0.5492 -0.1194
 4690TIP3    H135485   6.530   3.864   0.866  0.6733 -1.1436  0.7355
 4690TIP3    H235486   6.663   3.856   0.938  1.1028  0.7235  0.1986
 4691TIP3   OH235487   2.931   1.362  12.491 -0.6024  0.2936 -0.8222
 4691TIP3    H135488   2.854   1.307  12.496 -0.1505 -0.3093 -0.3797
 4691TIP3    H235489   2.927   1.402  12.404 -1.5455  0.4825 -0.7024
 4692TIP3   OH235490   1.000   5.698   1.688  0.0232 -0.4165 -0.3265
 4692TIP3    H135491   1.046   5.762   1.634  1.7050 -1.0181  0.3187
 4692TIP3    H235492   0.908   5.707   1.664  0.8099 -1.9660 -4.6861
 4693TIP3   OH235493   2.469   1.340  12.932 -0.4608 -0.1598  0.0991
 4693TIP3    H135494   2.467   1.245  12.941  1.2171 -0.2328 -0.1081
 4693TIP3    H235495   2.562   1.363  12.932 -0.7130  1.2391 -2.4454
 4694TIP3   OH235496   0.995   4.933   0.693 -0.0447 -0.6719  0.2162
 4694TIP3    H135497   0.939   4.999   0.652 -1.0225 -2.3184 -1.2395
 4694TIP3    H235498   1.083   4.970   0.689 -0.6430  0.7949  0.0376
 4695TIP3   OH235499   6.753   2.079   5.023  0.1581  0.1413  0.0597
 4695TIP3    H135500   6.791   2.001   4.981 -0.8327 -1.1966  1.5239
 4695TIP3    H235501   6.788   2.077   5.112 -1.2876  0.3196  0.6610
 4696TIP3   OH235502   4.063   5.899  16.941  0.5778  0.3676  0.6034
 4696TIP3    H135503   4.003   5.933  16.875  1.6398  0.3182 -0.4181
 4696TIP3    H235504   4.021   5.921  17.025 -1.1250 -0.1580 -0.0592
 4697TIP3   OH235505   2.705   4.707  15.355 -0.3259 -0.5130  0.2649
 4697TIP3    H135506   2.635   4.642  15.348 -0.8627  0.0026  0.8538
 4697TIP3    H235507   2.749   4.685  15.437  0.0856 -0.7105 -0.0042
 4698TIP3   OH235508   0.964   4.921   4.993  0.0698  0.4217 -0.0888
 4698TIP3    H135509   1.015   4.887   4.920  0.0365  0.5229 -0.1611
 4698TIP3    H235510   0.935   5.008   4.963 -0.5124  0.1827 -0.2227
 4699TIP3   OH235511   2.831   5.354   5.033  0.4513 -0.4053 -0.1522
 4699TIP3    H135512   2.818   5.261   5.051  0.4185 -0.2850  0.4453
 4699TIP3    H235513   2.919   5.358   4.995  0.6522 -0.6168  0.2884
 4700TIP3   OH235514   2.440   2.545  11.210  0.2407 -0.4456 -0.2288
 4700TIP3    H135515   2.373   2.513  11.150  0.5819 -0.8211 -0.4128
 4700TIP3    H235516   2.398   2.545  11.296 -0.1281 -0.2669 -0.4065
 4701TIP3   OH235517   3.657   6.474   2.420  0.3866  0.1267 -0.0490
 4701TIP3    H135518   3.588   6.531   2.386  1.7376  0.7785 -1.8266
 4701TIP3    H235519   3.619   6.386   2.419 -0.7369  0.6002 -0.0618
 4702TIP3   OH235520   2.597   2.708   6.594  0.0990  0.3971 -0.0019
 4702TIP3    H135521   2.667   2.773   6.587  0.3459  0.1392  0.0637
 4702TIP3    H235522   2.559   2.704   6.506  1.7476 -1.2238 -0.6875
 4703TIP3   OH235523   1.985   6.120  14.505 -0.4801 -0.2304  0.1291
 4703TIP3    H135524   1.926   6.083  14.570 -0.0381 -0.0464  0.6463
 4703TIP3    H235525   2.028   6.043  14.466 -0.4621 -0.3275  0.3360
 4704TIP3   OH235526   4.390   4.309  12.841  0.5201 -0.3533 -0.4431
 4704TIP3    H135527   4.434   4.266  12.768  2.1563 -0.3448  0.5012
 4704TIP3    H235528   4.348   4.386  12.801  2.3542  0.3036 -1.2372
 4705TIP3   OH235529   6.082   1.693   4.745 -0.4262  0.3385  0.1074
 4705TIP3    H135530   6.116   1.771   4.701 -1.1719  0.0452 -1.0452
 4705TIP3    H235531   6.074   1.627   4.675 -1.4718 -0.2102  0.7104
 4706TIP3   OH235532   0.419   5.741  13.089  0.0449 -0.5434 -0.1602
 4706TIP3    H135533   0.400   5.671  13.027  0.4797 -1.3399  0.5861
 4706TIP3    H235534   0.430   5.697  13.173 -0.2638  0.4833  0.4417
 4707TIP3   OH235535   5.870   3.365   2.996 -0.3061  0.4529 -0.1069
 4707TIP3    H135536   5.814   3.443   2.990 -0.5591  0.4480  1.6818
 4707TIP3    H235537   5.843   3.310   2.923 -0.7639  1.6292 -0.8507
 4708TIP3   OH235538   1.012   5.025   3.038 -0.2667  0.2084 -0.0822
 4708TIP3    H135539   0.930   4.992   3.075 -0.7622 -2.5877 -3.2709
 4708TIP3    H235540   1.075   5.018   3.110 -2.4367  1.1801  2.0584
 4709TIP3   OH235541   4.365   6.482   2.615  0.2740  0.7107 -0.3067
 4709TIP3    H135542   4.355   6.387   2.615  0.8323  0.6461 -0.1744
 4709TIP3    H235543   4.286   6.515   2.572 -0.6161  0.2695  0.9345
 4710TIP3   OH235544   3.229   0.307   3.489  0.2214  0.0566  0.5806
 4710TIP3    H135545   3.310   0.336   3.532  0.4722 -1.6515  1.3245
 4710TIP3    H235546   3.243   0.328   3.397  1.6654 -0.4699  0.6444
 4711TIP3   OH235547   5.544   2.221   5.196 -0.2509 -0.1540 -0.0279
 4711TIP3    H135548   5.554   2.126   5.201  0.1437 -0.0478  2.4807
 4711TIP3    H235549   5.451   2.236   5.215  0.4820  0.0573  4.3660
 4712TIP3   OH235550   2.925   2.907  15.573  0.6072  0.1192 -0.4807
 4712TIP3    H135551   2.865   2.980  15.559  1.3237  0.8267  0.0520
 4712TIP3    H235552   2.870   2.829  15.569 -0.3934  0.7646  0.2989
 4713TIP3   OH235553   2.518   4.642   3.996 -0.0085  0.1729 -1.0199
 4713TIP3    H135554   2.483   4.691   4.070  2.1700 -0.8761  0.8574
 4713TIP3    H235555   2.446   4.588   3.966 -0.3164 -1.5424  2.3058
 4714TIP3   OH235556   5.857   3.839   2.160  0.4083 -0.2264  0.8492
 4714TIP3    H135557   5.813   3.834   2.075  1.4480  0.9108  0.2084
 4714TIP3    H235558   5.908   3.758   2.166 -0.2688 -0.6644  0.7442
 4715TIP3   OH235559   1.715   0.073  13.005 -0.2432  0.2176  0.0578
 4715TIP3    H135560   1.647   0.025  12.958  1.3006 -0.6046 -1.3967
 4715TIP3    H235561   1.721   0.029  13.090 -1.6474  0.4575  0.3203
 4716TIP3   OH235562   2.845   0.197   1.821  0.6203  0.0812 -0.5063
 4716TIP3    H135563   2.855   0.102   1.822  0.5100  0.0703  0.3984
 4716TIP3    H235564   2.797   0.217   1.902 -0.6589  0.7739 -1.4009
 4717TIP3   OH235565   2.874   3.589   4.758 -0.3645  0.3548 -0.4084
 4717TIP3    H135566   2.784   3.615   4.736 -0.2781 -0.7921 -2.4217
 4717TIP3    H235567   2.883   3.502   4.717  0.5636 -1.1384  2.6774
 4718TIP3   OH235568   2.995   1.772  15.564 -0.3725 -0.2818 -0.0477
 4718TIP3    H135569   2.944   1.691  15.560 -2.5177  0.9938 -0.0321
 4718TIP3    H235570   2.960   1.819  15.640  2.7791 -0.4983  1.7040
 4719TIP3   OH235571   0.519   5.111  15.468 -0.1496  0.5840 -0.4343
 4719TIP3    H135572   0.535   5.049  15.540 -0.6411  0.1132 -0.7213
 4719TIP3    H235573   0.566   5.074  15.394  0.2642  1.0105 -0.3860
 4720TIP3   OH235574   3.082   3.169   4.606 -0.0684  0.1834  0.3811
 4720TIP3    H135575   3.156   3.161   4.667  0.5232 -0.1191 -0.3505
 4720TIP3    H235576   3.121   3.153   4.520 -0.7560  1.2762 -0.1558
 4721TIP3   OH235577   2.865   3.146  15.905 -0.8570  0.4392 -0.2007
 4721TIP3    H135578   2.924   3.188  15.968  1.1782 -1.0205 -1.0367
 4721TIP3    H235579   2.874   3.052  15.922 -1.0912  0.0749 -1.9209
 4722TIP3   OH235580   2.859   2.523   0.322 -0.0014 -0.1337 -0.2457
 4722TIP3    H135581   2.879   2.587   0.253  1.1158 -0.2947 -0.0849
 4722TIP3    H235582   2.887   2.439   0.286 -1.5051 -0.5732 -0.4718
 4723TIP3   OH235583   2.158   5.737  16.502  0.1330  0.0812 -0.0328
 4723TIP3    H135584   2.154   5.654  16.549 -0.2117  0.3560  0.4294
 4723TIP3    H235585   2.093   5.792  16.545  0.0084  0.4279 -0.6593
 4724TIP3   OH235586   5.261   4.077  13.254 -0.1822 -0.7820  0.0866
 4724TIP3    H135587   5.167   4.067  13.237 -0.5005  0.8124  0.7289
 4724TIP3    H235588   5.267   4.093  13.348  0.6096  0.2596 -0.1147
 4725TIP3   OH235589   1.343   4.097   2.390  0.0010 -0.0957  0.0909
 4725TIP3    H135590   1.289   4.046   2.329 -0.4618  0.3322  0.1371
 4725TIP3    H235591   1.368   4.034   2.457  2.2032 -1.1089 -1.5412
 4726TIP3   OH235592   4.830   3.350  12.355  0.1385  0.3540  0.8678
 4726TIP3    H135593   4.880   3.422  12.393 -0.4228 -0.5272  3.4865
 4726TIP3    H235594   4.763   3.330  12.420  0.0473 -2.3068  0.0806
 4727TIP3   OH235595   4.331   1.418   5.087 -0.2096 -0.4307  0.0839
 4727TIP3    H135596   4.339   1.400   4.994 -0.2104  0.4374 -0.0877
 4727TIP3    H235597   4.388   1.493   5.102 -2.4428  1.3209  0.2204
 4728TIP3   OH235598   6.642   0.456   3.131 -0.4210 -0.0272  0.0364
 4728TIP3    H135599   6.587   0.425   3.204  0.0103  1.4625  1.0411
 4728TIP3    H235600   6.583   0.458   3.056 -1.2812 -0.1376  0.6901
 4729TIP3   OH235601   1.187   2.313   1.949  0.3866  0.4522 -0.2979
 4729TIP3    H135602   1.251   2.341   2.015  0.3861  0.7568 -0.4246
 4729TIP3    H235603   1.110   2.288   2.001  1.5939 -2.8853  0.1059
 4730TIP3   OH235604   5.812   5.945  15.961  0.4928 -0.3484  0.1417
 4730TIP3    H135605   5.831   6.026  16.008 -0.6186 -0.0782  0.1697
 4730TIP3    H235606   5.798   5.972  15.870 -3.6842  0.1912  0.7415
 4731TIP3   OH235607   2.555   2.512  14.848  0.0604  0.2529 -0.2493
 4731TIP3    H135608   2.489   2.541  14.784 -1.3310  1.6214  1.7081
 4731TIP3    H235609   2.601   2.591  14.873  0.3281 -0.1927  0.7034
 4732TIP3   OH235610   1.406   3.867   0.440 -0.0732  0.3269 -0.1489
 4732TIP3    H135611   1.494   3.886   0.473  0.9038 -2.1799 -1.0282
 4732TIP3    H235612   1.413   3.778   0.404 -3.0328 -0.0275 -0.0839
 4733TIP3   OH235613   3.517   6.004  12.509 -0.4868  0.1806 -0.2579
 4733TIP3    H135614   3.434   5.992  12.555 -1.3699 -0.6161 -1.9362
 4733TIP3    H235615   3.550   5.915  12.497  0.0669  0.4212 -0.5176
 4734TIP3   OH235616   1.350   5.147   2.986 -0.7543 -0.2554 -0.0655
 4734TIP3    H135617   1.404   5.068   2.982  0.2833  0.4580 -2.8652
 4734TIP3    H235618   1.413   5.217   3.003 -1.3688  0.1894  0.3790
 4735TIP3   OH235619   3.742   2.394  16.761 -0.2324 -0.5513 -0.0430
 4735TIP3    H135620   3.747   2.461  16.693 -0.9596 -0.3997  0.0473
 4735TIP3    H235621   3.668   2.419  16.815 -1.7958 -2.4606 -1.1685
 4736TIP3   OH235622   1.558   5.882   3.580 -0.3561 -0.0537 -0.2366
 4736TIP3    H135623   1.545   5.850   3.491 -2.5325 -1.1315  0.3992
 4736TIP3    H235624   1.584   5.973   3.569  2.1972 -0.8778 -1.9945
 4737TIP3   OH235625   0.239   3.648  12.996 -0.8362  0.0120 -0.3798
 4737TIP3    H135626   0.162   3.606  13.032  0.2492  0.9647  3.5540
 4737TIP3    H235627   0.226   3.742  13.013  1.2126  0.1664  0.6470
 4738TIP3   OH235628   4.183   4.247   1.105  0.1087 -0.1975  0.2485
 4738TIP3    H135629   4.273   4.280   1.102 -0.7280  2.2752 -1.4225
 4738TIP3    H235630   4.181   4.191   1.182  3.2393 -0.9409 -0.0514
 4739TIP3   OH235631   6.640   3.916  16.002 -0.5518 -0.3756  0.1616
 4739TIP3    H135632   6.633   4.011  15.990  2.1410 -0.1432 -0.2351
 4739TIP3    H235633   6.662   3.906  16.095  0.6359 -0.4520 -0.1070
 4740TIP3   OH235634   4.699   1.991  12.575  0.2386 -0.5465  0.1697
 4740TIP3    H135635   4.621   2.005  12.629  1.6317  0.0069  2.1671
 4740TIP3    H235636   4.704   1.896  12.564 -0.7190 -0.5866  0.0106
 4741TIP3   OH235637   1.718   5.780  11.744  0.0939  0.3713  0.1312
 4741TIP3    H135638   1.635   5.789  11.791 -0.1948  2.0576 -0.6106
 4741TIP3    H235639   1.728   5.686  11.731 -2.0945  0.1584 -0.4216
 4742TIP3   OH235640   4.061   5.310   4.551  0.2445  0.0230 -0.1737
 4742TIP3    H135641   4.074   5.405   4.545  0.9405 -0.0653 -0.1697
 4742TIP3    H235642   4.133   5.280   4.606 -0.0542 -0.4909 -0.0658
 4743TIP3   OH235643   6.187   6.696   1.224  0.4910  0.9052 -0.0833
 4743TIP3    H135644   6.250   6.649   1.279 -0.4429  0.1471  0.3611
 4743TIP3    H235645   6.178   6.640   1.146 -3.1092 -1.5358  1.8311
 4744TIP3   OH235646   2.448   0.780  15.786  0.1882 -0.0992 -0.0658
 4744TIP3    H135647   2.435   0.756  15.694  1.5522  0.5628 -0.4541
 4744TIP3    H235648   2.380   0.731  15.833 -0.1701 -0.8932 -1.3529
 4745TIP3   OH235649   3.718   2.908  12.670  0.0692  0.4713  0.0400
 4745TIP3    H135650   3.687   2.890  12.759  1.1475 -1.6918  0.0254
 4745TIP3    H235651   3.646   2.958  12.630 -1.3265 -0.2776  1.4821
 4746TIP3   OH235652   5.581   2.860  12.659  0.2507  0.7082 -0.5312
 4746TIP3    H135653   5.511   2.814  12.614  0.7914 -0.1212 -0.5509
 4746TIP3    H235654   5.566   2.842  12.752 -1.9087  3.8614 -0.0860
 4747TIP3   OH235655   2.335   5.400   1.959 -0.3494 -0.2254  0.1154
 4747TIP3    H135656   2.360   5.492   1.964  0.4828 -0.5159  1.5631
 4747TIP3    H235657   2.405   5.353   2.003 -1.0836 -1.5068 -0.0343
 4748TIP3   OH235658   1.507   3.342   4.288 -0.2738 -0.3620 -0.7212
 4748TIP3    H135659   1.534   3.252   4.307  0.8032  0.1555  0.3503
 4748TIP3    H235660   1.576   3.396   4.325 -2.1388  1.0153  0.9666
 4749TIP3   OH235661   0.702   1.874   0.066  0.4592 -0.5090 -0.0671
 4749TIP3    H135662   0.716   1.860  -0.028  1.4176  1.6262 -0.3171
 4749TIP3    H235663   0.747   1.957   0.084  1.4420 -1.5296  2.5746
 4750TIP3   OH235664   5.256   1.464  16.751  0.1986  0.5137 -0.1508
 4750TIP3    H135665   5.277   1.372  16.738  1.1213  0.7819 -0.5957
 4750TIP3    H235666   5.190   1.484  16.684  2.3603  0.9941 -2.2421
 4751TIP3   OH235667   4.434   1.219  11.494 -0.5289  0.0046  0.2204
 4751TIP3    H135668   4.484   1.204  11.574 -1.3256  0.7197  0.8745
 4751TIP3    H235669   4.452   1.142  11.439  0.7557 -0.0552  0.6922
 4752TIP3   OH235670   0.510   5.069   5.670 -0.2758  0.4886 -0.1479
 4752TIP3    H135671   0.544   5.147   5.626 -0.3805  0.4582 -0.2830
 4752TIP3    H235672   0.588   5.019   5.695 -0.2094  0.6355 -0.0619
 4753TIP3   OH235673   4.081   3.617  12.583  0.3952 -0.2271  0.1186
 4753TIP3    H135674   4.038   3.561  12.647 -1.7535 -1.6232 -2.3415
 4753TIP3    H235675   4.173   3.592  12.587 -0.2673 -2.9772  0.1055
 4754TIP3   OH235676   0.386   6.204   3.569 -0.5435  0.6758 -0.2063
 4754TIP3    H135677   0.368   6.229   3.659 -3.1303 -0.7711 -0.2174
 4754TIP3    H235678   0.341   6.270   3.516  0.4048  1.1412 -0.4535
 4755TIP3   OH235679   4.185   6.617  16.395 -0.4487  0.1296  0.4224
 4755TIP3    H135680   4.249   6.554  16.362 -0.7377  0.6692 -1.2370
 4755TIP3    H235681   4.213   6.701  16.359 -1.8480  0.4432  0.0121
 4756TIP3   OH235682   3.459   4.532   0.711  0.5142 -0.0746  0.5749
 4756TIP3    H135683   3.374   4.575   0.724  1.2819  1.2859  1.2761
 4756TIP3    H235684   3.492   4.568   0.629 -0.3182 -1.9195 -0.6413
 4757TIP3   OH235685   4.686   3.659  16.049 -0.6765  0.5351  0.1075
 4757TIP3    H135686   4.711   3.648  16.141 -1.5753  1.5189  0.4924
 4757TIP3    H235687   4.731   3.589  16.003  0.3659  0.4699  1.1977
 4758TIP3   OH235688   5.922   0.617  12.684 -0.1670 -0.1253 -0.2060
 4758TIP3    H135689   5.951   0.643  12.771 -0.0709 -0.4088 -0.1514
 4758TIP3    H235690   6.003   0.615  12.632 -0.3083  0.6523 -0.4580
 4759TIP3   OH235691   4.689   4.596   2.448 -0.3251  0.2867 -0.3250
 4759TIP3    H135692   4.683   4.569   2.540  2.5783  0.4872  0.0068
 4759TIP3    H235693   4.634   4.674   2.443  1.7274  2.0330  2.0466
 4760TIP3   OH235694   2.850   4.146   5.724  0.0324 -0.5170 -0.0607
 4760TIP3    H135695   2.867   4.205   5.798 -1.0991 -1.6273  1.1586
 4760TIP3    H235696   2.765   4.175   5.691  1.4965  1.4106 -2.4642
 4761TIP3   OH235697   3.954   3.131   4.151  0.1115  0.1242 -0.0638
 4761TIP3    H135698   4.036   3.087   4.128  0.3189  0.5327 -0.1122
 4761TIP3    H235699   3.940   3.194   4.080 -1.0544 -1.0111 -0.8801
 4762TIP3   OH235700   1.504   5.980  14.910 -0.7629 -0.1411 -0.3133
 4762TIP3    H135701   1.413   5.979  14.939 -0.2589  2.7542  1.7810
 4762TIP3    H235702   1.502   6.027  14.827 -1.2367 -0.9452 -0.7749
 4763TIP3   OH235703   0.688   4.435  14.364  0.4032  0.4635 -0.0492
 4763TIP3    H135704   0.777   4.402  14.377 -1.1922 -4.9231 -0.1695
 4763TIP3    H235705   0.679   4.443  14.269  0.9090  1.7797 -0.0038
 4764TIP3   OH235706   4.578   4.804  10.323 -0.3515  0.7694 -0.2104
 4764TIP3    H135707   4.526   4.754  10.387  1.8975 -1.4008  0.0707
 4764TIP3    H235708   4.553   4.895  10.338 -1.7965  0.0982  1.9804
 4765TIP3   OH235709   0.485   2.833   6.069  0.5147  0.3409  0.5295
 4765TIP3    H135710   0.393   2.807   6.065  0.7263 -1.3330  3.4652
 4765TIP3    H235711   0.493   2.881   6.151  2.3657 -0.1484  0.6770
 4766TIP3   OH235712   3.967   0.063  15.904 -0.1884 -0.1208  0.0370
 4766TIP3    H135713   3.939   0.100  15.988 -1.6158 -1.3590  0.1454
 4766TIP3    H235714   3.917  -0.018  15.896 -0.5863  0.3072 -2.3465
 4767TIP3   OH235715   4.985   3.010   5.253 -0.3556 -0.3396  0.8306
 4767TIP3    H135716   4.940   3.085   5.292 -0.8529 -0.3926  0.3603
 4767TIP3    H235717   4.917   2.945   5.239 -0.4999  0.1831 -1.3971
 4768TIP3   OH235718   3.038   4.449   3.111 -0.2702 -0.2829  0.1176
 4768TIP3    H135719   3.046   4.483   3.200 -1.0273  0.9838 -0.2774
 4768TIP3    H235720   3.035   4.354   3.122  1.6693 -0.2530  1.2638
 4769TIP3   OH235721   5.721   6.290   1.763  0.1186  0.1644  0.3352
 4769TIP3    H135722   5.716   6.239   1.844  1.3680 -0.4427  0.0463
 4769TIP3    H235723   5.653   6.252   1.707 -1.9637  1.7064  1.6560
 4770TIP3   OH235724   4.857   0.977   2.159 -0.2091 -0.5246 -0.1217
 4770TIP3    H135725   4.916   0.902   2.153 -2.2291 -2.0521 -3.1764
 4770TIP3    H235726   4.799   0.957   2.233  1.5400 -0.0763  1.4541
 4771TIP3   OH235727   6.643   0.271  11.690 -0.2843  0.4595  0.4423
 4771TIP3    H135728   6.665   0.223  11.769 -0.3247 -1.4843 -0.6847
 4771TIP3    H235729   6.631   0.362  11.720  2.4734  0.3566  2.1849
 4772TIP3   OH235730   6.747   1.100  13.692 -0.0998  1.2027  0.6017
 4772TIP3    H135731   6.786   1.013  13.704 -2.3136  0.2670  1.7315
 4772TIP3    H235732   6.808   1.160  13.735  1.8372  0.3634 -0.8233
 4773TIP3   OH235733   3.835   0.098  16.621 -0.5416  0.2345  0.5633
 4773TIP3    H135734   3.865   0.174  16.571  0.2936 -0.2903  0.2422
 4773TIP3    H235735   3.778   0.134  16.689 -0.8116  1.0620 -0.0977
 4774TIP3   OH235736   6.244   4.776  12.680  0.3515 -0.2421 -0.1966
 4774TIP3    H135737   6.258   4.726  12.760  1.2636 -0.2210 -0.3259
 4774TIP3    H235738   6.317   4.750  12.623 -1.7437 -2.3904 -2.1404
 4775TIP3   OH235739   5.492   6.326  12.859  1.2358 -0.1217 -0.6863
 4775TIP3    H135740   5.413   6.296  12.905  0.4627  0.8910 -1.2935
 4775TIP3    H235741   5.552   6.352  12.929  0.9947 -0.8270 -0.2133
 4776TIP3   OH235742   5.683   1.798  12.439  0.3516  0.4427 -0.2690
 4776TIP3    H135743   5.677   1.800  12.344  0.6030 -0.6537 -0.3188
 4776TIP3    H235744   5.657   1.709  12.464 -0.0206  0.8089  0.7100
 4777TIP3   OH235745   1.799   3.876  15.413 -0.1089 -0.0051 -0.1309
 4777TIP3    H135746   1.785   3.840  15.500  1.1540  0.0703  0.1207
 4777TIP3    H235747   1.813   3.970  15.428 -0.7916  0.1622 -0.5118
 4778TIP3   OH235748   4.814   5.754  12.604 -0.2482  0.1157  0.9697
 4778TIP3    H135749   4.738   5.810  12.588  0.2883  0.4589 -0.5737
 4778TIP3    H235750   4.847   5.732  12.517  0.1995 -1.7529  1.5526
 4779TIP3   OH235751   0.930   1.863  11.602  0.4715 -0.3625  0.1365
 4779TIP3    H135752   0.890   1.809  11.670  2.0903 -3.0058 -0.8544
 4779TIP3    H235753   1.013   1.892  11.641 -0.0566  0.8556  0.3962
 4780TIP3   OH235754   5.024   1.587  13.659 -0.0413 -0.1190 -0.1726
 4780TIP3    H135755   5.029   1.498  13.625 -0.0355  0.8109 -2.7875
 4780TIP3    H235756   4.947   1.587  13.716 -1.2857 -1.2788 -1.8007
 4781TIP3   OH235757   5.279   0.871   4.724 -0.1044 -0.3967  0.6551
 4781TIP3    H135758   5.254   0.870   4.816 -0.2132 -0.7099  0.6223
 4781TIP3    H235759   5.351   0.809   4.718  0.2127 -0.0299  0.6147
 4782TIP3   OH235760   4.514   0.053   2.586 -0.0124  0.2022 -0.5539
 4782TIP3    H135761   4.576   0.047   2.658 -2.7038  1.2428  2.0830
 4782TIP3    H235762   4.465  -0.029   2.589 -1.1397  0.8564 -0.1157
 4783TIP3   OH235763   3.140   2.122   0.247 -0.0764 -0.4881 -0.0870
 4783TIP3    H135764   3.226   2.164   0.259 -1.9813  3.7378  0.4777
 4783TIP3    H235765   3.126   2.074   0.329  0.0040  2.5355  1.8521
 4784TIP3   OH235766   0.649   6.308   2.189  0.4427  0.2181  0.8231
 4784TIP3    H135767   0.574   6.319   2.130  0.0599  0.5278  1.3599
 4784TIP3    H235768   0.712   6.258   2.138 -0.8069 -1.5968  0.9511
 4785TIP3   OH235769   3.863   6.740  13.603 -0.2044 -0.2530 -0.8231
 4785TIP3    H135770   3.818   6.677  13.659 -2.3436  1.2457 -0.7162
 4785TIP3    H235771   3.858   6.703  13.515 -1.9621 -0.0204 -0.8513
 4786TIP3   OH235772   1.362   0.068  13.347 -0.2412 -0.2002  0.0403
 4786TIP3    H135773   1.356   0.002  13.416 -0.4146 -0.1020  0.1192
 4786TIP3    H235774   1.433   0.125  13.375 -2.1675  1.5438  1.6159
 4787TIP3   OH235775   3.241   2.400  11.433 -0.0708 -0.0244  0.5809
 4787TIP3    H135776   3.259   2.314  11.470  1.4940 -0.0341 -0.1124
 4787TIP3    H235777   3.241   2.386  11.338  0.6342  0.7987  0.4432
 4788TIP3   OH235778   6.332   6.595  14.981  0.2609  0.0513 -0.2260
 4788TIP3    H135779   6.324   6.690  14.979 -0.4019  0.1158  2.1633
 4788TIP3    H235780   6.426   6.579  14.968  0.2058  0.9073 -1.9770
 4789TIP3   OH235781   1.152   5.021   2.326 -0.3890 -0.0849 -0.0153
 4789TIP3    H135782   1.112   5.079   2.261 -2.0203  1.4172  2.1392
 4789TIP3    H235783   1.129   4.933   2.298 -1.2339  0.5272 -1.3454
 4790TIP3   OH235784   5.886   3.044   2.332 -0.0088  0.3000  0.1639
 4790TIP3    H135785   5.944   2.969   2.340 -2.4080 -1.7340 -0.2085
 4790TIP3    H235786   5.850   3.057   2.420 -1.0860 -0.3034 -0.1728
 4791TIP3   OH235787   0.869   1.589  13.778  0.1537  0.3524  0.1832
 4791TIP3    H135788   0.941   1.558  13.832 -0.4256  0.0062  0.7736
 4791TIP3    H235789   0.808   1.515  13.773 -0.3289  0.7504 -0.0063
 4792TIP3   OH235790   0.234   3.093  13.821  0.0765 -0.2863  0.6233
 4792TIP3    H135791   0.196   3.179  13.840 -1.9630 -1.4906  2.5941
 4792TIP3    H235792   0.298   3.079  13.891  1.1166  0.0139 -0.2597
 4793TIP3   OH235793   5.146   4.228  14.287  0.3376  0.4596 -0.2510
 4793TIP3    H135794   5.167   4.211  14.379  1.8124  0.6495 -0.5252
 4793TIP3    H235795   5.172   4.319  14.273 -2.5634  1.4288 -0.1639
 4794TIP3   OH235796   2.116   4.622   2.883  0.3869  0.8928 -0.3783
 4794TIP3    H135797   2.198   4.578   2.861  0.0808  0.4192 -0.5881
 4794TIP3    H235798   2.134   4.715   2.869  1.1331  0.8713  0.3529
 4795TIP3   OH235799   4.012   3.126  12.912 -0.3771  0.3592 -0.7753
 4795TIP3    H135800   3.970   3.201  12.870 -0.4383  0.3836 -0.6712
 4795TIP3    H235801   3.954   3.052  12.893 -1.7710  0.7968  1.3630
 4796TIP3   OH235802   4.421   5.760  16.557 -0.2606 -0.2826 -0.0966
 4796TIP3    H135803   4.495   5.772  16.497 -0.4311 -0.6529 -0.3827
 4796TIP3    H235804   4.450   5.694  16.619 -0.3384 -0.4027 -0.1887
 4797TIP3   OH235805   0.840   3.923   0.191 -0.2457  0.3128  0.1276
 4797TIP3    H135806   0.934   3.910   0.176 -0.3305  0.7765 -0.8965
 4797TIP3    H235807   0.802   3.836   0.183 -0.2989  0.5060 -2.6895
 4798TIP3   OH235808   1.126   2.665   2.672 -0.1657  0.3535 -0.1619
 4798TIP3    H135809   1.110   2.725   2.599  1.7412  0.0655 -0.8926
 4798TIP3    H235810   1.047   2.669   2.725 -0.0923  3.6313 -0.0998
 4799TIP3   OH235811   5.602   5.171  16.575  0.4833 -0.0527 -0.7181
 4799TIP3    H135812   5.668   5.163  16.506  0.6788 -0.4141 -0.4917
 4799TIP3    H235813   5.591   5.082  16.609  0.6158  0.1709 -0.0726
 4800TIP3   OH235814   5.839   4.233   5.512  0.4334  0.5046  0.0000
 4800TIP3    H135815   5.799   4.304   5.462  0.4033  2.4064  2.5060
 4800TIP3    H235816   5.902   4.277   5.570  1.6602 -1.7235  0.4890
 4801TIP3   OH235817   6.630   2.493  11.369  0.1950  0.3258 -0.3938
 4801TIP3    H135818   6.555   2.524  11.319  1.0117  1.6880 -0.8391
 4801TIP3    H235819   6.595   2.425  11.425 -1.3141  0.7190 -0.8112
 4802TIP3   OH235820   6.108   3.552   5.311  0.9310  0.4918 -0.2061
 4802TIP3    H135821   6.164   3.617   5.353  0.2104  0.4758  0.8042
 4802TIP3    H235822   6.086   3.491   5.380  0.3422  0.0307 -0.7898
 4803TIP3   OH235823   2.015   2.257  11.468  0.2203  0.6201  0.8032
 4803TIP3    H135824   2.070   2.335  11.473  0.2209  0.6252  0.7190
 4803TIP3    H235825   1.989   2.253  11.376 -1.2357  1.5388  1.1402
 4804TIP3   OH235826   5.073   5.562  13.363  0.4746 -0.4626  0.5395
 4804TIP3    H135827   5.114   5.476  13.352  0.0915 -0.5293 -0.4478
 4804TIP3    H235828   5.005   5.565  13.295  0.4754  0.6157  0.5791
 4805TIP3   OH235829   2.368   1.115   3.228  0.2189  0.1313 -0.2384
 4805TIP3    H135830   2.283   1.160   3.234  0.6857  1.0561 -0.3565
 4805TIP3    H235831   2.371   1.082   3.138  0.7109  1.6360 -0.8108
 4806TIP3   OH235832   5.522   3.216   0.615  0.1193 -0.0632 -0.4669
 4806TIP3    H135833   5.542   3.308   0.598  1.2200 -0.4073 -1.1419
 4806TIP3    H235834   5.429   3.216   0.638 -0.1996  1.0746 -1.6035
 4807TIP3   OH235835   0.401   0.634   0.681  0.0314 -0.4714  0.1988
 4807TIP3    H135836   0.325   0.596   0.726  0.2921 -1.7673 -0.4362
 4807TIP3    H235837   0.472   0.573   0.699  0.8728  0.5687  0.5170
 4808TIP3   OH235838   4.913   0.630   6.106  0.0840 -0.0970  0.3259
 4808TIP3    H135839   4.882   0.542   6.128  0.2356 -0.2985 -0.2501
 4808TIP3    H235840   4.862   0.688   6.163 -0.2886 -0.5280  0.4404
 4809TIP3   OH235841   2.496   1.872  14.055  0.0366 -0.1887  0.7306
 4809TIP3    H135842   2.490   1.819  14.134  0.2406 -1.4391 -0.0735
 4809TIP3    H235843   2.405   1.885  14.028  0.0168 -0.8609  0.4610
 4810TIP3   OH235844   1.201   1.145  16.709  0.7768 -0.8773 -0.4003
 4810TIP3    H135845   1.118   1.142  16.661  0.2307  1.2065  0.3109
 4810TIP3    H235846   1.268   1.124  16.644 -0.1542 -0.7622 -1.4300
 4811TIP3   OH235847   1.585   1.741   1.791  0.5510 -0.0686  0.2292
 4811TIP3    H135848   1.552   1.721   1.704  1.2841 -1.6636  0.2886
 4811TIP3    H235849   1.511   1.722   1.850  0.9486 -1.8317  0.1974
 4812TIP3   OH235850   2.204   4.932   1.086  1.1104  0.0528  0.2930
 4812TIP3    H135851   2.261   4.912   1.012  1.4047 -1.5787  0.9297
 4812TIP3    H235852   2.121   4.887   1.066  0.8707  0.3871  0.5145
 4813TIP3   OH235853   4.553   5.212   4.815  0.3209 -0.3023  0.1464
 4813TIP3    H135854   4.637   5.171   4.799  0.8488  0.9699 -0.4367
 4813TIP3    H235855   4.572   5.281   4.879 -0.9385 -2.3233  2.9475
 4814TIP3   OH235856   3.651   1.114  12.586  0.8129 -0.1160  0.1473
 4814TIP3    H135857   3.572   1.097  12.637  0.6981  1.6047  0.6165
 4814TIP3    H235858   3.715   1.052  12.620 -0.5258 -2.1949 -0.8814
 4815TIP3   OH235859   4.465   2.097   3.569 -0.2466  0.0672 -0.5841
 4815TIP3    H135860   4.546   2.148   3.575  0.0906 -0.4542 -0.6787
 4815TIP3    H235861   4.494   2.008   3.551 -0.7368 -0.5181  1.3145
 4816TIP3   OH235862   5.867   5.340  15.955  0.1116 -0.8213  0.4760
 4816TIP3    H135863   5.901   5.251  15.961 -0.8075 -1.2728 -0.6160
 4816TIP3    H235864   5.790   5.333  15.898 -0.2894  0.5846  0.7972
 4817TIP3   OH235865   6.238   3.969   5.329  0.3262 -0.4389  0.4280
 4817TIP3    H135866   6.239   4.025   5.407 -1.1731 -1.6028  1.3401
 4817TIP3    H235867   6.146   3.944   5.319  0.9573 -2.9487  0.2525
 4818TIP3   OH235868   4.062   3.738  13.507  0.0542 -0.2038 -0.1414
 4818TIP3    H135869   4.119   3.775  13.574 -1.3299 -0.2722  1.1485
 4818TIP3    H235870   4.118   3.679  13.457  0.8314 -1.4817  2.0605
 4819TIP3   OH235871   6.259   5.415   0.939  0.7700 -0.9369  0.5288
 4819TIP3    H135872   6.238   5.351   1.008  0.9401  0.0037  1.4912
 4819TIP3    H235873   6.331   5.375   0.891  0.3235 -1.8347  0.5751
 4820TIP3   OH235874   1.706   3.685  11.527 -1.0509  0.2997 -0.6400
 4820TIP3    H135875   1.767   3.750  11.491 -0.1034  0.1389  0.6196
 4820TIP3    H235876   1.752   3.602  11.519 -0.1292  0.4301  2.2477
 4821TIP3   OH235877   1.297   2.836  14.347  0.3885 -0.1605  0.6049
 4821TIP3    H135878   1.264   2.920  14.316 -0.3736 -0.1056  1.5030
 4821TIP3    H235879   1.388   2.834  14.319  0.7032  1.3968  1.3917
 4822TIP3   OH235880   0.571   1.935  13.691 -0.3784  0.2140 -0.3056
 4822TIP3    H135881   0.649   1.913  13.741  0.3927  2.6305 -0.3012
 4822TIP3    H235882   0.600   1.933  13.600 -0.5146  0.3349 -0.3526
 4823TIP3   OH235883   2.001   3.872   3.763 -0.3682  0.0410 -0.2376
 4823TIP3    H135884   1.931   3.912   3.815  1.1868 -0.2924  2.2673
 4823TIP3    H235885   1.956   3.808   3.707 -2.1877  0.8536  0.2305
 4824TIP3   OH235886   5.298   3.264  12.683  0.2465  0.2863 -0.4025
 4824TIP3    H135887   5.376   3.303  12.644  1.2244  0.6433  1.7912
 4824TIP3    H235888   5.254   3.336  12.728 -0.0652 -0.3626  0.3670
 4825TIP3   OH235889   2.962   2.920   0.234  0.4435  0.2847  0.5937
 4825TIP3    H135890   2.986   3.005   0.199 -2.1447  0.8784  0.0661
 4825TIP3    H235891   2.879   2.935   0.281  0.1312 -1.8433  0.8426
 4826TIP3   OH235892   2.915   5.364  12.593 -0.2491  0.1293  0.0230
 4826TIP3    H135893   2.962   5.444  12.569  1.4511 -0.1599  2.1004
 4826TIP3    H235894   2.984   5.304  12.623 -1.7239 -1.2895  0.7045
 4827TIP3   OH235895   5.179   3.448  16.758  0.2104 -0.3426 -0.1998
 4827TIP3    H135896   5.129   3.403  16.827  0.1051 -0.1257 -0.1344
 4827TIP3    H235897   5.239   3.505  16.805 -0.1519  0.1212 -0.2884
 4828TIP3   OH235898   3.945   0.373   3.173 -0.3583 -0.3860 -0.2633
 4828TIP3    H135899   3.952   0.350   3.266  2.1061 -0.8467 -0.5012
 4828TIP3    H235900   3.884   0.308   3.137  0.7019 -1.9071  0.5538
 4829TIP3   OH235901   1.703   6.289  15.220  0.1020 -0.8364 -0.0567
 4829TIP3    H135902   1.693   6.378  15.187 -1.1597 -0.8436  0.2635
 4829TIP3    H235903   1.749   6.243  15.150  1.1109  0.1371 -0.0696
 4830TIP3   OH235904   3.441   5.630  15.307 -0.1320 -0.4879 -0.0049
 4830TIP3    H135905   3.373   5.675  15.356 -0.4218 -1.1241  0.1934
 4830TIP3    H235906   3.402   5.546  15.282  0.9526 -1.3826  1.1458
 4831TIP3   OH235907   1.230   2.728   0.584  0.4515 -0.6049  0.8300
 4831TIP3    H135908   1.174   2.709   0.509 -2.1599 -2.5127  3.0538
 4831TIP3    H235909   1.272   2.645   0.605  1.2151 -0.0827  1.4385
 4832TIP3   OH235910   3.298   4.034   3.002  0.6277  0.1046  0.2915
 4832TIP3    H135911   3.385   4.039   3.042  0.7680  0.5417 -0.0603
 4832TIP3    H235912   3.270   3.944   3.017  1.2323 -0.1021  0.2173
 4833TIP3   OH235913   1.076   5.820   4.415  0.1038  0.2157  0.1854
 4833TIP3    H135914   1.106   5.895   4.363  3.8583  0.8858  2.8794
 4833TIP3    H235915   1.040   5.859   4.494  2.2408 -0.6670  1.6964
 4834TIP3   OH235916   2.991   0.892  16.947 -0.3353  0.5107 -0.2218
 4834TIP3    H135917   2.923   0.925  17.005 -0.3443  0.5188 -0.2373
 4834TIP3    H235918   2.967   0.923  16.860 -1.6931 -1.5550 -0.6572
 4835TIP3   OH235919   4.204   2.943  10.756 -0.8390 -0.1146 -0.8154
 4835TIP3    H135920   4.239   2.875  10.814 -1.7853  0.6391  0.7064
 4835TIP3    H235921   4.233   2.917  10.668  0.0069 -1.7041 -0.1109
 4836TIP3   OH235922   0.068   3.074  15.901 -0.2539  0.0500 -0.1998
 4836TIP3    H135923   0.163   3.088  15.906 -0.4026  0.7338  0.9193
 4836TIP3    H235924   0.051   3.060  15.807  0.8534  0.6252 -0.5019
 4837TIP3   OH235925   4.138   2.432   5.577 -0.5768 -0.6234 -1.6126
 4837TIP3    H135926   4.117   2.510   5.627  1.8182 -0.6153 -0.4592
 4837TIP3    H235927   4.056   2.383   5.572 -1.8178  1.3379 -1.2566
 4838TIP3   OH235928   0.632   2.831   0.154 -0.5140  0.5670 -0.6644
 4838TIP3    H135929   0.693   2.791   0.216  0.5940  0.6272 -1.6750
 4838TIP3    H235930   0.627   2.922   0.182 -2.8976 -0.1177  1.5319
 4839TIP3   OH235931   4.613   6.438  15.710  0.3276  0.9255  0.8145
 4839TIP3    H135932   4.705   6.438  15.735  0.0119 -0.0753  2.1036
 4839TIP3    H235933   4.566   6.421  15.792 -1.0942  2.6904  0.4319
 4840TIP3   OH235934   0.389   1.054  14.107  0.4094 -0.1083 -0.8335
 4840TIP3    H135935   0.478   1.020  14.100  0.1986 -0.3759 -2.8437
 4840TIP3    H235936   0.364   1.076  14.017 -0.9749  1.5222 -0.1107
 4841TIP3   OH235937   3.876   3.450   0.561 -0.4025 -0.0418 -0.3399
 4841TIP3    H135938   3.820   3.381   0.596 -1.4251  0.1858 -1.4665
 4841TIP3    H235939   3.907   3.416   0.477  0.4389  0.1943 -0.1296
 4842TIP3   OH235940   3.935   3.404   3.003 -0.2018  0.1791 -0.6872
 4842TIP3    H135941   4.012   3.457   3.024 -0.1852 -0.2285  0.3446
 4842TIP3    H235942   3.898   3.445   2.925  2.5578 -1.1719 -2.8662
 4843TIP3   OH235943   3.821   1.708  12.253  0.0358  0.1964 -0.4179
 4843TIP3    H135944   3.815   1.802  12.270 -2.4134  0.0767 -0.2924
 4843TIP3    H235945   3.840   1.702  12.159  3.2532  0.7500  0.0624
 4844TIP3   OH235946   3.733   4.423   2.721  0.1441  0.1960 -0.0523
 4844TIP3    H135947   3.723   4.330   2.702 -0.6258  0.3899 -0.6541
 4844TIP3    H235948   3.825   4.442   2.703  0.3444 -0.4708  0.2271
 4845TIP3   OH235949   4.743   5.822  13.486 -0.4897 -0.0121  0.0668
 4845TIP3    H135950   4.810   5.888  13.470  2.0660 -2.0212  1.6906
 4845TIP3    H235951   4.671   5.870  13.528 -0.4029  2.3145 -2.2302
 4846TIP3   OH235952   0.057   0.273  15.674 -0.2230 -0.2147 -0.0558
 4846TIP3    H135953  -0.032   0.256  15.644 -0.7686  1.5154  0.4191
 4846TIP3    H235954   0.105   0.300  15.595 -0.3724 -0.2455 -0.1565
 4847TIP3   OH235955   6.351   2.687   0.561 -0.4128  0.9229 -0.0893
 4847TIP3    H135956   6.375   2.752   0.628  0.5887  1.2879 -0.7748
 4847TIP3    H235957   6.297   2.623   0.608  0.5137  1.0036  1.1404
 4848TIP3   OH235958   3.803   4.533   2.971 -0.2573  0.4221  0.2033
 4848TIP3    H135959   3.792   4.445   3.007 -0.6839  0.7660  0.9303
 4848TIP3    H235960   3.748   4.534   2.893  1.6026 -0.7226 -1.1984
 4849TIP3   OH235961   0.718   2.173  10.832  0.4728  0.0722 -0.0478
 4849TIP3    H135962   0.805   2.168  10.872  1.6473  0.3063 -2.3959
 4849TIP3    H235963   0.710   2.091  10.783 -1.6212 -0.9714  1.8635
 4850TIP3   OH235964   1.092   2.672  13.318 -0.2507 -0.6797 -0.5735
 4850TIP3    H135965   1.098   2.676  13.223 -2.9845 -2.3985 -0.9284
 4850TIP3    H235966   1.069   2.581  13.337 -2.9873  0.2879  1.4203
 4851TIP3   OH235967   2.309   6.633  12.745 -0.1294  0.1480 -0.0213
 4851TIP3    H135968   2.246   6.705  12.739  0.7191  0.9236  0.1878
 4851TIP3    H235969   2.272   6.574  12.812 -1.7592 -0.5849 -1.4925
 4852TIP3   OH235970   5.994   0.312   2.363 -0.2486  0.0768  0.2420
 4852TIP3    H135971   5.906   0.285   2.390  0.1167  0.6195  2.1698
 4852TIP3    H235972   6.045   0.231   2.365 -0.3522  0.0163  0.7562
 4853TIP3   OH235973   1.985   6.470   1.634  0.7415 -0.5262 -0.4345
 4853TIP3    H135974   1.911   6.510   1.588 -0.0295  2.3071  2.7995
 4853TIP3    H235975   1.973   6.496   1.725  4.8898 -1.3282  0.5582
 4854TIP3   OH235976   2.985   2.556  14.464  0.2445  0.0390  0.2949
 4854TIP3    H135977   2.979   2.462  14.478 -0.4045 -0.1161 -0.8689
 4854TIP3    H235978   2.946   2.570  14.377 -0.6375  1.4963  0.8790
 4855TIP3   OH235979   4.832   0.684   2.062 -0.4724 -0.3593 -0.0634
 4855TIP3    H135980   4.822   0.610   2.003  0.2100 -2.0537  1.8342
 4855TIP3    H235981   4.922   0.714   2.048 -0.1404 -1.0866  0.4371
 4856TIP3   OH235982   5.285   2.390  16.787 -0.2963 -0.5239  0.3992
 4856TIP3    H135983   5.306   2.320  16.849 -0.5688 -0.8362  0.1448
 4856TIP3    H235984   5.355   2.387  16.722 -0.8820 -1.2907 -0.2179
 4857TIP3   OH235985   2.355   6.503   3.449 -0.8269 -0.1858  0.1298
 4857TIP3    H135986   2.272   6.525   3.492 -0.2827  2.4377  0.0129
 4857TIP3    H235987   2.413   6.475   3.520 -0.9150  0.9420  0.6608
 4858TIP3   OH235988   3.170   4.246  12.742  0.1822 -0.2895  0.2462
 4858TIP3    H135989   3.075   4.249  12.754  0.1242  0.3489 -0.3460
 4858TIP3    H235990   3.187   4.306  12.670  0.9785 -0.8557 -0.0444
 4859TIP3   OH235991   1.739   2.614  11.057  0.0302 -0.0026  0.0819
 4859TIP3    H135992   1.790   2.569  10.990  1.4119  1.8247 -0.1835
 4859TIP3    H235993   1.659   2.642  11.012  0.0497 -0.4885 -0.2601
 4860TIP3   OH235994   1.699   5.293  12.505  0.0648 -0.2755  0.2304
 4860TIP3    H135995   1.653   5.209  12.508 -0.0036 -0.2303  0.6312
 4860TIP3    H235996   1.755   5.288  12.428  1.1293 -1.2646  1.0470
 4861TIP3   OH235997   4.861   3.662   4.370 -0.0443 -0.0696  0.3053
 4861TIP3    H135998   4.848   3.746   4.413 -1.5489  0.1534 -0.4912
 4861TIP3    H235999   4.773   3.637   4.340  0.4476 -1.6842  0.0814
 4862TIP3   OH236000   3.282   1.289  13.608  0.5266 -0.8536 -0.1465
 4862TIP3    H136001   3.293   1.198  13.581  1.3267 -0.8502  0.1412
 4862TIP3    H236002   3.188   1.297  13.627  0.4529 -1.6254 -0.1378
 4863TIP3   OH236003   2.119   6.139  16.224  0.0524 -0.2331 -0.1968
 4863TIP3    H136004   2.158   6.059  16.260 -1.2427 -1.2213 -0.8726
 4863TIP3    H236005   2.110   6.198  16.299  1.1646 -0.6559  0.2896
 4864TIP3   OH236006   1.201   6.327  14.980 -0.1492 -0.5351 -0.1319
 4864TIP3    H136007   1.236   6.416  14.978  2.5333 -1.5066 -1.6340
 4864TIP3    H236008   1.242   6.287  15.057 -1.5554 -0.4434  0.6965
 4865TIP3   OH236009   0.516   5.434   6.389  0.2187  0.1651  0.4448
 4865TIP3    H136010   0.466   5.516   6.389 -1.6383 -0.9103  0.4848
 4865TIP3    H236011   0.458   5.371   6.430  1.8333 -1.0701  0.9142
 4866TIP3   OH236012   2.547   0.947  13.481 -0.5438  0.4444  0.5272
 4866TIP3    H136013   2.452   0.955  13.496 -0.4336  0.4692  1.2351
 4866TIP3    H236014   2.564   1.009  13.410 -1.0754  0.3738  0.3309
 4867TIP3   OH236015   4.083   0.123  14.649 -0.5414 -0.1862  0.4085
 4867TIP3    H136016   4.176   0.145  14.647 -0.6499  0.3741  1.1774
 4867TIP3    H236017   4.046   0.171  14.576  0.0224 -1.6863 -0.9245
 4868TIP3   OH236018   4.053   1.140   0.577  0.6337 -0.0342 -0.1314
 4868TIP3    H136019   4.005   1.096   0.506 -0.2446 -0.0423  0.4497
 4868TIP3    H236020   4.137   1.095   0.580  1.0684  0.5689 -1.7708
 4869TIP3   OH236021   0.343   0.837  14.944  0.2830 -0.6065 -0.7114
 4869TIP3    H136022   0.398   0.815  14.869  1.2622 -0.9694  0.1031
 4869TIP3    H236023   0.366   0.772  15.011 -0.6990 -0.3897 -0.1452
 4870TIP3   OH236024   5.929   1.035  13.963  0.0675 -0.3995 -0.4501
 4870TIP3    H136025   5.998   1.089  14.002 -0.9270  1.5817 -1.2836
 4870TIP3    H236026   5.961   1.017  13.875 -0.3996  0.4339 -0.8019
 4871TIP3   OH236027   4.117   4.890  11.339  0.1559 -0.8505  0.4109
 4871TIP3    H136028   4.097   4.797  11.345 -1.3200 -0.7136 -1.5387
 4871TIP3    H236029   4.204   4.893  11.300  0.6116 -1.4025  1.3520
 4872TIP3   OH236030   2.848   3.272  12.300  0.2520 -0.1075 -0.4117
 4872TIP3    H136031   2.909   3.303  12.233 -0.7238  0.0249 -1.2756
 4872TIP3    H236032   2.785   3.219  12.252  0.6729 -1.6973  0.7350
 4873TIP3   OH236033   3.589   1.115   0.126  1.0289  0.0456 -0.0884
 4873TIP3    H136034   3.637   1.133   0.207  2.1790  0.6946 -0.8994
 4873TIP3    H236035   3.497   1.129   0.150  1.2819 -0.3969  1.2632
 4874TIP3   OH236036   1.814   0.772  13.008 -0.0194  0.9083  0.2830
 4874TIP3    H136037   1.740   0.782  13.068 -0.5296  1.6938 -0.4526
 4874TIP3    H236038   1.802   0.685  12.970 -1.0714  1.3548 -0.4659
 4875TIP3   OH236039   2.961   3.470  14.647  0.0088  0.0202  0.5073
 4875TIP3    H136040   3.042   3.493  14.602 -0.1772  0.8278  0.5639
 4875TIP3    H236041   2.975   3.380  14.677 -0.1391 -0.8055 -1.7433
 4876TIP3   OH236042   4.038   4.003   0.953 -0.0363 -1.1203 -0.0751
 4876TIP3    H136043   4.082   4.088   0.963 -1.0707 -0.6756  0.8990
 4876TIP3    H236044   4.061   3.955   1.032 -2.0906 -0.4899  0.9597
 4877TIP3   OH236045   1.117   5.658   2.838 -0.7850 -0.7482 -0.1011
 4877TIP3    H136046   1.156   5.578   2.873 -1.1785 -1.2893 -0.8650
 4877TIP3    H236047   1.023   5.648   2.855 -0.7061  0.1738  1.0023
 4878TIP3   OH236048   5.470   5.198   3.256 -0.2049 -0.6624  0.7312
 4878TIP3    H136049   5.546   5.141   3.242 -0.9678 -1.2693 -1.2783
 4878TIP3    H236050   5.416   5.151   3.320  1.4031  0.1327  2.7702
 4879TIP3   OH236051   4.818   1.466  11.232 -0.0854  0.4300 -0.1523
 4879TIP3    H136052   4.881   1.505  11.170  0.1702  2.1730  1.1258
 4879TIP3    H236053   4.872   1.436  11.305 -0.5789  0.4159  0.2123
 4880TIP3   OH236054   6.299   1.215   2.989 -0.2655 -0.1554  0.0545
 4880TIP3    H136055   6.245   1.288   2.958  3.8123  2.5058 -1.5796
 4880TIP3    H236056   6.317   1.164   2.910  2.5226  1.2288 -0.3110
 4881TIP3   OH236057   3.665   1.772  15.699  0.0971 -0.6796 -0.0581
 4881TIP3    H136058   3.748   1.740  15.734  1.0289 -0.7782 -2.1732
 4881TIP3    H236059   3.622   1.695  15.664 -1.1262 -0.6913  1.3763
 4882TIP3   OH236060   5.826   4.257   3.701  0.5020  0.7200 -0.3874
 4882TIP3    H136061   5.762   4.215   3.759  1.0621 -0.6501 -0.7121
 4882TIP3    H236062   5.872   4.319   3.757  0.0231  0.4956  0.2664
 4883TIP3   OH236063   5.870   6.547   0.809 -0.2388  0.1397 -0.0365
 4883TIP3    H136064   5.811   6.551   0.734  0.2684  0.3116 -0.4341
 4883TIP3    H236065   5.860   6.457   0.842 -1.1498  0.3421  0.2630
 4884TIP3   OH236066   4.693   6.242  14.955 -0.5019  0.6203  0.1672
 4884TIP3    H136067   4.673   6.241  15.048  0.4316 -1.1678  0.3867
 4884TIP3    H236068   4.665   6.156  14.923  0.1735  0.7953 -0.9740
 4885TIP3   OH236069   6.505   6.010  15.688 -0.3207  0.6801  0.6969
 4885TIP3    H136070   6.417   6.028  15.721 -0.4602  0.5289  0.4113
 4885TIP3    H236071   6.505   5.916  15.669 -0.0003  0.6191  0.9811
 4886TIP3   OH236072   4.728   0.177   4.607  0.4769  0.6118  0.1098
 4886TIP3    H136073   4.797   0.121   4.570 -1.3595 -1.1327 -0.9563
 4886TIP3    H236074   4.747   0.180   4.700  1.1401 -1.1727  0.0867
 4887TIP3   OH236075   1.730   1.412  16.524  0.0613  0.4741 -0.4084
 4887TIP3    H136076   1.713   1.439  16.434  1.4251  0.1592 -0.7862
 4887TIP3    H236077   1.826   1.409  16.531  0.0147 -1.7355  0.3369
 4888TIP3   OH236078   2.995   0.192   3.817  0.7530 -0.6827  0.3634
 4888TIP3    H136079   3.020   0.134   3.745  1.5172  0.3877 -0.2733
 4888TIP3    H236080   3.014   0.280   3.783 -1.7683  0.0656  0.7274
 4889TIP3   OH236081   4.907   2.610  13.365 -0.2295 -0.0005  0.5675
 4889TIP3    H136082   4.933   2.546  13.431 -0.4666 -0.2150  0.4550
 4889TIP3    H236083   4.950   2.691  13.392 -1.7284  0.3777  1.9915
 4890TIP3   OH236084   4.338   1.677  11.615  0.2719  0.1196 -0.2857
 4890TIP3    H136085   4.419   1.716  11.581 -0.8123  1.4918 -1.4297
 4890TIP3    H236086   4.286   1.752  11.644 -0.2385 -0.8098  1.3071
 4891TIP3   OH236087   6.246   6.216   4.524 -0.7961 -0.4074 -0.1811
 4891TIP3    H136088   6.298   6.241   4.601 -0.7236  2.3867 -1.0185
 4891TIP3    H236089   6.184   6.151   4.556  1.1892 -1.5748  1.5328
 4892TIP3   OH236090   0.240   0.173  12.743  0.0413 -0.9299 -0.5066
 4892TIP3    H136091   0.186   0.128  12.808  0.7715 -0.9338  0.1090
 4892TIP3    H236092   0.258   0.106  12.677 -0.4026 -1.0262 -0.5327
 4893TIP3   OH236093   4.472   1.050  14.781 -0.4231 -0.2996 -0.9677
 4893TIP3    H136094   4.378   1.035  14.769 -0.6626  0.3995 -0.0698
 4893TIP3    H236095   4.513   0.998  14.711 -1.3402 -2.5368  0.0309
 4894TIP3   OH236096   4.984   4.521   2.558 -0.3840  0.4959  0.4033
 4894TIP3    H136097   4.963   4.605   2.517 -0.7987  0.4164  0.4480
 4894TIP3    H236098   4.901   4.489   2.592 -0.5073 -0.5553 -0.7648
 4895TIP3   OH236099   2.622   0.240  10.926  0.1092 -0.2936 -0.1732
 4895TIP3    H136100   2.586   0.180  10.860  0.2119  0.0040 -0.5046
 4895TIP3    H236101   2.671   0.183  10.985 -0.3883 -0.6299 -0.0659
 4896TIP3   OH236102   2.178   4.901  12.623  0.1840 -0.5160  0.6175
 4896TIP3    H136103   2.111   4.853  12.672 -0.5311  0.0864  0.2513
 4896TIP3    H236104   2.128   4.956  12.562  1.0423 -1.1259 -0.6816
 4897TIP3   OH236105   2.619   3.394   0.750 -0.2519  0.2862  0.7563
 4897TIP3    H136106   2.702   3.358   0.718 -0.1305  0.4343  0.8993
 4897TIP3    H236107   2.622   3.379   0.844 -0.8178 -0.5747  0.6434
 4898TIP3   OH236108   4.449   4.441   1.769  0.6857 -0.2700 -0.1482
 4898TIP3    H136109   4.410   4.388   1.838  1.8183 -0.3106  0.4791
 4898TIP3    H236110   4.462   4.527   1.809  1.7582 -0.4183 -0.1473
 4899TIP3   OH236111   0.981   2.388  15.739 -0.3853 -0.3366 -0.4361
 4899TIP3    H136112   0.956   2.296  15.727  0.2853 -0.4865 -0.7036
 4899TIP3    H236113   0.942   2.433  15.664  1.3348 -0.8057 -1.6646
 4900TIP3   OH236114   5.576   3.221   4.852 -0.0710 -0.5286 -0.7051
 4900TIP3    H136115   5.541   3.155   4.911 -1.8833  0.4547 -0.6119
 4900TIP3    H236116   5.642   3.267   4.904 -0.6974 -0.5353  0.1124
 4901TIP3   OH236117   0.397   4.975   3.764  0.2037 -0.2722 -0.0311
 4901TIP3    H136118   0.457   5.049   3.768 -0.2530  0.2426 -1.7120
 4901TIP3    H236119   0.395   4.940   3.853 -1.0179  2.8814  1.3026
 4902TIP3   OH236120   5.318   4.405  11.994  0.0128  0.0905 -0.2145
 4902TIP3    H136121   5.357   4.377  11.911  0.0472  0.8595 -0.4621
 4902TIP3    H236122   5.230   4.433  11.971 -1.2231 -2.7813  0.5174
 4903TIP3   OH236123   5.330   3.010  11.460  0.3260  0.1189 -0.1727
 4903TIP3    H136124   5.315   3.092  11.413  1.3640 -0.4846 -1.6439
 4903TIP3    H236125   5.339   3.036  11.551 -2.4088  1.2722 -0.1224
 4904TIP3   OH236126   5.275   0.813  15.409  0.2552  0.2947 -0.4955
 4904TIP3    H136127   5.241   0.770  15.331  0.7269 -1.2148  0.0827
 4904TIP3    H236128   5.257   0.751  15.480  4.5349 -0.9151 -0.1977
 4905TIP3   OH236129   3.578   6.283  14.612  0.0071  0.4260 -0.3368
 4905TIP3    H136130   3.639   6.347  14.649  1.2582  0.2832 -2.0519
 4905TIP3    H236131   3.611   6.266  14.523 -0.8595 -1.8694 -0.2870
 4906TIP3   OH236132   4.507   4.765   5.317 -0.0284 -0.2376 -0.0075
 4906TIP3    H136133   4.477   4.675   5.330 -0.6285 -0.0954 -0.3837
 4906TIP3    H236134   4.428   4.815   5.298  0.1441  0.6277  1.4239
 4907TIP3   OH236135   5.464   3.156  12.232 -0.2411  0.1683  0.5269
 4907TIP3    H136136   5.529   3.226  12.222  1.3926 -1.3758 -0.2748
 4907TIP3    H236137   5.438   3.134  12.142 -2.5991  1.3199  0.8455
 4908TIP3   OH236138   0.225   3.693  13.700 -0.1767 -0.4990  0.0721
 4908TIP3    H136139   0.202   3.645  13.620  2.5938 -0.7721 -0.6448
 4908TIP3    H236140   0.210   3.631  13.770  1.8963 -2.0112 -0.7154
 4909TIP3   OH236141   3.193   5.374   3.875  0.4822  0.6062 -0.0832
 4909TIP3    H136142   3.176   5.468   3.873  4.9753  1.7133  1.8878
 4909TIP3    H236143   3.263   5.361   3.811  0.8076 -1.1544  0.5822
 4910TIP3   OH236144   4.216   4.270   1.662 -0.0643  0.1887 -0.3590
 4910TIP3    H136145   4.276   4.301   1.730 -1.0957  2.0372 -0.2374
 4910TIP3    H236146   4.170   4.196   1.703  0.2582  0.4435  0.4874
 4911TIP3   OH236147   0.151   2.172  15.661 -0.5261 -0.5479 -0.0063
 4911TIP3    H136148   0.095   2.250  15.661  0.2420  0.0235 -0.6085
 4911TIP3    H236149   0.160   2.149  15.753  0.6594  1.1325  0.3377
 4912TIP3   OH236150   2.027   5.725  13.771 -0.7274  0.1177 -0.1826
 4912TIP3    H136151   1.950   5.683  13.808  1.2517 -2.0532  1.7544
 4912TIP3    H236152   2.022   5.705  13.677 -1.4896 -1.7901  0.2127
 4913TIP3   OH236153   6.185   4.213  10.314  0.1833  0.0895  0.0981
 4913TIP3    H136154   6.182   4.198  10.408 -0.4909  1.2616  0.2791
 4913TIP3    H236155   6.109   4.166  10.280  0.5422 -0.5066  0.0938
 4914TIP3   OH236156   3.715   2.872  17.055  0.1215 -0.2630  0.3749
 4914TIP3    H136157   3.697   2.854  16.963 -0.2584  0.4773  0.2976
 4914TIP3    H236158   3.780   2.941  17.054  2.1098 -2.0208  0.6683
 4915TIP3   OH236159   1.367   4.750  13.142  0.0362 -0.1383 -0.1470
 4915TIP3    H136160   1.321   4.751  13.226  0.4904  2.5101  0.1586
 4915TIP3    H236161   1.448   4.799  13.158  0.4291 -0.1076 -1.9767
 4916TIP3   OH236162   6.222   2.112   0.829 -0.7420  0.1222 -0.2534
 4916TIP3    H136163   6.175   2.101   0.912  0.1624  0.0377  0.2583
 4916TIP3    H236164   6.290   2.045   0.831 -0.9435 -0.1187 -1.2347
 4917TIP3   OH236165   6.781   6.125   1.266  0.5279 -0.3107 -0.0736
 4917TIP3    H136166   6.778   6.037   1.303 -0.4118  0.0163  0.6887
 4917TIP3    H236167   6.692   6.142   1.237  0.1911  1.1116  1.6141
 4918TIP3   OH236168   5.937   2.426   3.093  0.0016 -0.0809  0.2053
 4918TIP3    H136169   5.998   2.354   3.078  1.5527  1.4531 -1.3632
 4918TIP3    H236170   5.910   2.416   3.184  0.7326 -2.1823  0.2527
 4919TIP3   OH236171   1.745   1.959  13.262  0.1140  0.0079  0.0605
 4919TIP3    H136172   1.666   1.904  13.259  0.0503  0.1203 -0.6698
 4919TIP3    H236173   1.814   1.904  13.226  0.3577 -0.0649  0.6348
 4920TIP3   OH236174   6.604   6.683  14.442  0.3688  0.0229  0.5922
 4920TIP3    H136175   6.698   6.666  14.450  0.2043 -0.9932  0.4604
 4920TIP3    H236176   6.579   6.720  14.527  0.4114 -2.1317  1.5902
 4921TIP3   OH236177   0.388   3.720   4.296  0.4303 -0.0835  0.2460
 4921TIP3    H136178   0.361   3.804   4.332 -0.3985 -1.0653  2.0751
 4921TIP3    H236179   0.381   3.730   4.201 -3.3228  0.7646  0.4640
 4922TIP3   OH236180   3.667   4.247   1.613 -0.8517  0.0712  0.3085
 4922TIP3    H136181   3.590   4.301   1.600 -2.6155 -2.8251 -2.9014
 4922TIP3    H236182   3.716   4.255   1.531 -1.5761 -3.4809 -0.6483
 4923TIP3   OH236183   0.009   2.309   4.862 -0.2296  0.2920  0.2999
 4923TIP3    H136184   0.069   2.276   4.795  0.7104  0.4453  1.0579
 4923TIP3    H236185  -0.012   2.231   4.915  1.0717  0.6449  1.3808
 4924TIP3   OH236186   1.791   4.449  14.563  0.1598 -0.4555 -0.5246
 4924TIP3    H136187   1.789   4.453  14.467  0.4455 -1.6564 -0.6038
 4924TIP3    H236188   1.733   4.376  14.584 -0.3381  0.1601  0.2548
 4925TIP3   OH236189   3.637   6.465  11.162 -0.3097  0.0604 -0.4920
 4925TIP3    H136190   3.593   6.461  11.077  0.1424 -1.0668 -0.6951
 4925TIP3    H236191   3.643   6.558  11.182 -0.0571  0.3559 -1.8899
 4926TIP3   OH236192   6.255   0.432  15.700 -0.7327  0.6186  0.0321
 4926TIP3    H136193   6.197   0.440  15.775 -1.4987 -0.2535 -0.4442
 4926TIP3    H236194   6.217   0.362  15.647  0.5861  0.2288 -0.4506
 4927TIP3   OH236195   0.647   1.002   5.694  1.1876  0.3455  0.6984
 4927TIP3    H136196   0.585   1.058   5.740 -0.0114 -1.5938  1.5619
 4927TIP3    H236197   0.724   0.998   5.751 -0.0320 -1.5188  2.3028
 4928TIP3   OH236198   3.201   3.465  14.845  0.3421  0.1359  0.0188
 4928TIP3    H136199   3.248   3.397  14.894  0.5948  0.6458  0.5031
 4928TIP3    H236200   3.196   3.433  14.756  1.0647 -0.2089  0.1028
 4929TIP3   OH236201   4.440   0.144   5.065  0.7096 -0.0980  0.4763
 4929TIP3    H136202   4.470   0.089   4.992  2.1165  2.7268 -1.2673
 4929TIP3    H236203   4.348   0.161   5.045  0.9997  0.3901 -0.5311
 4930TIP3   OH236204   3.460   3.049   0.807 -0.0463 -0.2357  0.2946
 4930TIP3    H136205   3.402   3.111   0.762 -0.9660 -1.1529  0.1632
 4930TIP3    H236206   3.411   3.023   0.885 -0.1642 -1.5878 -0.2011
 4931TIP3   OH236207   4.483   3.367   3.947 -0.1952  0.1764  0.5902
 4931TIP3    H136208   4.572   3.383   3.916 -1.0693 -0.4894 -2.6068
 4931TIP3    H236209   4.490   3.288   4.000  1.3081  0.9473  1.6142
 4932TIP3   OH236210   1.090   4.940   4.520  0.4879  0.2758 -0.1800
 4932TIP3    H136211   1.144   4.888   4.459 -0.7144 -1.2917  0.0334
 4932TIP3    H236212   1.007   4.953   4.473 -0.3364 -0.6771  0.9696
 4933TIP3   OH236213   4.340   2.170   1.467  0.1976  0.1549 -0.2906
 4933TIP3    H136214   4.252   2.171   1.504  0.0685 -0.4134 -0.5660
 4933TIP3    H236215   4.394   2.124   1.531 -0.1636 -1.4249 -1.0715
 4934TIP3   OH236216   1.923   3.153   0.857  0.5142 -0.0497 -0.0847
 4934TIP3    H136217   1.852   3.111   0.808  0.6484 -0.8243  0.3727
 4934TIP3    H236218   1.879   3.198   0.929  0.4833 -0.6136  0.2576
 4935TIP3   OH236219   3.484   5.519   2.953 -0.2591  0.1483  0.3200
 4935TIP3    H136220   3.432   5.521   2.872  1.9408  1.6900 -1.1603
 4935TIP3    H236221   3.475   5.607   2.989  0.1567 -0.0197  0.8424
 4936TIP3   OH236222   5.318   0.596   5.279 -0.6816 -0.0886 -0.2037
 4936TIP3    H136223   5.313   0.682   5.320 -2.0115 -0.2848  0.0811
 4936TIP3    H236224   5.229   0.562   5.283 -0.3171 -1.1888 -0.9531
 4937TIP3   OH236225   0.676   3.947   1.791  0.0228  0.2333 -0.4951
 4937TIP3    H136226   0.592   3.902   1.802  0.6148 -1.1601 -1.5210
 4937TIP3    H236227   0.729   3.918   1.866 -0.8886  2.4181  1.1280
 4938TIP3   OH236228   5.040   3.776  14.251 -0.2289 -0.1919  0.1947
 4938TIP3    H136229   4.989   3.721  14.310 -0.0703 -0.0951  0.4206
 4938TIP3    H236230   5.076   3.845  14.306 -0.5358  0.2228 -0.1095
 4939TIP3   OH236231   5.910   6.746   4.162 -0.0395  0.1427  0.3318
 4939TIP3    H136232   5.985   6.689   4.149 -0.6751 -1.0599  1.6892
 4939TIP3    H236233   5.935   6.828   4.120  1.8927 -0.3334  0.4518
 4940TIP3   OH236234   4.316   0.897   5.937 -0.1085 -0.0105 -0.4604
 4940TIP3    H136235   4.409   0.879   5.924  0.5635  1.4908  1.7584
 4940TIP3    H236236   4.311   0.940   6.023 -2.6934  1.1927 -1.1074
 4941TIP3   OH236237   2.750   2.629  13.145  0.1189  0.0181  0.6300
 4941TIP3    H136238   2.825   2.677  13.182  0.7190  0.4376 -1.0690
 4941TIP3    H236239   2.785   2.543  13.124  0.9307  0.9732 -2.5186
 4942TIP3   OH236240   1.048   4.100   1.514 -0.6464 -0.1924  0.4058
 4942TIP3    H136241   1.142   4.090   1.531 -0.2593  1.3776 -0.5262
 4942TIP3    H236242   1.008   4.106   1.600  0.1814 -0.3277  0.8127
 4943TIP3   OH236243   0.053   4.541  11.804  0.0010 -0.3547  0.2767
 4943TIP3    H136244   0.040   4.632  11.776 -0.2275 -0.6504 -0.6138
 4943TIP3    H236245  -0.035   4.503  11.802  0.2856 -0.9967 -0.8395
 4944TIP3   OH236246   6.400   3.622   1.266  0.1724  0.3170  0.2628
 4944TIP3    H136247   6.453   3.545   1.286 -0.7446 -0.3351  0.2362
 4944TIP3    H236248   6.416   3.639   1.173  1.1207  0.7561  0.4922
 4945TIP3   OH236249   6.137   1.441   3.692  0.5718 -0.4086  0.0678
 4945TIP3    H136250   6.049   1.446   3.655  0.7796 -0.9061 -0.5005
 4945TIP3    H236251   6.195   1.437   3.617  1.0843 -0.0491  0.4430
 4946TIP3   OH236252   5.997   6.104   4.732  0.3253  0.5572  0.0168
 4946TIP3    H136253   5.971   6.154   4.655 -1.1251 -1.8279 -1.1762
 4946TIP3    H236254   5.991   6.012   4.704 -0.2706 -0.4203  2.9700
 4947TIP3   OH236255   5.276   4.703  13.307  0.3917 -0.7198 -0.2081
 4947TIP3    H136256   5.205   4.737  13.252 -0.5944  1.5635  2.2388
 4947TIP3    H236257   5.270   4.608  13.299 -1.2618 -0.5155 -2.0798
 4948TIP3   OH236258   6.767   1.227   2.752  0.1645  0.0579  0.3774
 4948TIP3    H136259   6.741   1.243   2.843  1.0439 -1.7091  0.9716
 4948TIP3    H236260   6.731   1.302   2.704  0.8627  1.7772  2.3679
 4949TIP3   OH236261   3.554   0.289  14.741 -0.3302 -0.0554  0.3498
 4949TIP3    H136262   3.630   0.290  14.799  0.2441 -0.6449 -0.3654
 4949TIP3    H236263   3.590   0.262  14.656 -1.4187 -0.8961  0.1336
 4950TIP3   OH236264   1.377   4.892  16.062  0.0647  0.4418  0.4171
 4950TIP3    H136265   1.304   4.940  16.101 -0.4178  1.7072 -1.8439
 4950TIP3    H236266   1.406   4.832  16.130 -0.2244  2.9464  2.8979
 4951TIP3   OH236267   0.138   6.500   0.482  0.7378 -0.4093  0.0255
 4951TIP3    H136268   0.082   6.569   0.518  1.3688 -0.7092  1.6627
 4951TIP3    H236269   0.164   6.448   0.558  0.1969 -2.5436 -1.1587
 4952TIP3   OH236270   2.684   0.805   0.869  0.2988 -0.5971 -0.4720
 4952TIP3    H136271   2.761   0.781   0.920  0.2777  0.6119  0.1550
 4952TIP3    H236272   2.711   0.792   0.778  1.5599  0.6255 -0.3069
 4953TIP3   OH236273   5.962   2.038  13.742 -0.3688 -0.3659 -0.0363
 4953TIP3    H136274   5.982   1.987  13.663  2.5280 -0.6821  0.7574
 4953TIP3    H236275   5.893   1.988  13.785  0.4870 -2.1855 -0.6436
 4954TIP3   OH236276   0.985   1.638   5.325 -0.3439 -0.1207 -0.3179
 4954TIP3    H136277   0.895   1.658   5.299  0.4260  1.7731 -1.8040
 4954TIP3    H236278   1.003   1.697   5.398  0.0089  0.3081 -0.7400
 4955TIP3   OH236279   0.481   2.912  16.455 -0.3045 -0.0816  0.0826
 4955TIP3    H136280   0.458   2.892  16.545  0.1244  1.7881  0.6553
 4955TIP3    H236281   0.575   2.891  16.448  0.3285  2.1738  0.8938
 4956TIP3   OH236282   1.714   0.423   5.352 -0.1475 -0.1756  0.3017
 4956TIP3    H136283   1.711   0.452   5.443  1.2409  0.1423  0.2709
 4956TIP3    H236284   1.808   0.413   5.333 -0.4051 -0.0576 -1.1519
 4957TIP3   OH236285   3.267   2.911   3.736  0.4323  0.2312  0.0941
 4957TIP3    H136286   3.344   2.967   3.725  0.0463  0.5865 -0.9378
 4957TIP3    H236287   3.287   2.858   3.813  1.6181  0.4664 -0.0281
 4958TIP3   OH236288   3.986   3.328  15.118 -0.1999  0.6002 -0.1637
 4958TIP3    H136289   3.955   3.304  15.205 -0.0014  2.1133  0.3655
 4958TIP3    H236290   4.014   3.419  15.128  3.1351 -0.2376 -0.9430
 4959TIP3   OH236291   3.848   0.803   3.083  0.0799 -0.2027 -0.3840
 4959TIP3    H136292   3.797   0.801   3.164  1.5297 -0.8332  0.5560
 4959TIP3    H236293   3.847   0.713   3.052 -1.8101  0.3004 -2.0056
 4960TIP3   OH236294   3.306   5.386  11.974 -0.2206  0.0360 -0.2476
 4960TIP3    H136295   3.315   5.388  11.878 -1.1440 -0.3663 -0.3562
 4960TIP3    H236296   3.320   5.294  11.997 -1.3086 -0.1235 -0.1573
 4961TIP3   OH236297   6.447   4.985   6.276 -0.9490  0.2333  0.4263
 4961TIP3    H136298   6.382   5.054   6.292 -0.6937  0.7203 -0.5878
 4961TIP3    H236299   6.415   4.939   6.199  0.2901  0.9829 -0.5718
 4962TIP3   OH236300   6.365   2.813  13.419 -0.2565 -0.0562  0.6492
 4962TIP3    H136301   6.329   2.799  13.332 -2.2057  0.3354  1.3388
 4962TIP3    H236302   6.406   2.730  13.442 -2.3640 -1.2148  0.5058
 4963TIP3   OH236303   6.256   1.566   2.026  0.8080  0.3240 -0.9002
 4963TIP3    H136304   6.334   1.511   2.023  1.0301  0.5386  0.3246
 4963TIP3    H236305   6.187   1.512   1.989  1.0046 -0.8272  0.3631
 4964TIP3   OH236306   0.052   4.885   0.068 -0.0950  0.0385 -0.0716
 4964TIP3    H136307   0.098   4.812   0.109 -0.6547 -0.6396 -0.6245
 4964TIP3    H236308   0.111   4.916   0.000 -0.0655 -0.2399 -0.1764
 4965TIP3   OH236309   2.920   1.641  16.733 -0.2019 -0.2518 -0.1207
 4965TIP3    H136310   3.010   1.637  16.702 -0.6484 -1.4974 -1.3623
 4965TIP3    H236311   2.925   1.689  16.816  1.0111  3.6952 -2.2263
 4966TIP3   OH236312   2.003   0.504  14.674  0.0681 -0.7381  0.8332
 4966TIP3    H136313   2.070   0.437  14.684  0.3929 -0.7655 -1.0749
 4966TIP3    H236314   1.990   0.539  14.762  4.5024  1.1291  1.0099
 4967TIP3   OH236315   2.196   5.856   5.066 -0.1410  0.0284 -0.1635
 4967TIP3    H136316   2.186   5.945   5.033  1.3652  0.0694 -0.5527
 4967TIP3    H236317   2.107   5.831   5.092 -0.6548  1.5000 -0.3786
 4968TIP3   OH236318   0.034   0.156   4.892 -0.1800  0.9570  0.0732
 4968TIP3    H136319   0.084   0.238   4.901 -0.3273  0.8631  2.5187
 4968TIP3    H236320  -0.052   0.177   4.930 -0.4193 -0.1605  0.1675
 4969TIP3   OH236321   1.749   1.886   2.181  0.3927  0.1670 -0.3064
 4969TIP3    H136322   1.762   1.892   2.086 -1.0892  0.6801 -0.4984
 4969TIP3    H236323   1.703   1.966   2.205  0.4151 -0.1291  0.7941
 4970TIP3   OH236324   4.038   2.812   4.660  0.4122  0.1783  0.5931
 4970TIP3    H136325   4.009   2.735   4.610  0.9392 -0.5823  1.4219
 4970TIP3    H236326   3.963   2.834   4.714  0.2506  0.2582  0.3373
 4971TIP3   OH236327   2.028   3.523  16.133 -0.1511 -0.1950 -0.1406
 4971TIP3    H136328   2.096   3.540  16.067 -0.0053 -1.4027 -0.3272
 4971TIP3    H236329   1.973   3.455  16.094  0.3171 -1.4135  1.2329
 4972TIP3   OH236330   4.326   4.828  12.955 -0.4451 -0.2173  0.3633
 4972TIP3    H136331   4.299   4.815  13.046 -0.4936  1.7859  0.6851
 4972TIP3    H236332   4.422   4.829  12.959 -0.4244  1.7023  0.7691
 4973TIP3   OH236333   1.721   3.729  14.484 -0.4980 -0.1973 -0.0597
 4973TIP3    H136334   1.814   3.725  14.463 -0.8953 -1.0520 -1.8122
 4973TIP3    H236335   1.701   3.645  14.525 -0.6151 -0.2358 -0.1942
 4974TIP3   OH236336   3.306   3.171  12.408  0.1557 -0.0957 -0.8769
 4974TIP3    H136337   3.225   3.215  12.432  0.2088 -1.4676  2.2866
 4974TIP3    H236338   3.372   3.240  12.406 -0.3163  0.4588  0.9442
 4975TIP3   OH236339   1.550   3.242   1.160 -0.6226  0.5673 -0.2642
 4975TIP3    H136340   1.591   3.272   1.080 -1.1086 -0.2403 -0.8285
 4975TIP3    H236341   1.617   3.255   1.228  0.0530  0.5631 -0.9228
 4976TIP3   OH236342   6.620   1.467  15.161  0.2734 -0.3387 -0.4542
 4976TIP3    H136343   6.580   1.380  15.164  2.9213 -1.6727 -1.3130
 4976TIP3    H236344   6.650   1.483  15.251 -1.8073  0.5748  0.1428
 4977TIP3   OH236345   3.487   5.672  15.876  0.5659 -0.0910 -0.0748
 4977TIP3    H136346   3.550   5.722  15.928  0.9347 -0.6475  0.0242
 4977TIP3    H236347   3.413   5.731  15.864  0.0307 -0.2770  1.9454
 4978TIP3   OH236348   6.516   0.030  15.094  0.0329 -0.6166  0.3997
 4978TIP3    H136349   6.604   0.063  15.074  0.0807 -0.8625  0.1862
 4978TIP3    H236350   6.475   0.099  15.145  0.6495 -0.8535  1.2355
 4979TIP3   OH236351   1.287   4.139   1.941  0.2994  0.0886  0.0096
 4979TIP3    H136352   1.213   4.091   1.904  1.4954 -1.1395 -0.8667
 4979TIP3    H236353   1.293   4.218   1.887  0.4712 -0.4672 -0.7883
 4980TIP3   OH236354   6.495   1.462   3.562 -0.5559  0.2769  0.1638
 4980TIP3    H136355   6.497   1.558   3.564 -0.3041  0.2638  0.8866
 4980TIP3    H236356   6.527   1.439   3.474 -1.1833  0.8641 -0.2265
 4981TIP3   OH236357   0.468   1.058   0.941  0.3518 -0.0940  0.0646
 4981TIP3    H136358   0.453   1.049   0.847 -0.7032 -2.6161  0.4049
 4981TIP3    H236359   0.562   1.051   0.951  0.7625  2.6282 -0.9456
 4982TIP3   OH236360   0.650   0.031   1.988 -0.0399  0.2642  0.2210
 4982TIP3    H136361   0.560   0.044   2.017 -1.4950 -0.2576 -3.4514
 4982TIP3    H236362   0.679  -0.047   2.035 -0.7152  1.4980  2.8847
 4983TIP3   OH236363   3.826   5.237   5.200  0.1042  0.3500 -0.3427
 4983TIP3    H136364   3.842   5.204   5.111 -1.2540 -0.2355 -0.3909
 4983TIP3    H236365   3.811   5.331   5.188  1.5619  0.5855 -0.5090
 4984TIP3   OH236366   1.369   1.334  10.600  0.2533 -0.0881  0.3448
 4984TIP3    H136367   1.313   1.407  10.570  1.3544  0.6666  0.0590
 4984TIP3    H236368   1.389   1.286  10.520  0.2610 -0.1757  0.3999
 4985TIP3   OH236369   2.916   0.221  11.594  0.5273 -0.5105 -0.1272
 4985TIP3    H136370   2.870   0.290  11.546  0.5081 -0.9270 -0.7119
 4985TIP3    H236371   2.885   0.231  11.684  0.0399 -0.1592 -0.3247
 4986TIP3   OH236372   1.248   1.786   5.276  0.3566  0.4336 -0.3314
 4986TIP3    H136373   1.294   1.866   5.251  0.4046  0.7476  0.6825
 4986TIP3    H236374   1.169   1.817   5.321  0.3474 -0.0790  0.0193
 4987TIP3   OH236375   0.700   3.189   1.797 -0.1945  0.5169  0.0681
 4987TIP3    H136376   0.640   3.177   1.871  1.0727 -0.5198  0.9720
 4987TIP3    H236377   0.786   3.199   1.838  0.5083  0.0688 -1.2548
 4988TIP3   OH236378   1.044   6.298  16.764 -0.0300 -0.7878 -0.3174
 4988TIP3    H136379   1.025   6.379  16.810  0.5445 -2.1154  2.5236
 4988TIP3    H236380   0.963   6.275  16.719  0.3877  2.3034 -3.0437
 4989TIP3   OH236381   5.941   1.369  14.261  0.2680 -0.0511  0.2151
 4989TIP3    H136382   5.973   1.459  14.265  0.5847 -0.1677  0.2856
 4989TIP3    H236383   5.850   1.375  14.293  0.2603  0.2535  0.1426
 4990TIP3   OH236384   6.244   3.125  12.605  1.0455 -0.0960  0.1597
 4990TIP3    H136385   6.323   3.086  12.644  0.2602 -2.8272 -0.7668
 4990TIP3    H236386   6.208   3.180  12.675  1.8196 -1.6804  1.9035
 4991TIP3   OH236387   2.337   3.657   1.046  0.3925  0.1627  0.3570
 4991TIP3    H136388   2.251   3.634   1.011  0.2691  0.6735  0.3143
 4991TIP3    H236389   2.378   3.709   0.977  1.0716 -0.7688  0.0404
 4992TIP3   OH236390   0.104   3.410   0.206 -0.4396 -0.1384  0.2711
 4992TIP3    H136391   0.167   3.346   0.239  0.7307  0.2320 -1.1451
 4992TIP3    H236392   0.058   3.365   0.135 -0.2970  0.2604 -0.0793
 4993TIP3   OH236393   2.272   3.247  12.710 -0.0948  0.0763  0.0903
 4993TIP3    H136394   2.258   3.161  12.669 -0.2079 -0.2953  0.8866
 4993TIP3    H236395   2.342   3.286  12.659  0.2035 -0.6397 -0.0681
 4994TIP3   OH236396   0.829   4.593  11.062  0.3251 -0.3472  0.2087
 4994TIP3    H136397   0.801   4.517  11.012 -2.1950  0.8775 -0.4001
 4994TIP3    H236398   0.869   4.652  10.998  0.8426 -0.4994  0.3900
 4995TIP3   OH236399   5.007   6.626   6.048  0.5220 -0.3032  0.3852
 4995TIP3    H136400   5.022   6.716   6.021  0.9144  0.0940  1.8318
 4995TIP3    H236401   5.094   6.593   6.072  0.2541 -0.7682  0.7295
 4996TIP3   OH236402   0.607   1.806  11.678  0.1618 -0.0875 -0.4909
 4996TIP3    H136403   0.692   1.792  11.720 -0.2603  0.7175  0.6585
 4996TIP3    H236404   0.600   1.733  11.616  1.4417 -0.4856 -0.2088
 4997TIP3   OH236405   4.901   0.482  11.421 -0.3469 -0.4273 -0.1283
 4997TIP3    H136406   4.842   0.556  11.406  0.8598  0.8344  0.9956
 4997TIP3    H236407   4.960   0.484  11.345 -0.2169 -0.1196 -0.0224
 4998TIP3   OH236408   5.522   4.094   1.952 -0.2187  0.4897 -0.0243
 4998TIP3    H136409   5.490   4.053   2.032  0.7357  0.1873  0.2114
 4998TIP3    H236410   5.444   4.104   1.898 -0.5201 -1.4958 -0.0312
 4999TIP3   OH236411   1.239   3.531  12.471 -0.0762 -0.0254 -0.0811
 4999TIP3    H136412   1.253   3.438  12.486  0.1942 -0.1398 -1.0035
 4999TIP3    H236413   1.317   3.560  12.424  0.5423  0.9999  1.4807
 5000TIP3   OH236414   0.973   1.423   3.693  0.1756  0.1994 -0.1283
 5000TIP3    H136415   1.044   1.391   3.637  1.0735 -1.0683  1.6537
 5000TIP3    H236416   0.953   1.510   3.658  2.6108  0.6082 -0.7097
 5001TIP3   OH236417   4.387   1.610  12.425 -0.0196  0.2718  0.2255
 5001TIP3    H136418   4.417   1.630  12.514  0.8906  1.3675 -0.2994
 5001TIP3    H236419   4.465   1.619  12.370 -0.6798  0.1587 -0.7628
 5002TIP3   OH236420   1.358   3.293   3.725 -0.4345 -0.0747  0.8373
 5002TIP3    H136421   1.338   3.319   3.635  0.4769 -2.6949 -0.2160
 5002TIP3    H236422   1.315   3.359   3.779  0.6723  2.8108 -1.4889
 5003TIP3   OH236423   3.649   3.304   5.142 -0.0536  0.0160 -0.5974
 5003TIP3    H136424   3.720   3.308   5.207  0.1867 -0.0900 -0.8502
 5003TIP3    H236425   3.684   3.351   5.067  0.0577 -0.7339 -1.0201
 5004TIP3   OH236426   1.810   3.158   2.138  1.0058 -0.1842 -0.0637
 5004TIP3    H136427   1.781   3.225   2.199  0.5488  0.6996 -1.2035
 5004TIP3    H236428   1.741   3.153   2.072  2.3638  0.3495 -1.6108
 5005TIP3   OH236429   0.131   1.361   6.622 -0.0238  0.8193 -0.4309
 5005TIP3    H136430   0.173   1.281   6.590 -1.9693 -0.8049  0.8030
 5005TIP3    H236431   0.152   1.363   6.716 -1.5675  0.6610 -0.0566
 5006TIP3   OH236432   5.507   4.448   0.943  0.2160  0.3846 -0.0527
 5006TIP3    H136433   5.561   4.370   0.952  0.2428  0.5398  1.3058
 5006TIP3    H236434   5.515   4.473   0.851  0.7839 -0.7910 -0.3317
 5007TIP3   OH236435   1.781   6.103   2.762 -0.4716  0.1615  0.2922
 5007TIP3    H136436   1.696   6.125   2.725 -0.3236 -0.7300 -0.6092
 5007TIP3    H236437   1.763   6.035   2.827 -0.4860  0.2577  0.3903
 5008TIP3   OH236438   0.160   5.502  10.936 -0.3703  0.0603  0.2280
 5008TIP3    H136439   0.247   5.536  10.913 -0.2361 -0.6954 -0.3817
 5008TIP3    H236440   0.174   5.409  10.950 -0.9332  0.0808  0.9504
 5009TIP3   OH236441   0.317   4.695   1.368 -0.0769  0.4555  0.2158
 5009TIP3    H136442   0.223   4.711   1.360  0.0963  0.9719 -1.0068
 5009TIP3    H236443   0.353   4.779   1.397  0.2888  1.0243 -1.7733
 5010TIP3   OH236444   2.301   4.220   2.402 -0.3683 -0.3261 -0.0459
 5010TIP3    H136445   2.382   4.271   2.406 -1.4023  1.3562  0.8622
 5010TIP3    H236446   2.314   4.149   2.465  0.6250 -0.4267 -0.3576
 5011TIP3   OH236447   4.479   3.172   4.132  0.4529  0.0280 -0.5926
 5011TIP3    H136448   4.544   3.103   4.122  1.0981  0.7600 -1.5680
 5011TIP3    H236449   4.447   3.161   4.221  2.1821 -0.1159  0.0475
 5012TIP3   OH236450   1.069   1.982   6.254 -0.4641 -0.0903  0.2657
 5012TIP3    H136451   0.982   2.008   6.221 -1.0213 -2.2446 -0.0817
 5012TIP3    H236452   1.061   1.889   6.271  1.7209 -0.2651  0.5390
 5013TIP3   OH236453   3.565   2.505  12.658 -0.0001  0.0791  0.2555
 5013TIP3    H136454   3.483   2.497  12.707 -0.1352  2.0789  0.4362
 5013TIP3    H236455   3.624   2.441  12.699 -1.8697 -2.5572 -0.8963
 5014TIP3   OH236456   3.455   1.412   5.147  0.0992  0.1258  0.8801
 5014TIP3    H136457   3.363   1.396   5.170 -0.7063  0.5459 -1.6764
 5014TIP3    H236458   3.504   1.348   5.198 -1.7887 -1.3286  1.0188
 5015TIP3   OH236459   0.266   4.195   2.731 -0.0100  0.5069 -0.2339
 5015TIP3    H136460   0.350   4.169   2.694  0.1059 -0.4878  0.6725
 5015TIP3    H236461   0.220   4.112   2.745 -0.3469  0.8977  1.0917
 5016TIP3   OH236462   5.655   2.818  16.894 -0.6316  0.4415 -0.4277
 5016TIP3    H136463   5.716   2.794  16.823  0.1323  0.7602  0.1093
 5016TIP3    H236464   5.622   2.734  16.926  1.3714  0.0867  0.8657
 5017TIP3   OH236465   5.792   3.986  11.357 -0.1015  0.4920 -0.2139
 5017TIP3    H136466   5.711   4.016  11.397  1.7610  3.0343  2.0259
 5017TIP3    H236467   5.796   4.032  11.273 -0.6631  0.8174 -0.0674
 5018TIP3   OH236468   2.301   2.012   4.992  0.0949  0.6428  0.2092
 5018TIP3    H136469   2.219   2.028   4.947 -0.4873  1.0030  1.3748
 5018TIP3    H236470   2.347   2.096   4.990 -0.4456  0.9888  1.2712
 5019TIP3   OH236471   5.800   0.334  15.179  0.4644 -0.9030  0.2015
 5019TIP3    H136472   5.734   0.297  15.121  1.3174  1.4719 -2.5384
 5019TIP3    H236473   5.875   0.275  15.171  0.6395 -0.5165 -1.4005
 5020TIP3   OH236474   6.314   5.251   2.865 -0.4332 -0.1331 -0.4050
 5020TIP3    H136475   6.255   5.227   2.937  1.3926 -1.5624  0.6958
 5020TIP3    H236476   6.399   5.264   2.907  0.7268 -1.1459 -2.3006
 5021TIP3   OH236477   2.649   2.903  14.182 -0.4479  0.3632  0.5632
 5021TIP3    H136478   2.558   2.871  14.181  0.3976 -2.3119  1.4007
 5021TIP3    H236479   2.667   2.926  14.091 -1.1819 -1.5690 -0.1169
 5022TIP3   OH236480   1.982   4.464  15.375  0.6360 -0.0946 -0.3221
 5022TIP3    H136481   2.052   4.507  15.328  0.2219  0.4639 -0.4347
 5022TIP3    H236482   2.000   4.482  15.468 -0.2123  1.4038 -0.4183
 5023TIP3   OH236483   3.175   0.043   2.860 -0.0471 -0.2000 -0.7096
 5023TIP3    H136484   3.261   0.015   2.889 -0.9646 -0.4104  2.0805
 5023TIP3    H236485   3.183   0.051   2.765  2.5610 -1.7992 -0.7128
 5024TIP3   OH236486   2.311   0.513  14.203 -0.5603  0.3442  0.4461
 5024TIP3    H136487   2.232   0.563  14.181 -2.0640 -0.7792  2.8973
 5024TIP3    H236488   2.311   0.440  14.141 -0.8347  0.9035 -0.2357
 5025TIP3   OH236489   3.755   0.088  13.988  0.1503  0.2505  0.2459
 5025TIP3    H136490   3.839   0.050  14.017  0.2775 -1.1330 -1.7466
 5025TIP3    H236491   3.757   0.080  13.893 -0.9947  2.9814 -0.0880
 5026TIP3   OH236492   6.208   3.711   3.969 -0.4714  0.1785  0.3113
 5026TIP3    H136493   6.274   3.780   3.976 -1.5792  1.2692  0.4134
 5026TIP3    H236494   6.177   3.716   3.878 -2.4247  1.6564  0.9881
 5027TIP3   OH236495   1.178   5.720   0.560  0.2071 -0.1125  0.2851
 5027TIP3    H136496   1.182   5.774   0.638  0.3487  0.4121 -0.0808
 5027TIP3    H236497   1.091   5.738   0.523 -0.4361 -1.4324  1.0732
 5028TIP3   OH236498   3.481   5.802  13.473 -0.0782 -0.7991  0.7573
 5028TIP3    H136499   3.429   5.803  13.553 -1.8720 -0.1898 -0.3695
 5028TIP3    H236500   3.419   5.821  13.403  1.6995  0.2461 -0.6318
 5029TIP3   OH236501   1.606   6.467  16.127 -0.2464  0.0233  0.1128
 5029TIP3    H136502   1.583   6.431  16.042  0.0509  1.1956 -0.4881
 5029TIP3    H236503   1.548   6.542  16.138 -1.5245 -1.1362  1.7723
 5030TIP3   OH236504   1.349   6.354   5.325 -0.4503  0.3149 -0.2077
 5030TIP3    H136505   1.373   6.322   5.413 -2.0101 -0.5879 -0.0731
 5030TIP3    H236506   1.423   6.328   5.270  0.0466 -0.1300  0.6279
 5031TIP3   OH236507   0.868   4.671  16.893  0.3973 -0.2938  0.0305
 5031TIP3    H136508   0.957   4.681  16.927  0.6029  0.3279 -0.6638
 5031TIP3    H236509   0.816   4.729  16.948  0.4279 -0.6049  0.3936
 5032TIP3   OH236510   0.226   3.081   0.327  0.8065 -0.3069  0.4697
 5032TIP3    H136511   0.201   3.059   0.417 -0.8454 -0.2100  0.0658
 5032TIP3    H236512   0.177   3.019   0.273 -1.3432  2.1058 -0.5422
 5033TIP3   OH236513   6.515   6.537   5.297  0.4642 -0.0166  0.1542
 5033TIP3    H136514   6.438   6.592   5.283  0.0459  0.3838  3.2188
 5033TIP3    H236515   6.485   6.470   5.359  1.6854 -2.0975 -1.4001
 5034TIP3   OH236516   5.699   1.968  15.546  0.2180  0.5165  0.1168
 5034TIP3    H136517   5.642   1.995  15.474  2.2170  0.9041 -1.4103
 5034TIP3    H236518   5.661   1.885  15.576  0.1104 -0.4358 -2.4037
 5035TIP3   OH236519   2.140   0.624   3.559  0.4061  0.1970  0.0514
 5035TIP3    H136520   2.104   0.538   3.581 -0.3696  0.1220 -1.4267
 5035TIP3    H236521   2.213   0.606   3.500  0.7426  0.5249  0.3573
 5036TIP3   OH236522   3.168   1.636  16.657  0.4952  0.2795 -0.0610
 5036TIP3    H136523   3.245   1.664  16.707  1.0425  0.6672 -1.0735
 5036TIP3    H236524   3.203   1.619  16.569 -0.6892  1.0902 -0.7113
 5037TIP3   OH236525   0.872   5.405  13.964 -0.0133  0.9213 -0.1030
 5037TIP3    H136526   0.958   5.403  13.921 -0.6440 -0.8449 -1.4116
 5037TIP3    H236527   0.877   5.478  14.025  3.3028 -0.5850  1.7248
 5038TIP3   OH236528   4.558   4.138  15.863 -0.6998  0.0929  0.1335
 5038TIP3    H136529   4.571   4.045  15.847  1.8515  0.7327 -2.6233
 5038TIP3    H236530   4.631   4.163  15.920 -1.3380  0.4091  0.8170
 5039TIP3   OH236531   3.420   5.464  12.231 -0.6524  0.2516 -0.0681
 5039TIP3    H136532   3.476   5.390  12.251 -0.0562  0.0099 -2.3876
 5039TIP3    H236533   3.400   5.455  12.138 -3.6513  0.9421  0.3986
 5040TIP3   OH236534   4.631   2.900  14.633 -0.1504 -0.5437  0.6154
 5040TIP3    H136535   4.707   2.849  14.660  0.7300 -0.3466 -1.3091
 5040TIP3    H236536   4.628   2.973  14.694 -1.2086 -2.5784  3.1905
 5041TIP3   OH236537   1.291   1.267  15.983 -0.3942  0.0424  0.2813
 5041TIP3    H136538   1.200   1.240  15.996 -0.3123 -0.5610 -0.3235
 5041TIP3    H236539   1.327   1.202  15.923 -0.2846  1.7258 -1.5627
 5042TIP3   OH236540   6.038   2.610  14.949  0.3062  0.1618 -0.0499
 5042TIP3    H136541   6.083   2.648  14.873 -2.1991  1.7233 -0.8636
 5042TIP3    H236542   5.971   2.554  14.912  0.6404 -1.0714  1.1162
 5043TIP3   OH236543   5.816   3.158  14.442  0.3362 -0.0455 -0.0604
 5043TIP3    H136544   5.815   3.239  14.390  3.1264  0.7578  0.9441
 5043TIP3    H236545   5.726   3.148  14.472 -0.3063  2.1638 -1.0158
 5044TIP3   OH236546   1.634   0.567   3.788 -0.5129 -0.5459  0.0421
 5044TIP3    H136547   1.555   0.621   3.791 -1.8866 -2.4301 -0.1805
 5044TIP3    H236548   1.684   0.591   3.867 -1.0901  0.9747 -0.0421
 5045TIP3   OH236549   0.650   4.407   3.697 -0.3085 -0.4416  0.3922
 5045TIP3    H136550   0.635   4.417   3.602 -0.4170  0.9109  0.5263
 5045TIP3    H236551   0.743   4.388   3.705  0.1908  1.6245  0.0968
 5046TIP3   OH236552   6.465   6.522   4.612  0.3146 -0.1596  0.0533
 5046TIP3    H136553   6.558   6.498   4.612  1.0600  2.2420  2.2045
 5046TIP3    H236554   6.421   6.448   4.654  1.6610 -0.3149  1.2910
 5047TIP3   OH236555   2.229   4.590  16.135  0.3781  0.7724 -0.2967
 5047TIP3    H136556   2.226   4.502  16.171 -0.4461  0.7494 -0.3872
 5047TIP3    H236557   2.316   4.598  16.096  0.6437  0.1862  0.1663
 5048TIP3   OH236558   5.722   4.735   2.587 -0.1492  0.4888 -0.5716
 5048TIP3    H136559   5.646   4.774   2.545 -1.9984 -0.2451  1.8424
 5048TIP3    H236560   5.756   4.672   2.523 -3.2064 -1.0620 -0.8251
 5049TIP3   OH236561   1.911   5.853   5.182 -0.2819 -0.5701 -0.0215
 5049TIP3    H136562   1.838   5.801   5.218 -0.1137 -0.9802 -0.2663
 5049TIP3    H236563   1.896   5.941   5.216 -0.9171 -0.6414 -0.0974
 5050TIP3   OH236564   6.465   1.551  11.725 -0.2554 -0.6161  0.1757
 5050TIP3    H136565   6.448   1.499  11.646 -1.2715 -0.5361  0.3221
 5050TIP3    H236566   6.475   1.641  11.693 -0.9873 -0.5336  0.1528
 5051TIP3   OH236567   1.391   3.257   5.260  0.0794 -0.1260 -0.0711
 5051TIP3    H136568   1.330   3.305   5.316 -0.9019 -0.5407 -0.7544
 5051TIP3    H236569   1.472   3.252   5.311 -0.6912 -0.2285  1.1845
 5052TIP3   OH236570   4.714   0.232   4.902  0.4309 -0.3649  0.2653
 5052TIP3    H136571   4.748   0.300   4.960 -1.7624  1.4413 -0.3862
 5052TIP3    H236572   4.660   0.280   4.839 -2.0556 -2.7734  0.3706
 5053TIP3   OH236573   6.310   3.407   3.792 -0.3390  0.1807 -0.8015
 5053TIP3    H136574   6.253   3.380   3.864  2.1042 -0.0951  1.1559
 5053TIP3    H236575   6.297   3.502   3.786 -1.1070  0.1028 -0.4951
 5054TIP3   OH236576   0.232   0.321   5.148 -0.4610  0.0738  0.2400
 5054TIP3    H136577   0.299   0.338   5.215 -0.4097  0.1342  0.1728
 5054TIP3    H236578   0.149   0.331   5.195 -0.4424 -2.4512  0.9853
 5055TIP3   OH236579   2.374   1.947   5.504  0.2075  0.1248  0.1383
 5055TIP3    H136580   2.304   1.999   5.543 -0.9194 -1.5981  0.5363
 5055TIP3    H236581   2.391   1.878   5.568  0.0681 -1.2913 -1.2955
 5056TIP3   OH236582   3.608   0.911  16.573  0.7898 -0.3528 -0.3049
 5056TIP3    H136583   3.638   1.001  16.574 -0.6004  0.1338 -0.3208
 5056TIP3    H236584   3.601   0.889  16.480  0.1948 -0.1441 -0.3124
 5057TIP3   OH236585   1.704   2.910   4.613 -0.0057 -0.7101  0.3068
 5057TIP3    H136586   1.687   2.927   4.705 -2.9867  1.5441 -0.4905
 5057TIP3    H236587   1.621   2.875   4.579  0.4999 -0.0143 -1.7868
 5058TIP3   OH236588   6.123   1.782  16.732 -0.6818  0.2303 -0.4043
 5058TIP3    H136589   6.196   1.729  16.762  1.2223  1.2738 -2.8038
 5058TIP3    H236590   6.058   1.719  16.702  0.7771 -0.8192 -1.5341
 5059TIP3   OH236591   2.232   1.731  11.012 -0.4860  0.6573 -0.0219
 5059TIP3    H136592   2.170   1.780  11.067  0.1093  1.2219  0.1519
 5059TIP3    H236593   2.176   1.673  10.960 -1.1385  0.8880  0.4031
 5060TIP3   OH236594   4.262   6.369  16.257 -0.0599 -0.1748 -0.1435
 5060TIP3    H136595   4.268   6.397  16.165 -0.1285 -1.2795 -0.5013
 5060TIP3    H236596   4.342   6.319  16.271  1.3389  2.2616  1.2526
 5061TIP3   OH236597   1.534   0.576   4.891 -0.7887 -0.2128 -0.0682
 5061TIP3    H136598   1.549   0.483   4.909 -0.2645 -0.0427  0.4150
 5061TIP3    H236599   1.543   0.618   4.977 -0.2766  0.3702 -0.3998
 5062TIP3   OH236600   5.465   0.114  13.160  0.0442 -0.5758  0.6454
 5062TIP3    H136601   5.458   0.047  13.092 -0.4065 -0.1812  0.2880
 5062TIP3    H236602   5.461   0.065  13.242 -1.4626 -0.9200  0.4094
 5063TIP3   OH236603   2.359   6.557  15.835 -0.4490  0.2104  0.3908
 5063TIP3    H136604   2.451   6.561  15.808 -0.3457 -0.1191  0.6936
 5063TIP3    H236605   2.325   6.644  15.816 -0.5242 -0.1485 -1.3440
 5064TIP3   OH236606   4.416   0.239   4.679 -0.3241 -0.5168  0.5943
 5064TIP3    H136607   4.446   0.323   4.714  0.0704 -0.3528 -0.1365
 5064TIP3    H236608   4.496   0.192   4.656 -0.5812 -0.0743 -1.3668
 5065TIP3   OH236609   1.486   1.369   3.898 -0.5388 -0.5468  0.3373
 5065TIP3    H136610   1.408   1.356   3.845  0.1083 -1.3029 -0.4595
 5065TIP3    H236611   1.559   1.358   3.837  0.2507 -2.0714  1.4823
 5066TIP3   OH236612   0.914   0.109  16.803  1.1725 -0.2223  0.0286
 5066TIP3    H136613   0.973   0.119  16.878  0.4313  0.7971  0.4946
 5066TIP3    H236614   0.828   0.093  16.842  0.4758  1.9237 -0.5399
 5067TIP3   OH236615   3.864   0.760  17.000 -0.1254 -0.2917  0.0104
 5067TIP3    H136616   3.895   0.772  16.910 -0.2544  0.2572  0.0307
 5067TIP3    H236617   3.795   0.694  16.994 -1.0164  0.6614 -0.4923
 5068TIP3   OH236618   0.740   4.111  11.744 -0.3669 -0.3188 -0.2830
 5068TIP3    H136619   0.799   4.070  11.807 -1.3388  0.9763  1.5819
 5068TIP3    H236620   0.652   4.085  11.772 -0.7991 -0.5482 -1.7493
 5069TIP3   OH236621   3.998   1.998   0.050  0.2353  0.3121 -0.3330
 5069TIP3    H136622   4.090   1.987   0.073 -0.0444 -2.8420 -0.2526
 5069TIP3    H236623   4.000   2.051  -0.030  2.0573  0.8921  0.0460
 5070TIP3   OH236624   0.399   4.719   2.886  0.1133 -0.2112 -0.4527
 5070TIP3    H136625   0.472   4.663   2.911 -0.3837 -1.7207 -2.1849
 5070TIP3    H236626   0.412   4.799   2.937  3.5611 -0.0046 -1.3803
 5071TIP3   OH236627   1.831   0.724   4.930 -0.2141 -0.6087  0.3473
 5071TIP3    H136628   1.773   0.794   4.900  0.5334 -1.2327 -2.9506
 5071TIP3    H236629   1.782   0.643   4.913  0.0819 -1.0094  1.3376
 5072TIP3   OH236630   6.410   6.570   1.379  0.1058  0.9988  0.7379
 5072TIP3    H136631   6.402   6.514   1.456 -2.6702 -0.1312 -0.2746
 5072TIP3    H236632   6.437   6.655   1.415  1.8362 -0.2300  2.5726
 5073TIP3   OH236633   1.747   1.513   5.885 -0.2990  0.4072  0.0820
 5073TIP3    H136634   1.731   1.476   5.972 -0.7285 -0.8479 -0.5043
 5073TIP3    H236635   1.747   1.607   5.898  0.8645  0.2297  1.6603
 5074TIP3   OH236636   5.268   3.011   3.295 -0.0464  0.1916 -0.2730
 5074TIP3    H136637   5.178   2.982   3.281  0.5656 -1.2319 -1.5197
 5074TIP3    H236638   5.322   2.935   3.273  1.6785  2.1647 -3.7198
 5075TIP3   OH236639   3.046   5.263  16.901  0.2325  0.3932 -0.3255
 5075TIP3    H136640   3.050   5.217  16.817  0.9408 -0.1173 -0.0215
 5075TIP3    H236641   2.982   5.214  16.952 -0.1431  0.6589 -0.5336
 5076TIP3   OH236642   2.492   3.210  11.706  0.1444 -0.7187 -0.1222
 5076TIP3    H136643   2.564   3.248  11.756 -0.4368  3.0142 -1.7729
 5076TIP3    H236644   2.413   3.245  11.746 -0.5699 -1.6788 -0.6481
 5077TIP3   OH236645   4.028   1.961  11.601  0.3712  0.5397  0.0550
 5077TIP3    H136646   4.055   1.903  11.530 -0.3148  0.4991 -0.1836
 5077TIP3    H236647   4.052   2.049  11.571  1.0621  0.4264  0.2507
 5078TIP3   OH236648   2.688   5.884  11.516 -0.6696 -0.4861 -0.2131
 5078TIP3    H136649   2.730   5.865  11.600  0.7257  0.3042 -0.6997
 5078TIP3    H236650   2.759   5.880  11.452 -1.5402 -0.1753 -1.2341
 5079TIP3   OH236651   0.510   5.644   4.418 -0.3579 -0.7443  0.5902
 5079TIP3    H136652   0.457   5.616   4.493  0.5314 -2.1649  0.7139
 5079TIP3    H236653   0.483   5.586   4.346  0.0140 -0.5169  0.2616
 5080TIP3   OH236654   5.655   4.298  14.557  0.2214 -0.0273 -0.6899
 5080TIP3    H136655   5.689   4.282  14.645  0.1420  3.3974  0.0938
 5080TIP3    H236656   5.712   4.247  14.500  1.7856 -0.4774  1.1792
 5081TIP3   OH236657   4.083   3.876  13.277  0.0217  0.2383 -0.4098
 5081TIP3    H136658   4.084   3.828  13.359 -0.1275  0.5320 -0.2359
 5081TIP3    H236659   4.147   3.831  13.222  0.7407  0.5436  0.1596
 5082TIP3   OH236660   5.441   3.262  16.758 -0.7602  0.1845 -0.4674
 5082TIP3    H136661   5.384   3.335  16.783 -1.4235 -0.3403 -0.3965
 5082TIP3    H236662   5.438   3.202  16.833 -0.2863  0.0513 -0.5535
 5083TIP3   OH236663   1.484   3.760  15.578 -0.4336  0.0582 -0.5747
 5083TIP3    H136664   1.453   3.847  15.553 -0.3207  0.2232 -0.1479
 5083TIP3    H236665   1.432   3.737  15.654 -1.1144 -0.6476 -1.2291
 5084TIP3   OH236666   0.804   0.618  12.592 -0.6522 -0.5083  0.2232
 5084TIP3    H136667   0.887   0.600  12.549 -0.8146  1.3323 -0.9697
 5084TIP3    H236668   0.740   0.567  12.542 -0.5133 -0.2195 -0.2635
 5085TIP3   OH236669   6.007   5.215  16.605 -0.7381 -0.8075  0.3571
 5085TIP3    H136670   5.968   5.265  16.677 -2.0085 -0.3974 -0.5804
 5085TIP3    H236671   5.938   5.212  16.538  0.4687 -1.0112 -0.9234
 5086TIP3   OH236672   4.235   1.533  12.837  0.1725 -0.4267  0.2272
 5086TIP3    H136673   4.215   1.525  12.930 -2.8476  0.4805 -0.2248
 5086TIP3    H236674   4.280   1.618  12.829  0.6640 -0.6185  0.8535
 5087TIP3   OH236675   4.916   5.030   3.199 -0.1991 -0.2607  0.1933
 5087TIP3    H136676   4.975   5.054   3.127  0.1294 -0.4640  0.3929
 5087TIP3    H236677   4.944   5.085   3.272  0.9991 -1.6789  0.8580
 5088TIP3   OH236678   1.921   4.374   5.239  0.5709  0.0165  0.5773
 5088TIP3    H136679   1.909   4.462   5.204  2.8668 -0.4224 -1.6170
 5088TIP3    H236680   2.013   4.371   5.266  1.2226 -2.2923 -1.4824
 5089TIP3   OH236681   1.556   2.441   2.246  0.0608  0.1549 -0.2103
 5089TIP3    H136682   1.568   2.496   2.323  0.3245  0.1115 -0.2182
 5089TIP3    H236683   1.618   2.476   2.182 -1.3308  1.2561 -0.9940
 5090TIP3   OH236684   1.302   5.203   5.553 -0.6357  0.2915 -0.0583
 5090TIP3    H136685   1.207   5.217   5.549 -0.5734  0.7629 -3.2260
 5090TIP3    H236686   1.338   5.289   5.532  0.4549 -0.1204  0.1108
 5091TIP3   OH236687   1.491   2.973  11.109 -0.6310  1.1940  0.2267
 5091TIP3    H136688   1.466   2.932  11.026 -0.9776  0.2181  0.7969
 5091TIP3    H236689   1.444   3.057  11.109  0.0143  1.5795 -0.9185
 5092TIP3   OH236690   6.743   3.445  16.042 -0.0313 -0.7926 -0.1585
 5092TIP3    H136691   6.653   3.474  16.055 -0.2272 -1.7315  0.7322
 5092TIP3    H236692   6.776   3.500  15.970 -1.6962 -1.2907 -1.3598
 5093TIP3   OH236693   2.987   3.193  14.721  0.5769 -0.3821  0.1323
 5093TIP3    H136694   2.900   3.165  14.695 -1.0390  2.3371  2.0605
 5093TIP3    H236695   3.035   3.111  14.735 -1.6274 -1.9740 -1.0101
 5094TIP3   OH236696   0.216   1.608  14.607 -0.1789 -0.1042 -0.6124
 5094TIP3    H136697   0.239   1.532  14.553  0.0472  2.0361 -3.8041
 5094TIP3    H236698   0.301   1.644  14.634 -0.2895 -1.3197  1.6097
 5095TIP3   OH236699   5.762   5.802   5.377  0.0059  0.2849  0.2459
 5095TIP3    H136700   5.796   5.742   5.311  0.0370 -0.3735  0.8487
 5095TIP3    H236701   5.741   5.882   5.328  0.4262 -0.0391 -0.4830
 5096TIP3   OH236702   1.256   5.778  14.524  0.0229 -0.3619 -0.5555
 5096TIP3    H136703   1.321   5.844  14.546 -0.4995  0.0828 -0.3215
 5096TIP3    H236704   1.237   5.733  14.607 -0.0842 -0.3863 -0.5925
 5097TIP3   OH236705   1.417   1.002   0.670  0.0167  0.2978  0.1279
 5097TIP3    H136706   1.493   0.950   0.697 -0.9596 -0.8863  0.7027
 5097TIP3    H236707   1.400   0.975   0.580  0.7656  1.1893 -0.2970
 5098TIP3   OH236708   0.054   4.043   2.900  0.1956  0.5602  0.4887
 5098TIP3    H136709  -0.042   4.047   2.908  0.2209 -0.2062  1.4382
 5098TIP3    H236710   0.081   3.991   2.976  1.2602 -0.3121 -0.4601
 5099TIP3   OH236711   0.523   3.627  11.389  0.0634 -0.0469 -0.5300
 5099TIP3    H136712   0.461   3.561  11.359 -1.0196  0.0564  1.3365
 5099TIP3    H236713   0.480   3.668  11.464  1.7155  1.1495 -0.1826
 5100TIP3   OH236714   0.048   0.602  14.764 -0.2691 -0.0923  0.5738
 5100TIP3    H136715  -0.014   0.530  14.775  0.9027 -0.9225  2.0412
 5100TIP3    H236716   0.051   0.645  14.849  1.9023 -0.7069  0.8665
 5101TIP3   OH236717   4.839   2.668  14.894  0.2391  0.0207 -0.5834
 5101TIP3    H136718   4.912   2.607  14.904  0.0411 -0.1033  0.1660
 5101TIP3    H236719   4.847   2.701  14.805  0.9148 -0.3747 -0.6728
 5102TIP3   OH236720   3.953   5.589   5.650 -0.5267 -0.3356  0.3814
 5102TIP3    H136721   3.893   5.546   5.589 -0.8802  1.0870 -0.3149
 5102TIP3    H236722   4.016   5.634   5.594  0.2422 -0.5060  1.0961
 5103TIP3   OH236723   0.484   5.007   1.174 -0.0612 -0.2361  0.0124
 5103TIP3    H136724   0.473   4.919   1.139  0.9455 -0.7535  0.9701
 5103TIP3    H236725   0.570   5.035   1.143  0.2725 -0.1841  0.9654
 5104TIP3   OH236726   3.474   4.455   2.272  0.3747 -0.5745  0.1769
 5104TIP3    H136727   3.474   4.388   2.204 -0.7855  0.0245 -0.4519
 5104TIP3    H236728   3.518   4.530   2.232  1.2063 -0.7831  0.6928
 5105TIP3   OH236729   5.681   5.938   1.440 -0.2375 -0.3830 -0.4240
 5105TIP3    H136730   5.595   5.977   1.421 -0.5602 -1.2342 -0.7677
 5105TIP3    H236731   5.671   5.846   1.417  1.0356 -0.3339 -1.2851
 5106TIP3   OH236732   4.602   0.483  12.772 -0.3527 -1.4189  0.7145
 5106TIP3    H136733   4.509   0.497  12.788 -0.0642 -0.6663  1.8301
 5106TIP3    H236734   4.609   0.476  12.676 -1.3421  0.2597  0.4757
 5107TIP3   OH236735   0.910   2.334  16.488  0.1062  0.0368  0.3526
 5107TIP3    H136736   0.883   2.419  16.521  1.9841  1.0209 -0.4831
 5107TIP3    H236737   1.006   2.337  16.489  0.3152 -2.8418  2.2555
 5108TIP3   OH236738   6.186   2.648  13.732 -1.2768 -0.1712 -0.1386
 5108TIP3    H136739   6.196   2.575  13.794 -0.3828 -0.3240 -0.4351
 5108TIP3    H236740   6.264   2.702  13.746 -2.5924  1.5101  1.0396
 5109TIP3   OH236741   2.496   2.679  13.105  0.8160 -0.1038 -0.1697
 5109TIP3    H136742   2.586   2.649  13.115  1.0535 -0.6692 -3.2001
 5109TIP3    H236743   2.452   2.609  13.057 -1.1213  0.4045  0.7620
 5110TIP3   OH236744   5.909   1.000   4.569 -0.0609  0.0510 -0.5862
 5110TIP3    H136745   5.818   0.970   4.571  0.4970 -1.8015 -0.9671
 5110TIP3    H236746   5.920   1.048   4.651 -0.8463 -1.4497  0.4557
 5111TIP3   OH236747   6.295   0.834  13.732  0.1566 -0.2759  0.1703
 5111TIP3    H136748   6.226   0.843  13.798 -0.0918 -0.1782 -0.1020
 5111TIP3    H236749   6.254   0.785  13.661 -0.2906  1.5409 -0.8980
 5112TIP3   OH236750   1.270   3.208   5.873  0.5878 -0.0747 -0.1525
 5112TIP3    H136751   1.285   3.153   5.950  0.9056 -0.9627 -0.8313
 5112TIP3    H236752   1.249   3.295   5.908 -0.5757 -0.7800  0.9615
 5113TIP3   OH236753   6.347   6.797  10.855  0.1059  0.4942  0.3270
 5113TIP3    H136754   6.343   6.782  10.949 -2.0560 -1.7400 -0.0375
 5113TIP3    H236755   6.441   6.803  10.836  0.6879 -0.9611  2.3803
 5114TIP3   OH236756   6.136   4.099   0.633  0.3107  0.3197  0.2377
 5114TIP3    H136757   6.194   4.041   0.683 -1.1748 -2.5665 -1.1809
 5114TIP3    H236758   6.194   4.143   0.571  1.3670 -0.3989  0.6816
 5115TIP3   OH236759   2.572   4.725   0.592 -0.1324 -0.1714  0.5174
 5115TIP3    H136760   2.512   4.733   0.518 -0.8636  0.8614  1.1937
 5115TIP3    H236761   2.520   4.683   0.661  0.0862  0.2075  0.9198
 5116TIP3   OH236762   3.404   0.485  16.936 -0.3284  0.1431  0.2766
 5116TIP3    H136763   3.355   0.470  16.855 -1.8703 -0.0876  1.2094
 5116TIP3    H236764   3.399   0.402  16.983  0.7139  0.2170  0.5475
 5117TIP3   OH236765   6.176   1.650  10.369 -0.2153  0.4396  0.0137
 5117TIP3    H136766   6.086   1.632  10.394  0.1546  0.8830  1.8147
 5117TIP3    H236767   6.224   1.571  10.396  0.2171  0.9805  0.8613
 5118TIP3   OH236768   3.331   1.757  11.626 -0.7634  0.1357 -0.3759
 5118TIP3    H136769   3.304   1.673  11.587  1.1654 -0.1368 -1.2085
 5118TIP3    H236770   3.371   1.732  11.709  1.7521 -0.0491 -1.5683
 5119TIP3   OH236771   6.060   5.137   5.068  0.2359  0.1235 -0.3359
 5119TIP3    H136772   5.981   5.085   5.055  0.4951 -0.5442  0.6327
 5119TIP3    H236773   6.131   5.081   5.038  0.8880 -1.5997  3.7934
 5120TIP3   OH236774   2.831   6.053   2.643 -0.7026 -0.5220  0.2070
 5120TIP3    H136775   2.891   5.980   2.624  0.8525  1.1465 -1.7465
 5120TIP3    H236776   2.851   6.076   2.734  1.1315 -0.5140 -0.1440
 5121TIP3   OH236777   6.618   1.803   1.778  0.7461  0.3367 -0.2440
 5121TIP3    H136778   6.562   1.732   1.746  1.6498 -0.8545  0.6900
 5121TIP3    H236779   6.653   1.844   1.699 -0.9901  0.7650 -0.8345
 5122TIP3   OH236780   4.125   6.305  11.974 -0.0087 -0.0067  0.2605
 5122TIP3    H136781   4.144   6.244  12.045 -1.0499  1.0569  1.5162
 5122TIP3    H236782   4.191   6.374  11.984 -0.7186  0.6134  0.8125
 5123TIP3   OH236783   4.153   4.220   4.909  0.2724 -0.4663  0.4526
 5123TIP3    H136784   4.107   4.304   4.909 -0.1790 -0.6989 -0.4986
 5123TIP3    H236785   4.179   4.207   5.001 -0.1470  0.4325  0.7141
 5124TIP3   OH236786   4.853   6.359   0.617  0.5826 -0.1477 -0.2156
 5124TIP3    H136787   4.769   6.352   0.572 -0.3658  0.9503  1.3180
 5124TIP3    H236788   4.887   6.269   0.618  0.0805 -0.3939 -2.0204
 5125TIP3   OH236789   4.301   1.216   4.449  0.1505  0.0378  0.8344
 5125TIP3    H136790   4.296   1.311   4.438 -2.4314  0.0087  1.1469
 5125TIP3    H236791   4.211   1.186   4.441  1.0617 -2.6122 -0.8240
 5126TIP3   OH236792   3.294   6.455  13.382 -0.2771  0.1730 -0.2602
 5126TIP3    H136793   3.239   6.436  13.306  0.0344  2.7061 -1.2133
 5126TIP3    H236794   3.381   6.427  13.355 -0.4220 -0.3106 -0.2396
 5127TIP3   OH236795   3.138   5.294  15.096 -0.2847  0.0860 -0.2779
 5127TIP3    H136796   3.131   5.307  15.001 -1.9434  0.1644 -0.1676
 5127TIP3    H236797   3.180   5.208  15.105 -1.5622 -0.6582 -1.1149
 5128TIP3   OH236798   6.291   4.756  12.269  0.0092  0.2374 -0.1916
 5128TIP3    H136799   6.290   4.851  12.254  3.1213  0.3389 -0.4724
 5128TIP3    H236800   6.295   4.718  12.181  0.3117 -0.0769 -0.0413
 5129TIP3   OH236801   4.213   4.437  13.455 -0.5818 -0.6587 -0.6857
 5129TIP3    H136802   4.158   4.454  13.379  1.1781  1.7450 -1.5583
 5129TIP3    H236803   4.302   4.455  13.425  0.1028  1.2122  2.0959
 5130TIP3   OH236804   3.050   0.206  13.576  0.0623  0.6024  0.0972
 5130TIP3    H136805   3.026   0.113  13.578  1.0915  0.3242  0.2227
 5130TIP3    H236806   2.971   0.251  13.548 -0.9533 -0.1552  1.6236
 5131TIP3   OH236807   2.543   5.526  12.974  0.2524  0.1725 -0.2450
 5131TIP3    H136808   2.541   5.433  12.955  0.6610  0.2880 -0.8703
 5131TIP3    H236809   2.582   5.531  13.062  1.5111 -0.1802 -0.7568
 5132TIP3   OH236810   3.096   5.732   2.291 -0.6323 -0.3384 -0.3167
 5132TIP3    H136811   3.140   5.683   2.360  1.7743  0.4340 -1.2078
 5132TIP3    H236812   3.098   5.674   2.215 -1.2122 -0.3072 -0.3607
 5133TIP3   OH236813   2.477   1.731   5.351  0.1386  0.4979  0.3920
 5133TIP3    H136814   2.511   1.669   5.416  0.9852  0.1727 -0.3284
 5133TIP3    H236815   2.450   1.807   5.402  0.8573  0.2784  1.1211
 5134TIP3   OH236816   0.479   2.397   4.181 -0.6067 -0.2683  0.0487
 5134TIP3    H136817   0.537   2.352   4.242 -1.5875 -1.5751  0.0661
 5134TIP3    H236818   0.433   2.461   4.235  1.5999  1.6623 -0.1839
 5135TIP3   OH236819   4.511   6.470   5.082 -0.5111  0.2986 -0.5408
 5135TIP3    H136820   4.484   6.549   5.129  0.1873  0.0842  0.2584
 5135TIP3    H236821   4.570   6.426   5.143  0.1970 -0.1421 -1.5197
 5136TIP3   OH236822   2.809   6.481  11.100 -0.0646 -0.7075 -0.1776
 5136TIP3    H136823   2.805   6.526  11.016  0.7426 -0.0050  0.1381
 5136TIP3    H236824   2.797   6.389  11.079  0.5106 -0.5834 -1.1176
 5137TIP3   OH236825   3.578   3.921  15.766 -0.8811 -0.0009 -0.0301
 5137TIP3    H136826   3.647   3.912  15.700 -1.0308 -1.1821 -0.0402
 5137TIP3    H236827   3.625   3.944  15.846 -0.2551 -2.3479  0.3469
 5138TIP3   OH236828   6.276   3.200   0.212 -0.0056  0.3594 -0.5514
 5138TIP3    H136829   6.371   3.211   0.205  0.2383  0.5911  1.9867
 5138TIP3    H236830   6.262   3.174   0.303 -2.4281  0.8208 -0.7302
 5139TIP3   OH236831   3.536   1.443  15.999  0.8055 -0.5555 -0.2860
 5139TIP3    H136832   3.534   1.360  15.952 -3.0849 -0.7212 -0.1079
 5139TIP3    H236833   3.541   1.510  15.931 -2.6958 -0.8582 -0.9909
 5140TIP3   OH236834   0.231   1.982  11.546  0.2068 -0.7741  0.2599
 5140TIP3    H136835   0.192   1.908  11.593  0.0157  0.1906  1.7080
 5140TIP3    H236836   0.170   2.001  11.476 -0.1347 -1.5007  0.3491
 5141TIP3   OH236837   0.543   0.138   5.879 -0.1920  0.0116  0.4504
 5141TIP3    H136838   0.613   0.144   5.944  0.5801 -0.1952 -0.3272
 5141TIP3    H236839   0.463   0.159   5.926  0.6220  2.2023  0.9569
 5142TIP3   OH236840   5.588   3.404  14.912 -0.0243  0.2772  0.3785
 5142TIP3    H136841   5.596   3.309  14.920 -3.0234 -0.2409 -1.1289
 5142TIP3    H236842   5.573   3.434  15.002  2.4698 -0.4004  1.0831
 5143TIP3   OH236843   5.791   1.383   3.467 -0.8621  0.0582  0.3906
 5143TIP3    H136844   5.824   1.471   3.453 -0.2961 -0.0903  0.7944
 5143TIP3    H236845   5.698   1.395   3.485 -0.7026  0.6078  0.8729
 5144TIP3   OH236846   4.023   5.134   2.554  0.5459  0.2079 -0.1539
 5144TIP3    H136847   4.048   5.167   2.641 -1.8101  1.2988  0.2050
 5144TIP3    H236848   3.967   5.059   2.573 -0.8800  1.1013 -0.6044
 5145TIP3   OH236849   2.032   0.097   3.178  0.6884 -0.3042 -0.2617
 5145TIP3    H136850   2.036   0.005   3.154 -0.2463 -0.9571  1.8924
 5145TIP3    H236851   2.030   0.098   3.274  0.1690  1.9267 -0.2281
 5146TIP3   OH236852   3.089   1.350   0.794 -0.2654  0.0147 -0.2936
 5146TIP3    H136853   2.995   1.363   0.784 -0.2723 -0.8512 -1.7076
 5146TIP3    H236854   3.113   1.296   0.718  1.3040 -0.0701  0.2395
 5147TIP3   OH236855   6.779   5.555   3.929 -0.1508  0.0313 -0.5629
 5147TIP3    H136856   6.865   5.597   3.929 -0.1723  0.0980  0.7156
 5147TIP3    H236857   6.721   5.618   3.972 -0.3788 -0.8915  0.5151
 5148TIP3   OH236858   5.164   2.857  11.692  0.2142 -0.0120  0.4199
 5148TIP3    H136859   5.154   2.918  11.765  0.4614  0.0623  0.3920
 5148TIP3    H236860   5.074   2.836  11.666  0.1108  1.1235 -0.2190
 5149TIP3   OH236861   2.774   5.459  13.606  0.0768 -0.6148  0.5330
 5149TIP3    H136862   2.693   5.460  13.658 -0.3424  0.8663 -0.0917
 5149TIP3    H236863   2.750   5.417  13.524  0.5492 -2.2559  1.1908
 5150TIP3   OH236864   0.554   6.791  16.732 -0.2130 -0.0646 -0.6617
 5150TIP3    H136865   0.596   6.840  16.803 -3.6954 -0.7614  2.1904
 5150TIP3    H236866   0.591   6.703  16.739  0.3328  0.1664 -0.5497
 5151TIP3   OH236867   0.912   2.761  16.265  0.3882 -0.1894 -0.0541
 5151TIP3    H136868   0.914   2.807  16.349  0.9713 -1.0991  0.4386
 5151TIP3    H236869   0.984   2.699  16.270  1.1551  0.5208 -1.6795
 5152TIP3   OH236870   5.865   5.443   1.495 -0.4667 -0.2679  0.0781
 5152TIP3    H136871   5.862   5.528   1.452  3.1861  0.0152  0.1267
 5152TIP3    H236872   5.926   5.455   1.568  2.0916 -3.4181 -1.3248
 5153TIP3   OH236873   6.590   4.443  11.731  0.6765 -0.1446 -0.0934
 5153TIP3    H136874   6.526   4.455  11.801  0.9467  1.0078 -0.0272
 5153TIP3    H236875   6.598   4.348  11.722 -1.1409 -0.3267 -0.2002
 5154TIP3   OH236876   0.103   4.877   1.529  0.5997 -0.4276 -0.3154
 5154TIP3    H136877   0.084   4.969   1.513  0.4881 -0.1819  1.1774
 5154TIP3    H236878   0.022   4.842   1.565  0.5213 -1.2171 -1.2009
 5155TIP3   OH236879   4.424   5.987  13.289  0.4588 -0.0320 -0.4318
 5155TIP3    H136880   4.469   5.914  13.247 -0.8096 -0.3139 -1.3611
 5155TIP3    H236881   4.346   6.002  13.235 -0.9340 -0.0162  1.4778
 5156TIP3   OH236882   2.648   5.372   4.684 -0.1149  0.1669 -0.2079
 5156TIP3    H136883   2.593   5.315   4.739 -1.2274  1.7130  0.3481
 5156TIP3    H236884   2.585   5.421   4.631  0.7443  1.5267 -0.0133
 5157TIP3   OH236885   6.497   3.737  12.500  0.4316  0.1998  0.3354
 5157TIP3    H136886   6.565   3.767  12.439  0.6356  2.9686  1.7413
 5157TIP3    H236887   6.449   3.817  12.522 -2.1293 -1.3870  0.8335
 5158TIP3   OH236888   0.168   6.159  10.787 -0.1741  0.3984 -0.1539
 5158TIP3    H136889   0.198   6.198  10.870 -0.7748  0.7016 -0.0778
 5158TIP3    H236890   0.090   6.109  10.810 -0.0241  0.0217 -0.4449
 5159TIP3   OH236891   2.503   1.842   4.544 -0.1959  0.0585 -0.3796
 5159TIP3    H136892   2.475   1.858   4.454 -0.9047 -2.2608 -0.6274
 5159TIP3    H236893   2.430   1.795   4.584 -0.0459  1.3755  1.5510
 5160TIP3   OH236894   0.160   5.975  13.771  0.0896 -0.1218 -0.2527
 5160TIP3    H136895   0.095   6.045  13.765 -1.3236 -1.1425  1.7952
 5160TIP3    H236896   0.243   6.020  13.786  0.0633  1.2384 -3.3449
 5161TIP3   OH236897   5.610   5.922  11.812  0.6389 -0.5625 -0.1862
 5161TIP3    H136898   5.703   5.898  11.813  1.2343  1.4911  1.2004
 5161TIP3    H236899   5.605   5.997  11.754 -0.3336 -1.1320 -0.8673
 5162TIP3   OH236900   3.583   5.274  12.395  0.1581 -0.1953 -0.2118
 5162TIP3    H136901   3.647   5.260  12.325  0.3792 -0.9665  0.1317
 5162TIP3    H236902   3.634   5.315  12.466  0.0844 -0.0505 -0.2415
 5163TIP3   OH236903   4.597   0.206   5.259  0.7344  0.1278 -0.2202
 5163TIP3    H136904   4.546   0.207   5.340  0.9618  0.7889 -0.0788
 5163TIP3    H236905   4.534   0.180   5.192  0.4563 -0.0646  0.1152
 5164TIP3   OH236906   0.844   2.773   3.474 -0.2968 -0.4955  0.4660
 5164TIP3    H136907   0.786   2.812   3.408 -1.4054 -1.7065  0.6844
 5164TIP3    H236908   0.790   2.766   3.552  0.8290  0.3642  1.3674
 5165TIP3   OH236909   4.339   2.362  14.951  0.0167  0.1495 -0.5790
 5165TIP3    H136910   4.257   2.410  14.935 -0.0516  0.5599  0.8599
 5165TIP3    H236911   4.323   2.314  15.032  1.8158  1.7032  0.7681
 5166TIP3   OH236912   1.670   2.660  13.981  0.0724  0.1152  0.6150
 5166TIP3    H136913   1.751   2.642  13.934 -1.3219 -2.2566 -1.1211
 5166TIP3    H236914   1.650   2.578  14.027 -1.0901  0.7953  1.3709
 5167TIP3   OH236915   4.241   3.993   2.143 -0.1135  0.0858  0.0625
 5167TIP3    H136916   4.273   3.948   2.221 -0.0201  0.3662  0.1911
 5167TIP3    H236917   4.148   3.972   2.139 -0.5779  1.6246  1.3651
 5168TIP3   OH236918   5.716   4.184   0.572 -0.5115  0.5275 -0.6623
 5168TIP3    H136919   5.733   4.263   0.521 -0.0534  0.3110 -0.8561
 5168TIP3    H236920   5.787   4.182   0.637 -0.6114  0.3634 -0.5589
 5169TIP3   OH236921   5.710   5.885  12.520  0.2859 -0.2667 -0.1742
 5169TIP3    H136922   5.709   5.979  12.500 -0.9804 -0.2482 -0.0942
 5169TIP3    H236923   5.772   5.848  12.456 -0.6543  0.3591 -1.5106
 5170TIP3   OH236924   0.619   4.230   2.280 -0.5613  0.5055 -0.3006
 5170TIP3    H136925   0.610   4.139   2.253 -2.1757  0.0802  1.4653
 5170TIP3    H236926   0.592   4.280   2.203 -2.1611 -0.5889 -0.5088
 5171TIP3   OH236927   4.990   3.488   3.165 -0.2734 -0.0811 -0.4525
 5171TIP3    H136928   4.929   3.560   3.150  2.4273  2.2296 -1.0862
 5171TIP3    H236929   5.030   3.507   3.250 -1.1558 -2.1960  0.5151
 5172TIP3   OH236930   1.361   6.162   2.286  0.1689 -0.4569  0.1841
 5172TIP3    H136931   1.270   6.181   2.311 -0.0095  0.5569 -1.1165
 5172TIP3    H236932   1.376   6.073   2.317 -0.9778 -0.3327  1.1950
 5173TIP3   OH236933   0.947   1.004  14.615 -0.1510 -0.1078  0.3998
 5173TIP3    H136934   0.985   0.917  14.605 -0.5550 -0.3205  0.6976
 5173TIP3    H236935   0.989   1.039  14.694 -0.6789 -0.4055  0.8214
 5174TIP3   OH236936   1.631   5.031   3.746  0.2166  0.2890 -0.4247
 5174TIP3    H136937   1.574   5.023   3.822 -0.2670  0.1922 -0.7883
 5174TIP3    H236938   1.678   5.114   3.759  0.3575  0.1298  0.1159
 5175TIP3   OH236939   2.910   1.858   1.370 -0.4950  0.3435  0.0729
 5175TIP3    H136940   2.942   1.932   1.318  0.2432 -0.3878 -0.5524
 5175TIP3    H236941   2.889   1.791   1.305 -2.9436  0.6097  0.4847
 5176TIP3   OH236942   5.958   6.261  12.106  0.3718  0.4966  0.0117
 5176TIP3    H136943   5.876   6.271  12.058  0.5804  0.4179 -0.3627
 5176TIP3    H236944   6.009   6.198  12.055  0.1621 -0.4392  0.9152
 5177TIP3   OH236945   4.485   2.382   4.239  0.0061 -0.5360  0.0979
 5177TIP3    H136946   4.435   2.463   4.251 -0.5623 -1.2014  2.6187
 5177TIP3    H236947   4.427   2.326   4.187 -1.0153 -0.5000  1.1548
 5178TIP3   OH236948   3.179   0.892  11.004  0.1038  0.4281 -0.2787
 5178TIP3    H136949   3.207   0.948  10.931 -0.3496  0.7882 -0.1825
 5178TIP3    H236950   3.166   0.806  10.965  1.8067  0.1201 -0.2388
 5179TIP3   OH236951   2.050   4.701   4.821  0.7286 -0.3430  0.2389
 5179TIP3    H136952   2.112   4.767   4.852 -0.0707  0.4745  0.1452
 5179TIP3    H236953   2.101   4.621   4.814  1.8381  0.3716 -0.0976
 5180TIP3   OH236954   1.614   5.689   6.336  0.1709  0.0290  0.0105
 5180TIP3    H136955   1.589   5.780   6.326  0.9028  0.5435  2.3014
 5180TIP3    H236956   1.566   5.658   6.413  0.7879 -1.1678 -0.0479
 5181TIP3   OH236957   1.209   6.043  12.375 -0.6263 -0.1803 -0.1823
 5181TIP3    H136958   1.241   6.086  12.296 -1.0129  1.1315  0.3361
 5181TIP3    H236959   1.116   6.067  12.379 -0.9048 -1.2595  0.0243
 5182TIP3   OH236960   5.988   3.651   1.915  0.1174 -0.4480 -0.3578
 5182TIP3    H136961   5.898   3.630   1.893  0.3372 -0.8066 -0.9520
 5182TIP3    H236962   6.008   3.597   1.991  0.5631 -2.1818 -1.6435
 5183TIP3   OH236963   1.606   2.294   5.071 -0.0076 -0.8100  0.3884
 5183TIP3    H136964   1.698   2.279   5.049 -0.2688 -0.7564 -0.8614
 5183TIP3    H236965   1.560   2.218   5.035 -0.4216 -0.9697  1.2424
 5184TIP3   OH236966   5.082   5.068  14.206 -0.5223 -0.1675  0.0099
 5184TIP3    H136967   5.146   4.998  14.196  0.5073  0.9621 -1.9995
 5184TIP3    H236968   5.134   5.148  14.214 -1.6787  0.5375  0.7948
 5185TIP3   OH236969   4.091   4.038   0.112 -0.2714  0.1241  0.2528
 5185TIP3    H136970   4.091   3.983   0.191 -0.9348 -0.9891 -0.4936
 5185TIP3    H236971   4.010   4.088   0.118 -1.2334 -1.2538 -0.5464
 5186TIP3   OH236972   1.555   6.356   0.512 -0.5299  0.0312  0.2901
 5186TIP3    H136973   1.618   6.296   0.472 -0.8859 -0.2729  0.1873
 5186TIP3    H236974   1.470   6.330   0.477 -0.7088  0.4953  0.3634
 5187TIP3   OH236975   6.402   1.157  13.051  0.3333  0.3645  0.0081
 5187TIP3    H136976   6.395   1.248  13.024 -0.6387  0.2149 -0.2713
 5187TIP3    H236977   6.364   1.107  12.978  0.6688 -0.2512  0.2465
 5188TIP3   OH236978   5.112   0.210  13.099  0.2660 -0.0926  0.1018
 5188TIP3    H136979   5.186   0.246  13.148  1.2916  0.8145 -1.9847
 5188TIP3    H236980   5.035   0.252  13.137  0.8958 -0.2508  1.6144
 5189TIP3   OH236981   6.369   2.469   4.559 -0.6611 -0.0442  0.1367
 5189TIP3    H136982   6.440   2.480   4.495 -0.1136 -1.8011  0.4095
 5189TIP3    H236983   6.413   2.445   4.640 -1.5738 -2.7017 -0.0532
 5190TIP3   OH236984   4.668   3.166  16.790 -0.0187  0.3496  0.5170
 5190TIP3    H136985   4.758   3.143  16.768 -0.3989  1.1889 -2.3780
 5190TIP3    H236986   4.633   3.088  16.833  2.1500  0.1438  2.0341
 5191TIP3   OH236987   3.691   3.528   0.097  0.4079  0.1172  0.1202
 5191TIP3    H136988   3.766   3.579   0.128 -0.0312  0.9626 -0.1665
 5191TIP3    H236989   3.639   3.510   0.175  1.3754 -1.2941  0.4684
 5192TIP3   OH236990   0.271   4.555   3.941 -0.2439 -0.2830 -0.5358
 5192TIP3    H136991   0.226   4.510   4.014  0.1889 -0.7176 -0.5335
 5192TIP3    H236992   0.293   4.641   3.976 -0.4007 -0.3436 -0.2848
 5193TIP3   OH236993   1.798   5.884   1.667  0.0647  0.0431  0.1174
 5193TIP3    H136994   1.704   5.869   1.667 -0.3606  2.3827  0.4803
 5193TIP3    H236995   1.810   5.964   1.616  2.0717 -1.1484 -1.4557
 5194TIP3   OH236996   5.307   2.907  13.844  0.2837 -0.3338 -0.7720
 5194TIP3    H136997   5.244   2.966  13.886 -1.0820 -0.9944 -1.7912
 5194TIP3    H236998   5.304   2.827  13.897 -0.6533 -0.7823 -1.4471
 5195TIP3   OH236999   5.500   1.257   1.864  0.3269 -0.0023  0.1370
 5195TIP3    H137000   5.424   1.312   1.844 -1.0563 -0.6432  3.0471
 5195TIP3    H237001   5.490   1.181   1.807 -2.6826 -1.1917  1.9542
 5196TIP3   OH237002   1.361   3.074  12.069 -0.2083  0.0874  0.9071
 5196TIP3    H137003   1.333   3.106  11.983  0.8924 -0.6346  0.2530
 5196TIP3    H237004   1.293   3.012  12.096 -0.6406  0.4388  0.6391
 5197TIP3   OH237005   2.763   3.731   3.135  0.5485 -0.2211 -0.4254
 5197TIP3    H137006   2.774   3.738   3.041  1.0462 -1.3359 -0.4715
 5197TIP3    H237007   2.669   3.718   3.147  0.7096 -2.3480 -0.9836
 5198TIP3   OH237008   3.480   0.626  12.143 -0.4888  0.4252  0.0187
 5198TIP3    H137009   3.543   0.690  12.109 -0.2420 -0.0106 -0.3461
 5198TIP3    H237010   3.518   0.598  12.227  0.8396 -1.3010 -1.0864
 5199TIP3   OH237011   0.430   0.101  15.221  0.1922 -0.0325 -0.8352
 5199TIP3    H137012   0.387   0.185  15.237  0.5216  0.1606 -0.9540
 5199TIP3    H237013   0.458   0.072  15.308  0.3829  0.1498 -0.8337
 5200TIP3   OH237014   3.676   6.153  13.986  0.3729  0.4663 -0.3451
 5200TIP3    H137015   3.768   6.175  14.005  0.8932 -2.7937  1.7635
 5200TIP3    H237016   3.629   6.178  14.066  0.1083 -1.0688  0.0048
 5201TIP3   OH237017   2.991   3.456   5.951 -0.1596 -0.4191  0.0334
 5201TIP3    H137018   3.054   3.399   5.995 -0.2765  1.0585  2.2781
 5201TIP3    H237019   2.967   3.520   6.017  0.3060  2.5325 -2.4301
 5202TIP3   OH237020   3.471   3.838  13.490 -0.6620  0.5328 -0.0426
 5202TIP3    H137021   3.551   3.788  13.474 -1.1441 -0.3002  0.0985
 5202TIP3    H237022   3.401   3.773  13.488 -1.2914  1.1825  0.3039
 5203TIP3   OH237023   3.739   2.896   3.842 -0.0621 -0.1567  0.2137
 5203TIP3    H137024   3.810   2.939   3.794 -1.0963 -0.1524 -1.3837
 5203TIP3    H237025   3.710   2.826   3.784 -0.6894 -0.8209  1.2881
 5204TIP3   OH237026   1.846   0.407   4.445 -0.2465  0.0402  0.0420
 5204TIP3    H137027   1.762   0.388   4.405 -1.0894  1.0620  1.2632
 5204TIP3    H237028   1.825   0.461   4.521  1.4480 -0.2914  0.7914
 5205TIP3   OH237029   2.810   6.517   6.295 -0.3008  0.1321  0.1476
 5205TIP3    H137030   2.799   6.610   6.313  1.5780  0.4297 -0.0452
 5205TIP3    H237031   2.725   6.478   6.314 -0.9818  1.8146  0.6632
 5206TIP3   OH237032   3.976   4.399   3.473  0.1549 -0.3872  0.1323
 5206TIP3    H137033   3.994   4.326   3.533  0.4215 -1.5595 -1.3112
 5206TIP3    H237034   3.898   4.370   3.424  0.1069  0.4283 -0.2777
 5207TIP3   OH237035   2.369   0.640   1.525 -0.4419 -0.1760  0.1656
 5207TIP3    H137036   2.358   0.662   1.618 -1.6057  0.9331 -0.1976
 5207TIP3    H237037   2.330   0.714   1.478 -0.0792 -0.8219 -1.2127
 5208TIP3   OH237038   2.182   3.527   0.821 -0.3827 -0.2286  0.5804
 5208TIP3    H137039   2.240   3.501   0.749 -0.0558  1.3165  0.2564
 5208TIP3    H237040   2.104   3.563   0.778  0.2008  1.5763  0.9370
 5209TIP3   OH237041   3.110   3.116   1.711  0.3025 -0.1458  0.0696
 5209TIP3    H137042   3.126   3.091   1.802  0.2812 -0.9805 -0.1387
 5209TIP3    H237043   3.097   3.032   1.666  0.2808  0.2589 -0.6939
 5210TIP3   OH237044   5.085   2.262   3.000 -0.1682  0.8570  0.3283
 5210TIP3    H137045   5.015   2.318   3.035 -0.8172  1.0305 -1.1928
 5210TIP3    H237046   5.082   2.184   3.055 -2.1965  0.4644 -0.2440
 5211TIP3   OH237047   1.119   2.227   5.473  0.7446 -0.1353 -0.0321
 5211TIP3    H137048   1.133   2.209   5.566 -1.7383  2.3984  0.9617
 5211TIP3    H237049   1.034   2.186   5.454  1.0854 -0.3513 -1.1249
 5212TIP3   OH237050   3.079   3.836  15.379 -0.0338  0.1054  0.5836
 5212TIP3    H137051   3.061   3.926  15.352  1.7579  0.6368  1.0215
 5212TIP3    H237052   2.993   3.799  15.399 -0.9865  1.1058 -1.3938
 5213TIP3   OH237053   5.195   2.735   0.134 -0.2795  0.2517  0.5405
 5213TIP3    H137054   5.183   2.640   0.132 -1.7322  0.4013  0.6288
 5213TIP3    H237055   5.279   2.750   0.092  1.3336 -1.2611  3.0009
 5214TIP3   OH237056   4.863   4.653   3.134 -0.2317  0.6925  0.3079
 5214TIP3    H137057   4.821   4.567   3.129  1.6194 -0.1860 -1.0714
 5214TIP3    H237058   4.790   4.715   3.130 -1.5050 -0.7836 -0.4197
 5215TIP3   OH237059   1.504   3.342  11.607 -0.2285 -0.3962  0.7510
 5215TIP3    H137060   1.555   3.398  11.667  2.0294  1.3296 -2.4291
 5215TIP3    H237061   1.551   3.259  11.607  1.0181  0.2598 -0.0079
 5216TIP3   OH237062   4.836   4.264   2.255  0.2463 -0.2775 -0.7394
 5216TIP3    H137063   4.922   4.305   2.251  0.1295 -0.0995 -1.6027
 5216TIP3    H237064   4.775   4.334   2.234 -0.2483 -0.0524  1.2312
 5217TIP3   OH237065   3.067   6.624  17.073  0.3040 -0.3927  0.1742
 5217TIP3    H137066   3.072   6.706  17.123  0.8140 -0.2364 -0.1360
 5217TIP3    H237067   3.150   6.618  17.027  0.0597 -0.8236 -0.2194
 5218TIP3   OH237068   2.153   1.354  14.237 -0.3126  1.2526  0.0875
 5218TIP3    H137069   2.080   1.404  14.201  0.7621  1.5644 -1.8001
 5218TIP3    H237070   2.207   1.419  14.281 -0.5898  1.2007  0.5102
 5219TIP3   OH237071   6.523   2.328  12.856 -0.2261 -0.9963  0.3999
 5219TIP3    H137072   6.546   2.375  12.776  0.8989 -1.6956  0.2970
 5219TIP3    H237073   6.443   2.371  12.887  0.8944  1.1437  0.4649
 5220TIP3   OH237074   5.099   0.991   4.485  0.3385  0.0379  0.4605
 5220TIP3    H137075   5.030   0.995   4.419 -0.8797 -2.4573  1.4691
 5220TIP3    H237076   5.177   0.964   4.437 -0.2968 -0.7876 -0.1293
 5221TIP3   OH237077   6.566   5.546  14.993 -0.2247  0.1035 -0.0990
 5221TIP3    H137078   6.538   5.455  15.000  1.5620 -0.4372  0.7684
 5221TIP3    H237079   6.625   5.547  14.918  0.2856  0.3833  0.2962
 5222TIP3   OH237080   5.677   0.064   0.080 -0.1239  0.1433  0.1308
 5222TIP3    H137081   5.740   0.089   0.148  0.7747 -1.6585  0.0236
 5222TIP3    H237082   5.627   0.143   0.064  1.9821  1.6127  0.3691
 5223TIP3   OH237083   4.393   4.466   0.829 -0.5549 -0.2397  0.2028
 5223TIP3    H137084   4.412   4.381   0.788  0.2801  0.2426 -0.4569
 5223TIP3    H237085   4.477   4.513   0.826 -1.5768  1.7078 -2.1321
 5224TIP3   OH237086   5.523   6.110   1.655 -0.1112  0.1052 -0.1233
 5224TIP3    H137087   5.541   6.037   1.715  1.0038 -0.3767 -1.0071
 5224TIP3    H237088   5.430   6.100   1.633  0.3031 -1.8669 -1.2409
 5225TIP3   OH237089   1.774   4.337  14.049 -0.2587  0.4928  0.4812
 5225TIP3    H137090   1.805   4.247  14.038 -3.3007 -0.5722 -0.3025
 5225TIP3    H237091   1.835   4.389  13.997  0.2494 -1.4267 -0.9731
 5226TIP3   OH237092   1.652   0.338  12.161 -0.8375 -0.3094 -0.1343
 5226TIP3    H137093   1.623   0.380  12.080 -0.8428 -0.3518 -0.1541
 5226TIP3    H237094   1.745   0.360  12.168 -1.3836  2.0373  1.2557
 5227TIP3   OH237095   5.241   0.258   3.962 -0.0274 -0.1829  0.0736
 5227TIP3    H137096   5.156   0.232   3.926 -0.2111 -0.1022  0.4439
 5227TIP3    H237097   5.240   0.353   3.959  0.5962 -0.2075 -1.1677
 5228TIP3   OH237098   2.440   2.396  15.068 -0.1459 -0.0661  0.4205
 5228TIP3    H137099   2.506   2.422  15.003 -1.4578 -1.7378 -1.7086
 5228TIP3    H237100   2.408   2.479  15.103  0.4909  0.9240 -1.2177
 5229TIP3   OH237101   1.510   5.622  16.345 -0.0346  0.2020 -0.0983
 5229TIP3    H137102   1.584   5.616  16.285  0.3860 -0.5429  0.4848
 5229TIP3    H237103   1.509   5.538  16.392 -1.9467 -0.2738 -0.8923
 5230TIP3   OH237104   0.534   3.651   1.575 -0.6427  0.1752  0.3358
 5230TIP3    H137105   0.558   3.604   1.655 -0.2213 -0.0214  0.0983
 5230TIP3    H237106   0.604   3.715   1.563  0.2669 -0.9741 -0.8364
 5231TIP3   OH237107   1.207   0.062  13.127 -0.0473  0.2525 -0.1261
 5231TIP3    H137108   1.269   0.052  13.199 -0.7863  0.5328  0.5728
 5231TIP3    H237109   1.177  -0.026  13.107 -0.4444  0.2424  0.4764
 5232TIP3   OH237110   6.520   1.028   4.898  0.0513  0.3561 -0.2433
 5232TIP3    H137111   6.445   1.083   4.877  0.1268  0.4338 -0.3119
 5232TIP3    H237112   6.588   1.089   4.925 -0.3437  0.1959  1.1812
 5233TIP3   OH237113   1.160   1.700   2.983  0.3212 -0.6762 -0.4611
 5233TIP3    H137114   1.152   1.765   3.053  1.7143 -0.8121 -0.1555
 5233TIP3    H237115   1.234   1.730   2.931 -0.0440 -1.1503 -1.2694
 5234TIP3   OH237116   0.488   6.208  14.044 -0.1066 -0.4954 -0.1190
 5234TIP3    H137117   0.566   6.238  13.997  0.2028  0.4053  0.9343
 5234TIP3    H237118   0.492   6.113  14.039  0.1481 -0.4328 -1.5256
 5235TIP3   OH237119   3.874   1.748   3.131 -0.6309  0.1942 -0.0406
 5235TIP3    H137120   3.836   1.826   3.090 -2.5546 -0.1657  0.9157
 5235TIP3    H237121   3.840   1.749   3.220 -0.2703 -1.4524  0.1546
 5236TIP3   OH237122   4.957   1.469   1.093 -0.2339 -0.5945  0.1008
 5236TIP3    H137123   4.989   1.406   1.157 -0.3496  0.5049  1.2952
 5236TIP3    H237124   4.908   1.533   1.145  1.3638  1.4764 -0.7748
 5237TIP3   OH237125   5.525   3.663   5.303  0.0655 -0.3444 -0.6341
 5237TIP3    H137126   5.528   3.635   5.212 -0.4617  0.1785 -0.8226
 5237TIP3    H237127   5.520   3.581   5.353  2.0955 -0.7128 -0.9512
 5238TIP3   OH237128   3.865   1.723   2.703  0.5043 -0.1408 -0.2196
 5238TIP3    H137129   3.867   1.819   2.703 -0.5086 -0.1111  0.4232
 5238TIP3    H237130   3.931   1.698   2.767 -1.2678  0.2200  1.8628
 5239TIP3   OH237131   4.231   5.786   0.155  0.8079  0.5777  0.2620
 5239TIP3    H137132   4.189   5.704   0.178  1.6255  0.2577  0.6709
 5239TIP3    H237133   4.159   5.845   0.132  0.0888  0.2166  1.4787
 5240TIP3   OH237134   3.278   4.122  15.649 -0.5487  0.1605  0.4038
 5240TIP3    H137135   3.207   4.170  15.692 -1.9576 -1.3079 -0.1987
 5240TIP3    H237136   3.358   4.158  15.687 -1.5110  2.9649 -0.0104
 5241TIP3   OH237137   4.430   4.286   5.403 -0.1412 -0.3433  0.1816
 5241TIP3    H137138   4.510   4.276   5.455  0.4386 -0.6008 -0.7250
 5241TIP3    H237139   4.367   4.227   5.443  0.1381 -0.1714  0.8829
 5242TIP3   OH237140   3.036   3.391  13.405 -0.3197 -0.0389  0.2501
 5242TIP3    H137141   3.110   3.450  13.393  0.4726 -1.1248 -0.3820
 5242TIP3    H237142   3.072   3.315  13.451 -0.9940 -0.6465 -0.1919
 5243TIP3   OH237143   5.301   3.492   2.003  0.5692  0.1166  1.0327
 5243TIP3    H137144   5.346   3.530   1.927 -0.6444 -0.7339 -0.1704
 5243TIP3    H237145   5.357   3.419   2.030  1.4988  1.0182  1.5938
 5244TIP3   OH237146   1.805   3.754   2.053  0.1223  0.4738  0.3353
 5244TIP3    H137147   1.803   3.683   2.117 -0.3122 -0.7380 -0.9739
 5244TIP3    H237148   1.867   3.817   2.089 -0.1079 -0.1557  1.9413
 5245TIP3   OH237149   4.165   0.289  16.445 -0.1280 -0.3807 -0.5514
 5245TIP3    H137150   4.197   0.367  16.491 -1.1069  0.4824 -1.3098
 5245TIP3    H237151   4.235   0.268  16.382  0.8632 -1.1067  0.7176
 5246TIP3   OH237152   1.151   1.339   1.815 -0.1363 -0.3236 -0.2023
 5246TIP3    H137153   1.146   1.410   1.750  0.3099  0.6377  0.7859
 5246TIP3    H237154   1.244   1.327   1.831 -0.1829  2.3250  3.2283
 5247TIP3   OH237155   6.655   4.906   5.831 -0.1397  0.0583  0.0605
 5247TIP3    H137156   6.708   4.850   5.887  0.8240  0.6730 -0.2147
 5247TIP3    H237157   6.636   4.983   5.885 -0.8447 -0.2063  0.1934
 5248TIP3   OH237158   4.712   1.028  13.938 -0.6679 -0.1815  0.3782
 5248TIP3    H137159   4.806   1.014  13.927 -0.3954  2.3111 -1.1845
 5248TIP3    H237160   4.674   0.941  13.929  1.3567 -1.0373 -0.6391
 5249TIP3   OH237161   3.434   3.419  11.680 -0.2780  0.3125 -0.3779
 5249TIP3    H137162   3.469   3.345  11.731 -2.1181 -0.8213 -0.6807
 5249TIP3    H237163   3.496   3.490  11.697  1.9312 -1.4313 -0.5528
 5250TIP3   OH237164   2.974   1.735  13.010 -0.1195  0.3980  0.0093
 5250TIP3    H137165   2.941   1.755  12.922  0.1288 -0.0484 -0.1919
 5250TIP3    H237166   2.905   1.765  13.069 -0.3290  0.6169 -0.3436
 5251TIP3   OH237167   1.787   4.976   2.514  0.2372 -0.1252  0.1124
 5251TIP3    H137168   1.713   4.942   2.564 -0.0397  0.8252  0.3661
 5251TIP3    H237169   1.748   5.010   2.434  0.4249  0.1777  0.1491
 5252TIP3   OH237170   2.620   6.353   5.965  0.3793 -0.5130  0.0079
 5252TIP3    H137171   2.614   6.282   6.029  1.7974 -2.4235 -1.8392
 5252TIP3    H237172   2.712   6.379   5.967  0.1196  0.4360 -0.2052
 5253TIP3   OH237173   0.274   0.183  11.285  0.0740  0.1519 -0.1363
 5253TIP3    H137174   0.191   0.194  11.331  0.7121 -2.1967  1.7727
 5253TIP3    H237175   0.338   0.226  11.342  0.7039 -1.7328  0.6321
 5254TIP3   OH237176   6.190   3.388  11.997 -0.1620  0.0563 -0.3079
 5254TIP3    H137177   6.279   3.422  11.992 -0.3449  0.4105 -1.5016
 5254TIP3    H237178   6.152   3.431  12.074  0.2545  0.9868 -0.6104
 5255TIP3   OH237179   0.071   3.205  15.411 -0.1962  0.5226 -0.0755
 5255TIP3    H137180   0.035   3.165  15.490  1.0998 -2.0300 -0.6750
 5255TIP3    H237181   0.124   3.278  15.444  0.2394 -0.4198  1.4475
 5256TIP3   OH237182   6.649   6.398   1.879  0.6395  0.4190  0.4540
 5256TIP3    H137183   6.656   6.442   1.964 -0.4534  1.1776  0.1813
 5256TIP3    H237184   6.650   6.470   1.816  0.6810 -0.0883 -0.1273
 5257TIP3   OH237185   6.163   2.552   2.404 -0.1907  0.1582 -0.1300
 5257TIP3    H137186   6.238   2.523   2.457 -1.3691 -0.5560  1.1918
 5257TIP3    H237187   6.165   2.495   2.327  1.4348  1.0918 -0.8413
 5258TIP3   OH237188   3.491   2.481   3.853 -0.4163  0.2785  0.6928
 5258TIP3    H137189   3.417   2.502   3.795 -0.9660  0.0297  1.2989
 5258TIP3    H237190   3.473   2.530   3.933  1.0399  1.7068  0.1960
 5259TIP3   OH237191   1.790   4.466  14.290  0.1284 -0.0379 -0.3480
 5259TIP3    H137192   1.789   4.408  14.214  1.1231 -0.1031 -0.3261
 5259TIP3    H237193   1.736   4.541  14.264 -1.0270 -0.8758 -0.4370
 5260TIP3   OH237194   3.775   5.400  16.743 -0.5340 -0.6137  0.3699
 5260TIP3    H137195   3.735   5.475  16.787 -0.8561 -0.6928  0.2214
 5260TIP3    H237196   3.863   5.395  16.779 -0.4621 -0.0753  0.2677
 5261TIP3   OH237197   4.648   3.109  15.051  0.2380 -0.0664  0.4469
 5261TIP3    H137198   4.605   3.106  14.966 -0.0712 -1.9020  0.6240
 5261TIP3    H237199   4.732   3.065  15.037  0.1707 -0.4227  1.0758
 5262TIP3   OH237200   3.850   4.757   4.621  0.1514  0.0317  0.3582
 5262TIP3    H137201   3.785   4.701   4.662 -2.1334  0.0247 -2.9152
 5262TIP3    H237202   3.825   4.846   4.648 -0.1459 -0.0948  0.5044
 5263TIP3   OH237203   0.063   3.169  13.511  0.6606 -0.9994 -0.2054
 5263TIP3    H137204   0.053   3.259  13.479  2.4171 -1.3797 -2.0098
 5263TIP3    H237205  -0.014   3.123  13.478  0.3427 -0.4238 -0.2795
 5264TIP3   OH237206   2.188   2.516   1.544 -0.0601 -0.6008 -0.7238
 5264TIP3    H137207   2.226   2.430   1.561 -1.6998 -1.1293  0.6065
 5264TIP3    H237208   2.093   2.501   1.549 -0.3856  1.6097  1.5215
 5265TIP3   OH237209   4.471   1.483  15.798 -0.0125 -0.3478 -0.0303
 5265TIP3    H137210   4.520   1.402  15.814  2.0827  0.7605 -0.4813
 5265TIP3    H237211   4.471   1.493  15.703  1.0152  0.8750  0.0723
 5266TIP3   OH237212   0.194   4.328  16.978 -0.8053  0.2730  0.1135
 5266TIP3    H137213   0.285   4.358  16.989 -0.6179 -0.9271  2.6931
 5266TIP3    H237214   0.141   4.403  17.006 -0.6259  0.8204 -0.9696
 5267TIP3   OH237215   6.551   3.082  14.380  0.2151  0.0864  0.1390
 5267TIP3    H137216   6.457   3.068  14.377  0.2689 -2.0401  3.6133
 5267TIP3    H237217   6.562   3.174  14.355 -2.4372 -0.1803 -2.6619
 5268TIP3   OH237218   5.004   3.386   3.554 -0.3172  0.3572  0.0311
 5268TIP3    H137219   4.935   3.444   3.585 -2.0898 -1.1834 -0.8170
 5268TIP3    H237220   5.079   3.443   3.540 -1.2301  2.0124  1.5141
 5269TIP3   OH237221   3.243   4.994   4.455  0.1223 -0.4241  0.1709
 5269TIP3    H137222   3.326   4.957   4.423  0.9899 -0.4297  2.2345
 5269TIP3    H237223   3.268   5.043   4.533 -1.8099 -0.2349  0.7129
 5270TIP3   OH237224   2.055   4.425  14.312 -0.2190  0.3425  0.0478
 5270TIP3    H137225   1.960   4.419  14.305 -0.0353 -1.8563 -2.6580
 5270TIP3    H237226   2.076   4.383  14.396 -1.6084  0.5633  0.5233
 5271TIP3   OH237227   4.510   0.375  13.447  0.5421  0.3861 -0.0258
 5271TIP3    H137228   4.433   0.420  13.482  0.7798 -0.2811  1.3992
 5271TIP3    H237229   4.494   0.282  13.464 -0.0708 -0.2168 -3.1619
 5272TIP3   OH237230   4.700   1.976   0.567 -0.2803  0.0171 -0.2750
 5272TIP3    H137231   4.753   1.912   0.615 -0.5972  0.0455  0.1162
 5272TIP3    H237232   4.621   1.986   0.620 -1.0113 -0.5798 -1.2099
 5273TIP3   OH237233   6.403   2.146   5.323 -0.4761  0.2226  0.0891
 5273TIP3    H137234   6.395   2.213   5.391 -0.8079 -2.6982  3.2126
 5273TIP3    H237235   6.386   2.063   5.369  1.4306 -2.2079 -3.1424
 5274TIP3   OH237236   1.873   6.610  13.501 -0.0992 -0.5583  0.0994
 5274TIP3    H137237   1.782   6.601  13.529 -0.7172 -3.3032 -2.3288
 5274TIP3    H237238   1.922   6.554  13.561  0.0649  0.9130  1.4022
 5275TIP3   OH237239   1.464   6.660  10.855 -0.0992  0.3567 -0.1813
 5275TIP3    H137240   1.377   6.630  10.829  0.1223 -0.2903 -0.2018
 5275TIP3    H237241   1.511   6.673  10.773  0.0484  0.0044 -0.1556
 5276TIP3   OH237242   5.641   5.514  11.165  0.0510 -0.4291  0.7202
 5276TIP3    H137243   5.701   5.501  11.239 -0.2607 -0.7748  0.9139
 5276TIP3    H237244   5.682   5.467  11.092  0.3332 -0.1330  0.6878
 5277TIP3   OH237245   6.005   0.926   0.373 -0.3097  0.6070 -0.2516
 5277TIP3    H137246   6.030   1.003   0.425 -0.8376 -0.1667  1.2156
 5277TIP3    H237247   6.018   0.852   0.432 -3.6242 -0.0629 -0.1687
 5278TIP3   OH237248   3.359   1.951  13.700 -0.2232 -0.1377  0.1176
 5278TIP3    H137249   3.351   1.971  13.793 -0.5035 -0.3540  0.1402
 5278TIP3    H237250   3.271   1.962  13.665  0.0988  1.0485 -0.3526
 5279TIP3   OH237251   1.567   2.747  11.251  0.3468 -0.1137  0.2928
 5279TIP3    H137252   1.532   2.804  11.183  0.0252 -1.0415 -0.3336
 5279TIP3    H237253   1.634   2.695  11.208  1.3822  0.5092  1.1052
 5280TIP3   OH237254   2.586   0.638   3.578  0.0609 -0.0187 -0.4776
 5280TIP3    H137255   2.611   0.691   3.502  0.8606  0.1635 -0.0889
 5280TIP3    H237256   2.512   0.585   3.546  0.8760 -0.5099 -1.6199
 5281TIP3   OH237257   5.554   1.699  15.299 -0.6442  0.2403  0.0889
 5281TIP3    H137258   5.649   1.693  15.296 -0.5473  0.9265  1.1990
 5281TIP3    H237259   5.530   1.654  15.379 -0.9453  2.8087  1.5687
 5282TIP3   OH237260   6.209   4.793  14.478 -0.1596 -0.7411 -0.2075
 5282TIP3    H137261   6.231   4.703  14.501 -0.9025 -0.6526  0.9869
 5282TIP3    H237262   6.273   4.846  14.525 -0.6544 -0.6070  0.3245
 5283TIP3   OH237263   6.000   6.450   5.203  0.1099  0.3842  0.0918
 5283TIP3    H137264   6.046   6.438   5.286  1.6371 -4.2190 -1.0868
 5283TIP3    H237265   5.939   6.377   5.199  0.4053  0.1687 -2.9589
 5284TIP3   OH237266   5.460   2.437  15.785  0.5766  0.0719 -0.6600
 5284TIP3    H137267   5.375   2.437  15.829  0.0636  3.6527 -1.3579
 5284TIP3    H237268   5.524   2.427  15.856 -0.3406 -1.3091  0.0112
 5285TIP3   OH237269   4.512   4.692  10.894 -0.3714 -0.0331 -0.2804
 5285TIP3    H137270   4.431   4.663  10.851  0.3456 -0.7871 -1.1756
 5285TIP3    H237271   4.561   4.611  10.908  0.3918  0.4522 -0.1073
 5286TIP3   OH237272   4.753   2.786  16.871 -0.8132  0.2613  0.1971
 5286TIP3    H137273   4.779   2.789  16.779  0.3699  0.3731  0.5193
 5286TIP3    H237274   4.826   2.743  16.915 -0.2662  2.3388  1.4409
 5287TIP3   OH237275   3.212   5.752   2.726 -0.3341  0.5890 -0.2386
 5287TIP3    H137276   3.266   5.782   2.799 -1.0245  0.4198  0.3493
 5287TIP3    H237277   3.195   5.832   2.675 -0.1603  0.7777 -0.0033
 5288TIP3   OH237278   5.483   6.371  16.346 -0.2271  0.3385  0.0859
 5288TIP3    H137279   5.439   6.454  16.323  0.3917  0.6597  0.0536
 5288TIP3    H237280   5.567   6.398  16.382 -0.2434 -0.2628  0.5855
 5289TIP3   OH237281   3.288   0.805  15.144 -0.1367  0.1595 -0.2461
 5289TIP3    H137282   3.289   0.767  15.056  0.6040  0.9316 -0.5842
 5289TIP3    H237283   3.266   0.897  15.130  1.2328  0.5834  0.2445
 5290TIP3   OH237284   1.707   1.405  14.603 -0.0812 -0.0256  0.4552
 5290TIP3    H137285   1.778   1.345  14.583 -0.4563 -0.0927 -0.8070
 5290TIP3    H237286   1.712   1.419  14.697  0.1827 -1.7967  0.7225
 5291TIP3   OH237287   1.143   3.562   3.787  0.4374 -0.3456  0.2180
 5291TIP3    H137288   1.120   3.562   3.880 -0.3299 -0.4148  0.0318
 5291TIP3    H237289   1.110   3.478   3.754 -1.4552  0.6892 -0.6357
 5292TIP3   OH237290   4.544   4.220   1.627 -0.4191 -0.1290 -0.1032
 5292TIP3    H137291   4.578   4.160   1.694 -1.2014  1.1966  1.5587
 5292TIP3    H237292   4.512   4.295   1.677 -0.2989  1.2772 -2.0495
 5293TIP3   OH237293   0.096   1.838   0.691 -0.2456  0.2765 -0.2014
 5293TIP3    H137294   0.124   1.748   0.680  1.0530  0.5049  1.0435
 5293TIP3    H237295   0.172   1.891   0.668 -0.5249  1.0099  0.4969
 5294TIP3   OH237296   1.622   4.580   3.198 -0.3722  0.2047 -0.3585
 5294TIP3    H137297   1.680   4.584   3.122 -1.2024  0.2994 -0.9990
 5294TIP3    H237298   1.671   4.530   3.263 -0.3846 -1.5583 -1.6327
 5295TIP3   OH237299   1.619   5.398  13.895 -0.1528  0.3080  0.0397
 5295TIP3    H137300   1.659   5.463  13.952  0.9059 -1.8155  1.8667
 5295TIP3    H237301   1.668   5.404  13.813  1.4852  0.2585  0.9776
 5296TIP3   OH237302   6.091   5.103  15.687  0.7719  0.0697  0.4379
 5296TIP3    H137303   6.056   5.174  15.633 -1.0900 -1.7177 -0.8882
 5296TIP3    H237304   6.017   5.078  15.743  0.0975 -3.0214 -1.5778
 5297TIP3   OH237305   1.410   0.613   0.642 -0.3599  0.5588  0.1451
 5297TIP3    H137306   1.432   0.661   0.562  0.2939 -0.8867 -0.5922
 5297TIP3    H237307   1.361   0.537   0.612 -1.5318  0.8115  1.2969
 5298TIP3   OH237308   2.590   2.777   5.685 -0.4122 -0.1720  0.4292
 5298TIP3    H137309   2.513   2.758   5.632 -1.0584  0.4735  1.1110
 5298TIP3    H237310   2.626   2.857   5.646  1.1190 -1.5260 -1.1507
 5299TIP3   OH237311   2.957   5.579  10.667  0.0340  0.8804  0.5804
 5299TIP3    H137312   2.986   5.657  10.715  0.5415  1.1565 -0.1668
 5299TIP3    H237313   3.025   5.563  10.602 -0.4518  0.2753  0.2048
 5300TIP3   OH237314   1.280   5.244  11.994 -0.0534 -1.2176  0.1129
 5300TIP3    H137315   1.215   5.211  12.056  0.0675 -1.8533 -0.0959
 5300TIP3    H237316   1.310   5.326  12.033 -2.7296  0.3895 -0.9596
 5301TIP3   OH237317   2.491   5.361   5.618 -0.3386  0.4867  0.1014
 5301TIP3    H137318   2.472   5.432   5.557 -0.0962 -0.3568 -0.9954
 5301TIP3    H237319   2.438   5.380   5.695  0.9123  2.7073  0.4985
 5302TIP3   OH237320   3.189   6.338   5.146 -0.0191  0.1623  0.4828
 5302TIP3    H137321   3.227   6.300   5.068  1.3935  1.3747  0.5321
 5302TIP3    H237322   3.174   6.264   5.205 -1.2287 -0.7758 -0.9427
 5303TIP3   OH237323   5.852   0.318  13.670  0.1387  0.3905  0.5541
 5303TIP3    H137324   5.874   0.314  13.763 -0.8230 -1.4625  0.7492
 5303TIP3    H237325   5.930   0.285  13.626 -0.4725 -1.8259  0.9653
 5304TIP3   OH237326   1.258   1.810  13.061  0.3054 -0.0203  0.1570
 5304TIP3    H137327   1.176   1.857  13.080  0.3688  0.0088  0.3603
 5304TIP3    H237328   1.239   1.761  12.981 -0.0730 -0.4066  0.4768
 5305TIP3   OH237329   4.166   5.857  13.916 -0.8740 -0.0540  0.2918
 5305TIP3    H137330   4.181   5.884  14.006 -1.1465 -1.2249  0.7128
 5305TIP3    H237331   4.254   5.846  13.879 -0.7544  1.4582  0.0614
 5306TIP3   OH237332   3.651   6.206   3.347 -0.3277  0.6548  0.6889
 5306TIP3    H137333   3.582   6.140   3.352  0.6749 -0.5683 -0.6875
 5306TIP3    H237334   3.678   6.219   3.438  0.6904 -2.2709  0.9102
 5307TIP3   OH237335   1.807   5.698  13.347  0.0369  0.0482  0.0363
 5307TIP3    H137336   1.795   5.767  13.281  1.3870  1.8602  1.5736
 5307TIP3    H237337   1.722   5.654  13.352 -0.5611  0.8972 -1.7294
 5308TIP3   OH237338   6.499   2.898   3.853  0.6400 -0.2560  0.1670
 5308TIP3    H137339   6.428   2.833   3.847  1.6910 -1.3700 -1.2522
 5308TIP3    H237340   6.458   2.976   3.889 -0.8040 -1.5488  1.4694
 5309TIP3   OH237341   0.803   5.842  16.357 -0.1125 -0.3858  0.4174
 5309TIP3    H137342   0.736   5.866  16.292 -0.1290 -1.9182 -0.1820
 5309TIP3    H237343   0.886   5.851  16.310 -0.1242 -1.4889  0.1512
 5310TIP3   OH237344   1.067   0.781  16.631 -0.5097  0.0081  0.1867
 5310TIP3    H137345   0.997   0.839  16.662  0.6869  1.2353  0.6539
 5310TIP3    H237346   1.138   0.793  16.693  0.4867 -0.5073 -0.8192
 5311TIP3   OH237347   3.697   4.119   2.524  0.6735  0.3514  0.6254
 5311TIP3    H137348   3.793   4.116   2.531  0.7310  0.2432 -0.1496
 5311TIP3    H237349   3.667   4.107   2.614  1.3765 -0.2728  0.7910
 5312TIP3   OH237350   4.853   0.189  16.807  1.2280 -0.3508 -0.0190
 5312TIP3    H137351   4.894   0.229  16.883  0.5316 -0.6152  0.5103
 5312TIP3    H237352   4.924   0.143  16.763  1.8309  0.6313 -0.0841
 5313TIP3   OH237353   5.821   3.767   5.017 -0.1671  0.0862  0.7132
 5313TIP3    H137354   5.872   3.716   5.079  0.4078  0.2157  0.3545
 5313TIP3    H237355   5.837   3.858   5.043  0.4554  0.1616  0.0931
 5314TIP3   OH237356   4.905   5.347   2.736  0.0918  0.1672  0.0772
 5314TIP3    H137357   4.933   5.340   2.827  2.4111 -0.7151 -0.6200
 5314TIP3    H237358   4.823   5.299   2.732  0.2769 -0.3185  1.5888
 5315TIP3   OH237359   5.533   6.316  14.946 -0.0774 -0.3354  0.0472
 5315TIP3    H137360   5.505   6.264  14.870  1.3439 -0.6178 -0.3089
 5315TIP3    H237361   5.546   6.404  14.910  2.5926 -0.8951 -0.5703
 5316TIP3   OH237362   6.789   2.922  16.377 -0.3544  0.0426 -0.0976
 5316TIP3    H137363   6.800   3.016  16.365  1.4183 -0.1568 -0.3025
 5316TIP3    H237364   6.718   2.914  16.441 -2.3010  1.4106 -1.9394
 5317TIP3   OH237365   5.455   2.178  16.014  0.1869 -0.1923 -0.0002
 5317TIP3    H137366   5.536   2.228  16.027  1.8597 -2.7995  0.2965
 5317TIP3    H237367   5.473   2.122  15.939 -1.4061 -0.7784  0.0226
 5318TIP3   OH237368   0.918   5.193  13.811 -0.0080 -0.0474  0.1098
 5318TIP3    H137369   0.906   5.255  13.883  0.7487  1.2217 -0.7991
 5318TIP3    H237370   0.856   5.222  13.744  1.0740  0.4121 -0.7284
 5319TIP3   OH237371   4.137   2.077   4.111  0.1202 -0.3057  0.0613
 5319TIP3    H137372   4.054   2.079   4.158  1.1226  0.8175  1.9001
 5319TIP3    H237373   4.178   1.995   4.137 -0.1504 -0.5776 -0.3685
 5320TIP3   OH237374   4.315   1.188  15.925  0.2695 -0.3838 -0.2733
 5320TIP3    H137375   4.355   1.164  15.841 -0.5842  0.8723 -1.0906
 5320TIP3    H237376   4.311   1.284  15.922  1.5026 -0.2032  1.8362
 5321TIP3   OH237377   3.308   5.485   5.498  0.0364  0.5566  0.1968
 5321TIP3    H137378   3.379   5.513   5.441  3.1198  0.4395  3.6335
 5321TIP3    H237379   3.299   5.391   5.481  0.6622  0.5849 -0.3109
 5322TIP3   OH237380   1.850   2.224  15.657  0.2479  0.0523  0.3298
 5322TIP3    H137381   1.853   2.150  15.596 -0.0599  0.4249 -0.1447
 5322TIP3    H237382   1.896   2.294  15.611 -0.3134  0.4479  0.3587
 5323TIP3   OH237383   0.218   2.242   2.243  0.0546  0.1623  0.3924
 5323TIP3    H137384   0.198   2.156   2.205 -0.5663 -0.3115  1.7064
 5323TIP3    H237385   0.140   2.295   2.223  0.4295  0.4326 -0.4014
 5324TIP3   OH237386   5.631   1.819   1.099 -0.2925 -0.1608 -0.1382
 5324TIP3    H137387   5.570   1.889   1.120 -0.5984 -0.2312 -0.7726
 5324TIP3    H237388   5.615   1.799   1.007  0.3014 -0.5625 -0.1641
 5325TIP3   OH237389   1.897   4.625  13.860 -0.2780 -0.7134  0.2956
 5325TIP3    H137390   1.967   4.667  13.911  0.0430 -1.1261  0.1987
 5325TIP3    H237391   1.938   4.547  13.822 -1.2202 -1.8808  1.5875
 5326TIP3   OH237392   2.749   3.984   4.574  0.3150 -0.0522  0.1093
 5326TIP3    H137393   2.659   4.017   4.580  0.6299  0.8542  0.0488
 5326TIP3    H237394   2.778   4.011   4.486  0.0741 -1.8625 -0.5633
 5327TIP3   OH237395   6.726   1.479  17.036 -0.2351 -0.4702 -0.6375
 5327TIP3    H137396   6.783   1.416  16.992  0.2359 -0.9456  0.6135
 5327TIP3    H237397   6.763   1.565  17.013  0.2917 -0.7309 -0.7839
 5328TIP3   OH237398   1.390   6.183  17.064 -0.1837 -0.2132 -0.1854
 5328TIP3    H137399   1.342   6.136  17.133  1.1564 -0.1627  0.8072
 5328TIP3    H237400   1.344   6.267  17.055 -0.7053 -0.4524  0.2335
 5329TIP3   OH237401   5.823   2.009  14.154  0.3596 -0.0749  0.3430
 5329TIP3    H137402   5.815   1.979  14.064  2.8997 -0.6873  0.2546
 5329TIP3    H237403   5.872   2.091  14.148 -1.2544  1.0190  1.0686
 5330TIP3   OH237404   0.598   0.419  15.976  0.2061 -0.3750 -0.3482
 5330TIP3    H137405   0.657   0.473  16.030  1.1974 -2.2988  0.5866
 5330TIP3    H237406   0.639   0.418  15.890 -0.2113  0.9130 -0.5895
 5331TIP3   OH237407   2.374   5.470  12.297  0.6204  0.5673  0.3836
 5331TIP3    H137408   2.285   5.436  12.286  0.8738  0.3830 -1.5590
 5331TIP3    H237409   2.371   5.520  12.378 -1.6594  1.8526 -0.4072
 5332TIP3   OH237410   0.559   2.544   3.964 -0.3612 -0.1608  0.0558
 5332TIP3    H137411   0.554   2.487   4.041  0.4711 -0.3420 -0.0208
 5332TIP3    H237412   0.620   2.500   3.905  1.8987  1.7208  0.8156
 5333TIP3   OH237413   3.745   1.029   4.484  0.2798 -0.5051 -0.4338
 5333TIP3    H137414   3.756   1.115   4.444 -1.3305 -0.8386 -1.6651
 5333TIP3    H237415   3.704   1.047   4.569  0.3859 -0.0407 -0.4793
 5334TIP3   OH237416   5.728   2.560   1.938 -0.2747 -0.2806 -0.0152
 5334TIP3    H137417   5.637   2.559   1.967 -0.2376 -0.9624  0.0835
 5334TIP3    H237418   5.727   2.612   1.857 -0.4294  1.3892  1.0105
 5335TIP3   OH237419   3.869   2.341  13.636 -0.1815 -0.0851  0.2722
 5335TIP3    H137420   3.842   2.250  13.646 -3.6943  0.8811  0.8602
 5335TIP3    H237421   3.919   2.343  13.554 -2.9678 -2.0046 -1.6330
 5336TIP3   OH237422   4.797   1.349  12.210  0.1013 -0.3770 -0.2339
 5336TIP3    H137423   4.843   1.314  12.286 -0.7273 -0.3735  0.2768
 5336TIP3    H237424   4.837   1.434  12.195 -1.2647  0.6769  1.6627
 5337TIP3   OH237425   4.142   2.479  14.803  0.2826 -0.4621 -0.5234
 5337TIP3    H137426   4.157   2.390  14.774 -0.7144 -0.3304 -1.4938
 5337TIP3    H237427   4.048   2.494  14.791  0.3894  0.6422 -0.1755
 5338TIP3   OH237428   3.610   2.252  12.522 -0.3246 -0.7721 -0.1244
 5338TIP3    H137429   3.522   2.234  12.553  0.0931 -1.7230  0.5404
 5338TIP3    H237430   3.654   2.292  12.597 -0.2326 -0.1288 -0.5108
 5339TIP3   OH237431   4.242   4.817   1.982  0.0318  0.4742  0.0992
 5339TIP3    H137432   4.253   4.859   1.897  1.0340  0.3434  0.1537
 5339TIP3    H237433   4.302   4.864   2.040  2.2753 -1.9048 -0.1542
 5340TIP3   OH237434   2.435   0.855   5.959  0.2992  0.5396 -0.3296
 5340TIP3    H137435   2.484   0.923   6.005  1.5102  0.7326 -1.8090
 5340TIP3    H237436   2.474   0.773   5.990  2.2285  0.7049 -2.0546
 5341TIP3   OH237437   0.249   0.610   1.032 -0.0161  0.2150  0.2545
 5341TIP3    H137438   0.178   0.603   1.095  1.0303  0.4811  1.5109
 5341TIP3    H237439   0.232   0.541   0.968 -1.1133 -0.0461  0.8120
 5342TIP3   OH237440   0.912   1.111   5.152 -0.0225  0.4221  0.0707
 5342TIP3    H137441   0.863   1.108   5.070 -1.2401 -0.7651  0.8165
 5342TIP3    H237442   0.968   1.033   5.150 -1.4015 -0.6389  1.1477
 5343TIP3   OH237443   0.006   4.133   4.245 -0.7068 -0.2863 -0.1037
 5343TIP3    H137444   0.080   4.096   4.197 -0.7604 -1.4042  0.6444
 5343TIP3    H237445  -0.070   4.087   4.211 -1.0910  0.8699 -0.8825
 5344TIP3   OH237446   4.072   1.103  11.356  0.0677  0.0913  0.5464
 5344TIP3    H137447   4.001   1.125  11.296  0.2361 -0.1907  0.2419
 5344TIP3    H237448   4.062   1.010  11.372  0.3560  0.0536  0.5183
 5345TIP3   OH237449   2.396   5.792  12.737  0.1181 -0.2577  0.1602
 5345TIP3    H137450   2.454   5.864  12.712 -1.1606  0.5015 -0.7479
 5345TIP3    H237451   2.373   5.811  12.828  0.2465  0.1748  0.1090
 5346TIP3   OH237452   0.911   6.215   1.534 -0.6123 -0.1519  0.2650
 5346TIP3    H137453   0.875   6.170   1.610  0.2046  0.0283  0.7732
 5346TIP3    H237454   0.963   6.148   1.489 -0.3636 -0.0353  0.3717
 5347TIP3   OH237455   0.962   1.461  15.924  0.6450 -0.5767  0.1159
 5347TIP3    H137456   0.943   1.481  15.833  1.9765 -0.3597 -0.1364
 5347TIP3    H237457   0.883   1.486  15.972  1.4260  3.5597 -0.3973
 5348TIP3   OH237458   0.832   2.388  13.132  0.2956  0.1394 -0.8663
 5348TIP3    H137459   0.892   2.365  13.202 -1.4715  1.8671  1.3654
 5348TIP3    H237460   0.753   2.337  13.151 -0.5762  1.4251 -0.9246
 5349TIP3   OH237461   4.400   3.444  12.926  0.3179 -0.1199 -0.4402
 5349TIP3    H137462   4.466   3.505  12.895  0.0881  0.1418 -0.4223
 5349TIP3    H237463   4.379   3.389  12.850  0.4382 -0.0972 -0.4887
 5350TIP3   OH237464   4.102   0.707  14.313 -0.3317  0.0938  0.3072
 5350TIP3    H137465   4.155   0.783  14.289  0.2285 -0.2881  0.2925
 5350TIP3    H237466   4.162   0.651  14.363 -0.6682 -0.4378  0.1274
 5351TIP3   OH237467   6.232   6.702  10.142  0.5367 -0.2562  0.2316
 5351TIP3    H137468   6.265   6.732  10.226  0.9489 -1.6774  0.5919
 5351TIP3    H237469   6.143   6.672  10.161  0.7281 -0.8396  0.2346
 5352TIP3   OH237470   6.502   5.635   0.919  0.0541 -0.0715  0.0992
 5352TIP3    H137471   6.580   5.586   0.896 -1.1242 -0.3901 -4.0036
 5352TIP3    H237472   6.437   5.568   0.940  0.0015  0.0209  0.2333
 5353TIP3   OH237473   2.540   4.564  17.025 -0.1833 -0.3974 -0.0370
 5353TIP3    H137474   2.534   4.611  16.942  2.3191 -0.4379 -0.3226
 5353TIP3    H237475   2.623   4.516  17.019  2.1166  2.5182  3.9212
 5354TIP3   OH237476   4.504   3.438  12.303 -1.2448  0.4397  0.6656
 5354TIP3    H137477   4.547   3.404  12.225  1.1520  0.4830  1.8760
 5354TIP3    H237478   4.417   3.463  12.274 -0.3949  0.5636 -1.9982
 5355TIP3   OH237479   2.819   2.316  16.351  0.3230  0.3945  0.2903
 5355TIP3    H137480   2.822   2.411  16.354  0.4741  0.4169 -0.5641
 5355TIP3    H237481   2.834   2.293  16.260 -0.1440 -0.4375  0.4060
 5356TIP3   OH237482   0.475   1.628   3.144 -0.3305  0.6356  0.0382
 5356TIP3    H137483   0.490   1.675   3.062 -0.0626 -0.6539 -0.6836
 5356TIP3    H237484   0.562   1.619   3.182 -0.5823  2.3198  1.1329
 5357TIP3   OH237485   3.210   3.653   0.378  0.3685  0.1357  0.8802
 5357TIP3    H137486   3.136   3.609   0.419  0.8914 -1.0230  0.6125
 5357TIP3    H237487   3.171   3.723   0.326 -0.5119 -0.2810  0.9702
 5358TIP3   OH237488   0.706   3.248  12.967 -0.2002  0.1654 -0.0023
 5358TIP3    H137489   0.616   3.216  12.968  0.0838 -0.7875 -1.8050
 5358TIP3    H237490   0.748   3.202  13.040 -0.7451 -0.7182 -0.2255
 5359TIP3   OH237491   0.870   0.566  14.214  0.1263 -0.5119  0.1933
 5359TIP3    H137492   0.920   0.535  14.138 -1.3122 -2.9047  0.1214
 5359TIP3    H237493   0.820   0.489  14.243  1.1088  0.0759  4.0351
 5360TIP3   OH237494   0.397   4.644   3.220  0.2705  0.2436 -0.6093
 5360TIP3    H137495   0.456   4.608   3.155  0.1706  0.0837 -0.6109
 5360TIP3    H237496   0.310   4.626   3.186  0.2132 -0.2582 -0.2032
 5361TIP3   OH237497   0.269   3.303   5.450 -0.3909 -0.2680  0.8356
 5361TIP3    H137498   0.258   3.353   5.531 -0.9858  2.2694 -0.6773
 5361TIP3    H237499   0.328   3.357   5.397 -1.0475 -1.1902 -0.9012
 5362TIP3   OH237500   6.695   1.789  16.935  0.1427  0.1469  0.6577
 5362TIP3    H137501   6.695   1.851  17.007  0.0973  1.4474 -0.4176
 5362TIP3    H237502   6.602   1.768  16.921  0.0923  0.4240  0.5602
 5363TIP3   OH237503   3.814   6.366  16.997  0.5114  1.0374  0.5375
 5363TIP3    H137504   3.881   6.306  16.963  0.8254  0.9840  1.2292
 5363TIP3    H237505   3.832   6.449  16.953  0.3857  0.7600 -0.0525
 5364TIP3   OH237506   3.700   5.619   2.806 -0.0632  1.2660  0.0489
 5364TIP3    H137507   3.748   5.590   2.729  0.5283  1.1756  0.4505
 5364TIP3    H237508   3.616   5.574   2.800  0.8828 -0.6665  0.7341
 5365TIP3   OH237509   0.593   0.631   3.544  0.1676  0.1463 -0.1382
 5365TIP3    H137510   0.509   0.626   3.591  0.4832  1.2499  0.5725
 5365TIP3    H237511   0.593   0.717   3.502  1.1088  0.3246  0.2001
 5366TIP3   OH237512   3.367   0.772  16.950  0.0480  0.1996  0.5643
 5366TIP3    H137513   3.389   0.680  16.965  0.6902 -0.0354 -1.4364
 5366TIP3    H237514   3.443   0.820  16.981 -0.6661  0.1607  2.4672
 5367TIP3   OH237515   0.756   0.930  11.617  0.5325 -0.1855  0.5925
 5367TIP3    H137516   0.720   0.989  11.684  1.8477  0.6118  0.6298
 5367TIP3    H237517   0.690   0.862  11.608 -1.4632  1.7055 -0.0527
 5368TIP3   OH237518   3.262   5.287   0.290 -0.3490 -0.6226  0.6641
 5368TIP3    H137519   3.295   5.355   0.231 -0.8144 -1.3067 -0.4178
 5368TIP3    H237520   3.339   5.260   0.341  0.1274 -0.2378  0.1591
 5369TIP3   OH237521   3.610   2.634   4.709 -0.4672  0.0583 -0.0220
 5369TIP3    H137522   3.625   2.546   4.742  2.1788 -0.4554 -2.2455
 5369TIP3    H237523   3.674   2.688   4.754  0.0618  0.2197 -0.9487
 5370TIP3   OH237524   4.300   2.178   4.830 -0.8878 -0.2066 -0.5225
 5370TIP3    H137525   4.205   2.176   4.824 -0.8633  1.3353 -2.7813
 5370TIP3    H237526   4.328   2.091   4.800 -1.5399 -1.2746  1.7368
 5371TIP3   OH237527   5.534   1.907  13.770  0.9848 -0.1408 -0.0980
 5371TIP3    H137528   5.516   1.839  13.835  0.0023 -1.3268 -1.5555
 5371TIP3    H237529   5.487   1.984  13.804  0.1785 -0.8403  0.4348
 5372TIP3   OH237530   4.494   0.909  15.109 -0.0009  0.2802 -0.6288
 5372TIP3    H137531   4.413   0.940  15.068  0.4389  0.2136 -1.5857
 5372TIP3    H237532   4.563   0.949  15.057  0.6710  2.8146  1.9927
 5373TIP3   OH237533   1.689   0.393   2.621 -0.2078  0.0226  0.2663
 5373TIP3    H137534   1.721   0.316   2.573 -0.5869  0.2551 -0.3818
 5373TIP3    H237535   1.596   0.399   2.596 -0.3572  0.2784  0.8680
 5374TIP3   OH237536   3.690   2.245   2.725 -0.3770 -0.6255 -0.3838
 5374TIP3    H137537   3.612   2.294   2.699 -0.5133 -0.5533  0.1622
 5374TIP3    H237538   3.727   2.295   2.798 -1.2116 -2.0076  1.0303
 5375TIP3   OH237539   2.939   1.625  12.600  0.5184  0.5515 -0.2046
 5375TIP3    H137540   2.935   1.533  12.577 -0.1026  0.5619 -0.1549
 5375TIP3    H237541   2.902   1.671  12.524  3.6003  1.0164 -1.5708
 5376TIP3   OH237542   3.036   5.451   0.380  0.1656 -0.1141 -0.3540
 5376TIP3    H137543   3.096   5.386   0.343 -0.4857 -0.2562 -1.1787
 5376TIP3    H237544   2.993   5.406   0.453  0.7270 -0.1520 -0.0400
 5377TIP3   OH237545   3.241   1.560  13.239  0.3347  0.3567 -0.0366
 5377TIP3    H137546   3.164   1.503  13.243  0.1394  0.3612 -2.3252
 5377TIP3    H237547   3.291   1.539  13.317  0.0143 -2.5995 -0.5093
 5378TIP3   OH237548   3.814   0.585   6.020 -0.1875  0.4015 -0.2312
 5378TIP3    H137549   3.836   0.555   5.932 -2.0781  1.3588 -1.1056
 5378TIP3    H237550   3.788   0.677   6.008 -0.7125  0.4834  1.2828
 5379TIP3   OH237551   5.087   2.537  16.536  0.1316 -0.5052  0.1657
 5379TIP3    H137552   5.043   2.455  16.514 -1.1498 -0.0353  0.8654
 5379TIP3    H237553   5.094   2.536  16.631 -0.3963  0.4306  0.2263
 5380TIP3   OH237554   2.883   0.488   0.823  0.1002  0.3283  0.3026
 5380TIP3    H137555   2.876   0.541   0.743  1.5191 -1.0119 -0.7594
 5380TIP3    H237556   2.810   0.426   0.817  0.1570  0.2807  0.0936
 5381TIP3   OH237557   5.701   0.169   4.180  0.8778 -0.1478 -1.1511
 5381TIP3    H137558   5.683   0.261   4.200  0.8745 -0.2525 -0.6528
 5381TIP3    H237559   5.616   0.133   4.154  0.2915 -0.6255  1.1447
 5382TIP3   OH237560   0.575   3.293   5.591 -0.6068  0.6017 -0.1433
 5382TIP3    H137561   0.600   3.349   5.517  0.4390  0.8164  0.3509
 5382TIP3    H237562   0.557   3.208   5.551 -0.7959  0.9110 -0.7349
 5383TIP3   OH237563   6.472   1.261  13.306 -0.1192 -0.0567 -1.1018
 5383TIP3    H137564   6.452   1.203  13.233 -1.8693  0.0384 -0.7376
 5383TIP3    H237565   6.391   1.264  13.357  0.6045  1.0470  0.0346
 5384TIP3   OH237566   2.768   5.000  13.829 -0.4273  0.4362  0.7190
 5384TIP3    H137567   2.746   4.925  13.885 -1.1855 -0.6443 -0.9167
 5384TIP3    H237568   2.689   5.054  13.830 -0.9432 -0.2603 -0.2858
 5385TIP3   OH237569   0.282   1.387   4.020  0.0647  0.5300  0.4003
 5385TIP3    H137570   0.264   1.306   3.972 -3.1564 -0.1444  2.4149
 5385TIP3    H237571   0.234   1.454   3.972 -1.6512  0.1810  1.5244
 5386TIP3   OH237572   5.632   6.627   4.148 -0.4724  0.3162 -0.3644
 5386TIP3    H137573   5.618   6.674   4.066 -0.9378  0.2500 -0.3286
 5386TIP3    H237574   5.716   6.659   4.180  0.3089 -0.5649 -1.4651
 5387TIP3   OH237575   3.888   1.305   1.592  0.0451  0.1021  0.4790
 5387TIP3    H137576   3.792   1.299   1.591  0.0884 -1.0531 -1.1781
 5387TIP3    H237577   3.907   1.395   1.569 -0.6218  0.7008  2.1118
 5388TIP3   OH237578   3.284   4.911  13.210 -0.1133 -0.8775 -0.4702
 5388TIP3    H137579   3.358   4.972  13.209  0.1180 -1.1201  1.0015
 5388TIP3    H237580   3.207   4.967  13.201  0.1488 -0.4414 -0.0470
 5389TIP3   OH237581   0.162   4.193  15.685  0.2860  0.5075  0.6102
 5389TIP3    H137582   0.226   4.264  15.694  0.4481  0.4949 -0.3538
 5389TIP3    H237583   0.077   4.235  15.703  0.2083  1.3323 -1.3385
 5390TIP3   OH237584   4.110   6.356  13.283 -0.0231  0.5085  0.1795
 5390TIP3    H137585   4.066   6.272  13.298  1.6153 -0.1998  1.5120
 5390TIP3    H237586   4.100   6.372  13.190  0.2626 -1.5848 -0.2769
 5391TIP3   OH237587   0.973   0.607   1.279  0.2230 -0.6255 -0.3118
 5391TIP3    H137588   0.964   0.568   1.192  1.2095 -1.0983 -0.2180
 5391TIP3    H237589   1.067   0.605   1.296  0.1515  0.5820  0.2667
 5392TIP3   OH237590   6.450   2.201  11.226  0.0871  1.1193 -0.7859
 5392TIP3    H137591   6.535   2.164  11.249 -0.4295  0.5020  0.2241
 5392TIP3    H237592   6.458   2.226  11.134  1.5017  1.5119 -0.5735
 5393TIP3   OH237593   2.028   1.352  16.470 -0.3849 -0.0435 -0.2467
 5393TIP3    H137594   2.120   1.330  16.488 -0.6055  1.0335  2.9775
 5393TIP3    H237595   2.016   1.335  16.377  2.6638 -1.6578 -0.4566
 5394TIP3   OH237596   1.050   0.020  12.344 -0.5204  0.0803  0.4977
 5394TIP3    H137597   1.119   0.011  12.279 -1.9706  2.3947 -1.5640
 5394TIP3    H237598   1.064   0.107  12.382 -0.8741 -0.4365  1.8870
 5395TIP3   OH237599   1.497   6.747  12.924  0.1712 -0.4614  0.4355
 5395TIP3    H137600   1.430   6.775  12.862  0.6898 -0.1552  0.0049
 5395TIP3    H237601   1.474   6.657  12.946  0.2781 -0.7542 -0.6163
 5396TIP3   OH237602   0.400   2.227   6.023 -0.5273  0.3292  0.2874
 5396TIP3    H137603   0.430   2.179   6.100 -1.3810  1.0193  1.0872
 5396TIP3    H237604   0.446   2.311   6.029  1.6708 -0.6237 -1.5984
 5397TIP3   OH237605   2.228   1.023  11.484 -0.1049  0.2193 -0.2180
 5397TIP3    H137606   2.300   1.027  11.546 -0.0016 -2.2043 -0.0871
 5397TIP3    H237607   2.223   0.931  11.459 -2.0252  0.6316 -1.5854
 5398TIP3   OH237608   2.734   1.230  12.084  0.0937  0.1856  0.1555
 5398TIP3    H137609   2.824   1.250  12.061  0.2768  0.3301  0.9793
 5398TIP3    H237610   2.726   1.136  12.072  0.4668  0.1154  0.4753
 5399TIP3   OH237611   4.465   5.574   4.069  0.7925  0.1683  0.0058
 5399TIP3    H137612   4.377   5.574   4.107  0.6886  0.0025 -0.2281
 5399TIP3    H237613   4.450   5.569   3.974  1.0562 -0.0435 -0.0261
 5400TIP3   OH237614   6.606   0.618   5.760 -0.1113 -0.1580 -0.1907
 5400TIP3    H137615   6.588   0.652   5.848 -0.7756 -2.4134  0.6145
 5400TIP3    H237616   6.682   0.668   5.731  0.0193  0.7786  1.6036
 5401TIP3   OH237617   3.241   4.662   0.780  0.0988  0.3586  0.5047
 5401TIP3    H137618   3.200   4.599   0.840  0.3510  0.1628  0.4754
 5401TIP3    H237619   3.175   4.729   0.767 -0.2219  0.0363  0.4422
 5402TIP3   OH237620   1.832   0.078   6.664  0.0655  0.0234 -0.0414
 5402TIP3    H137621   1.916   0.099   6.704 -0.6153  0.3018  1.2868
 5402TIP3    H237622   1.767   0.111   6.725 -1.0706 -3.1471  0.6821
 5403TIP3   OH237623   4.024   6.717  16.657 -0.1497 -0.3494  0.6792
 5403TIP3    H137624   3.957   6.781  16.679 -0.1623 -0.6966  1.6907
 5403TIP3    H237625   4.042   6.732  16.564 -0.4281  0.8471  0.8071
 5404TIP3   OH237626   4.910   0.796   4.818  0.4611 -0.3912  0.2125
 5404TIP3    H137627   4.978   0.796   4.750 -1.3228  0.1842 -1.6612
 5404TIP3    H237628   4.949   0.844   4.891  0.7775  3.5094 -2.2677
 5405TIP3   OH237629   2.995   4.251  17.022 -0.0366 -0.3266  0.3794
 5405TIP3    H137630   3.070   4.309  17.037 -1.8946  1.8403  1.9351
 5405TIP3    H237631   2.983   4.205  17.105  0.0396 -1.3115 -0.1332
 5406TIP3   OH237632   2.509   6.278  11.106  0.0418 -0.2453 -0.0708
 5406TIP3    H137633   2.597   6.289  11.141 -0.5393  0.2885  1.3140
 5406TIP3    H237634   2.503   6.186  11.082  0.6675 -0.5009  0.7288
 5407TIP3   OH237635   3.853   5.644  15.565  0.2877  0.6941  0.6256
 5407TIP3    H137636   3.827   5.732  15.540 -1.1487  0.0623 -0.2785
 5407TIP3    H237637   3.943   5.636  15.535  0.3370  1.7506  0.4595
 5408TIP3   OH237638   2.902   3.591  11.334  0.2820 -0.0103  0.1218
 5408TIP3    H137639   2.980   3.637  11.303  0.0895  0.4872  0.3541
 5408TIP3    H237640   2.833   3.658  11.333  0.4768  0.3459  2.5517
 5409TIP3   OH237641   3.018   0.950   3.366 -0.3833  0.2876 -0.1076
 5409TIP3    H137642   2.995   0.948   3.458  0.5190 -1.7813  0.1237
 5409TIP3    H237643   3.081   0.878   3.355  0.5906  1.3613 -2.0532
 5410TIP3   OH237644   4.918   6.791  15.940 -0.2503  1.0053  0.5942
 5410TIP3    H137645   4.842   6.734  15.951 -0.5497  1.2437 -0.1468
 5410TIP3    H237646   4.959   6.762  15.858  0.9926  0.2912  1.4339
 5411TIP3   OH237647   1.164   5.937   5.147 -0.3240 -0.2310  0.0656
 5411TIP3    H137648   1.174   5.845   5.122 -1.7676 -1.1438  2.4514
 5411TIP3    H237649   1.097   5.936   5.216 -1.5469  2.8122 -0.8811
 5412TIP3   OH237650   3.799   5.281  15.937  0.1027  0.2079 -0.1552
 5412TIP3    H137651   3.774   5.358  15.886  0.4978  0.5396  0.1405
 5412TIP3    H237652   3.741   5.212  15.906 -0.6281  0.7580 -0.0547
 5413TIP3   OH237653   1.063   6.574   6.870  0.0619  0.4160 -0.1283
 5413TIP3    H137654   1.075   6.580   6.776  0.2659 -2.3452 -0.3627
 5413TIP3    H237655   0.968   6.572   6.883  0.0285 -1.0499 -0.4808
 5414TIP3   OH237656   6.197   3.224  12.833 -0.1624 -0.4183  0.3814
 5414TIP3    H137657   6.143   3.233  12.912 -0.5943 -0.6764  0.1193
 5414TIP3    H237658   6.277   3.272  12.853 -1.0983  1.3027  0.2173
 5415TIP3   OH237659   2.197   0.744  15.912 -0.0038  0.5415  0.1242
 5415TIP3    H137660   2.171   0.708  15.997  0.0663  0.9926  0.3387
 5415TIP3    H237661   2.131   0.710  15.851  0.5290 -0.6273  0.1666
 5416TIP3   OH237662   4.284   4.463   5.882 -0.0265 -0.3727 -0.3560
 5416TIP3    H137663   4.235   4.386   5.909  1.6671 -0.8228  1.6999
 5416TIP3    H237664   4.348   4.431   5.819  0.5053 -0.6271  0.3026
 5417TIP3   OH237665   2.885   1.046   3.142  0.2235  0.4432 -0.4942
 5417TIP3    H137666   2.903   1.027   3.234  0.2901  0.9289 -0.4046
 5417TIP3    H237667   2.789   1.045   3.136  0.2341 -0.7583 -0.6763
 5418TIP3   OH237668   4.970   2.106   3.248  0.0067  0.0991  0.2170
 5418TIP3    H137669   5.059   2.110   3.284  0.2176  0.5260 -0.3349
 5418TIP3    H237670   4.915   2.139   3.319  0.3498  0.3821  0.3592
 5419TIP3   OH237671   6.729   6.694   2.147  0.1081 -0.1562  0.2890
 5419TIP3    H137672   6.798   6.664   2.087  0.5467 -1.5326  1.4390
 5419TIP3    H237673   6.689   6.614   2.179 -1.0045  0.6025  0.8457
 5420TIP3   OH237674   0.658   4.053   2.074 -0.3820  0.0516 -0.4195
 5420TIP3    H137675   0.598   4.096   2.013  0.0613  2.4496  0.7175
 5420TIP3    H237676   0.745   4.082   2.046 -0.2292  2.4705  2.0833
 5421TIP3   OH237677   1.979   3.424   0.996  0.1750 -0.2146 -0.3244
 5421TIP3    H137678   1.899   3.431   0.944  0.0292 -0.5962 -0.1624
 5421TIP3    H237679   2.048   3.458   0.940 -0.2583  1.1320 -0.0713
 5422TIP3   OH237680   5.336   5.717   3.759 -0.4697  0.0648  0.1802
 5422TIP3    H137681   5.408   5.780   3.759 -1.1477  0.8683 -1.2038
 5422TIP3    H237682   5.276   5.749   3.827  0.4775 -0.6642  1.4131
 5423TIP3   OH237683   4.968   2.723   2.990  0.4366 -0.0983  0.0776
 5423TIP3    H137684   4.952   2.692   2.901 -0.6980  2.1788 -0.6052
 5423TIP3    H237685   5.039   2.669   3.023 -0.2878 -2.1594 -1.5658
 5424TIP3   OH237686   5.439   2.720  16.370 -0.6288 -0.3345 -0.0142
 5424TIP3    H137687   5.529   2.697  16.347  0.4876  0.3888  3.1213
 5424TIP3    H237688   5.399   2.746  16.286  1.5739 -2.0700 -1.7325
 5425TIP3   OH237689   6.656   3.925   2.022  0.0752  0.4587  0.0061
 5425TIP3    H137690   6.699   3.913   2.106  0.8877  0.0421 -0.4532
 5425TIP3    H237691   6.654   4.019   2.009  2.0010  0.4829 -0.5083
 5426TIP3   OH237692   3.444   5.471   0.093  1.0807  0.1483 -0.4375
 5426TIP3    H137693   3.431   5.384   0.055  1.2913  0.1927 -0.6165
 5426TIP3    H237694   3.527   5.501   0.056  0.2882  1.0490 -1.5457
 5427TIP3   OH237695   4.427   1.942   2.806 -0.6329 -1.0951 -0.2554
 5427TIP3    H137696   4.349   1.990   2.833 -0.9989 -2.3773  1.1082
 5427TIP3    H237697   4.404   1.850   2.818  1.1050 -1.5079  0.2827
 5428TIP3   OH237698   3.507   0.345  15.378  0.4558 -0.2166  0.2941
 5428TIP3    H137699   3.478   0.412  15.315  4.1295  1.9815  0.6319
 5428TIP3    H237700   3.505   0.389  15.463 -1.0424 -2.0107  1.2612
 5429TIP3   OH237701   3.747   0.075  11.612  0.1923  0.0296  0.0569
 5429TIP3    H137702   3.726   0.126  11.690  1.3837 -1.5346  1.4578
 5429TIP3    H237703   3.678   0.009  11.607 -1.9549  2.2019 -2.3485
 5430TIP3   OH237704   2.339   3.710  14.298  0.0852 -0.1325  0.1816
 5430TIP3    H137705   2.337   3.752  14.212 -1.5473  0.6047  0.5305
 5430TIP3    H237706   2.394   3.768  14.351 -0.7408  0.6692  0.1996
 5431TIP3   OH237707   6.078   2.218   2.995 -0.1791 -0.4616  0.2018
 5431TIP3    H137708   6.160   2.176   3.022  0.4348  1.0418  0.7518
 5431TIP3    H237709   6.087   2.230   2.900  0.4673  0.1647  0.3355
 5432TIP3   OH237710   1.961   3.078   1.257 -0.3334 -0.5463 -0.2769
 5432TIP3    H137711   2.026   3.030   1.308 -0.7481 -0.7767  0.0379
 5432TIP3    H237712   2.008   3.104   1.177  0.1829 -0.5834  0.0083
 5433TIP3   OH237713   1.795   5.902  15.779 -0.1674 -0.1371 -0.3795
 5433TIP3    H137714   1.843   5.939  15.705  1.1353  1.5389  1.2045
 5433TIP3    H237715   1.858   5.905  15.852 -2.0557  0.2523  1.3219
 5434TIP3   OH237716   3.550   3.092   1.443  0.0232  0.4502  0.3418
 5434TIP3    H137717   3.573   3.039   1.367 -1.4681  1.8949 -1.2007
 5434TIP3    H237718   3.523   3.028   1.509 -0.7490 -0.7701 -1.0943
 5435TIP3   OH237719   2.498   6.741   3.571 -0.2493 -0.1330  0.0586
 5435TIP3    H137720   2.463   6.781   3.491 -0.1330 -0.2297 -0.0412
 5435TIP3    H237721   2.534   6.657   3.541  1.2306  0.5235 -0.0557
 5436TIP3   OH237722   6.184   2.402   4.900  0.4613  0.2599  0.2728
 5436TIP3    H137723   6.181   2.334   4.833 -2.0300  0.4685  0.0796
 5436TIP3    H237724   6.225   2.360   4.975  0.0982 -1.0541 -0.2456
 5437TIP3   OH237725   1.215   0.496   6.398  0.3681 -0.3362 -0.4694
 5437TIP3    H137726   1.220   0.408   6.361  1.2607  0.3237 -2.0325
 5437TIP3    H237727   1.303   0.532   6.386  0.3128  0.4057  1.1281
 5438TIP3   OH237728   5.415   4.648  12.198 -0.0283 -0.4363 -0.4425
 5438TIP3    H137729   5.499   4.659  12.153  0.4611 -0.2567  0.4823
 5438TIP3    H237730   5.412   4.555  12.222 -0.2124 -0.4973 -0.6997
 5439TIP3   OH237731   4.376   1.293   1.198  0.6820  0.3064 -0.0555
 5439TIP3    H137732   4.326   1.278   1.279  0.5009  0.3037 -0.1682
 5439TIP3    H237733   4.434   1.367   1.219  1.0680 -0.0797  0.2721
 5440TIP3   OH237734   0.642   6.337   3.944 -1.6452  0.3879  0.5519
 5440TIP3    H137735   0.582   6.396   3.988 -0.8890  0.9044  0.9147
 5440TIP3    H237736   0.708   6.316   4.011 -0.4500  1.2289 -0.3305
 5441TIP3   OH237737   0.541   0.171  12.747 -1.0400  0.1614  0.2807
 5441TIP3    H137738   0.451   0.144  12.731 -1.0045  0.3316 -0.2226
 5441TIP3    H237739   0.535   0.264  12.767 -1.1571 -0.1890  1.9742
 5442TIP3   OH237740   2.981   0.513   2.470  0.7147  0.1611 -0.6244
 5442TIP3    H137741   2.998   0.458   2.546  1.9607  0.7492 -0.4617
 5442TIP3    H237742   2.897   0.480   2.435  1.1986 -1.5352 -0.2814
 5443TIP3   OH237743   4.784   1.623   0.855  0.8400 -0.1238  0.3669
 5443TIP3    H137744   4.853   1.558   0.866 -0.4271 -1.7794 -0.9973
 5443TIP3    H237745   4.757   1.645   0.944  1.0388 -1.7736  0.8662
 5444TIP3   OH237746   5.113   0.493   1.419  0.4091 -0.0696 -0.0011
 5444TIP3    H137747   5.081   0.554   1.485  0.6260  0.4235 -0.3394
 5444TIP3    H237748   5.191   0.535   1.384  1.1322 -1.0035  0.4407
 5445TIP3   OH237749   5.606   6.474  13.923 -0.2194  0.1615 -0.4091
 5445TIP3    H137750   5.699   6.488  13.905  0.0994  1.7145  1.9218
 5445TIP3    H237751   5.561   6.510  13.847  1.0561  0.0682 -1.2483
 5446TIP3   OH237752   5.368   1.704   1.311  0.0179 -0.5046 -0.3835
 5446TIP3    H137753   5.461   1.706   1.290 -0.0835 -0.8453 -0.8981
 5446TIP3    H237754   5.337   1.619   1.278 -0.8134  0.2899 -1.7747
 5447TIP3   OH237755   2.394   3.773  11.740 -0.2688 -0.3853 -0.1451
 5447TIP3    H137756   2.452   3.697  11.742  0.4487  0.1658  1.1809
 5447TIP3    H237757   2.416   3.819  11.659 -0.8226 -1.6472 -1.0384
 5448TIP3   OH237758   5.056   1.965  12.734 -0.2034 -0.2995 -0.0284
 5448TIP3    H137759   5.055   1.879  12.777 -0.3151 -1.1830 -1.7216
 5448TIP3    H237760   5.147   1.978  12.708  0.2765  1.1287  2.0838
 5449TIP3   OH237761   6.135   6.311   5.735 -0.1961 -0.1176 -0.1536
 5449TIP3    H137762   6.155   6.223   5.768 -0.9170 -0.8969 -1.7236
 5449TIP3    H237763   6.212   6.362   5.759  0.6707 -1.4042 -0.0490
 5450TIP3   OH237764   2.087   3.690   4.891  0.2713 -0.9024  0.0549
 5450TIP3    H137765   2.050   3.614   4.936 -0.9250 -0.8690 -0.8388
 5450TIP3    H237766   2.086   3.760   4.957  0.7322 -1.4695  0.6731
 5451TIP3   OH237767   1.061   1.553  14.237 -0.2393  0.0318  0.0752
 5451TIP3    H137768   1.112   1.475  14.256 -0.4303  0.2442  1.5137
 5451TIP3    H237769   0.979   1.519  14.199  0.2221 -0.3794 -0.5844
 5452TIP3   OH237770   6.530   3.249  13.700 -0.3049 -0.0227  0.2028
 5452TIP3    H137771   6.585   3.192  13.754 -0.8353 -1.7390 -1.0039
 5452TIP3    H237772   6.449   3.259  13.750 -0.5133 -1.0164  0.0938
 5453TIP3   OH237773   1.070   5.214   4.834  0.1472 -0.2347 -0.0337
 5453TIP3    H137774   1.075   5.250   4.922  0.4865  1.1794 -0.5994
 5453TIP3    H237775   0.977   5.197   4.820  0.0335  0.0003  0.4266
 5454TIP3   OH237776   5.172   3.545  16.500 -0.1395 -0.3112  0.0727
 5454TIP3    H137777   5.246   3.501  16.458 -0.2011  0.8280 -1.3074
 5454TIP3    H237778   5.173   3.512  16.590  0.8691 -1.7626 -0.4218
 5455TIP3   OH237779   5.263   1.961  12.436  0.4003  0.5551 -0.0472
 5455TIP3    H137780   5.336   1.989  12.382  0.4516  1.0009  0.2470
 5455TIP3    H237781   5.187   2.006  12.398  0.3211  0.2985 -0.1924
 5456TIP3   OH237782   4.046   4.065  15.686  0.2968  0.4809 -0.4185
 5456TIP3    H137783   4.092   4.034  15.608  0.0052  0.3401 -0.5384
 5456TIP3    H237784   4.099   4.138  15.718  1.3087 -0.4885  0.1913
 5457TIP3   OH237785   1.457   0.277  16.782 -0.1593  0.5369  0.4152
 5457TIP3    H137786   1.427   0.365  16.758 -0.2348 -0.1890 -2.5115
 5457TIP3    H237787   1.552   0.278  16.765  0.0044  0.2666  1.2270
 5458TIP3   OH237788   0.454   4.428  17.004  0.0835  0.3534 -0.1092
 5458TIP3    H137789   0.394   4.501  16.991 -0.7682 -0.4984 -1.1874
 5458TIP3    H237790   0.482   4.435  17.095 -1.3388  1.0184  0.3021
 5459TIP3   OH237791   0.148   1.566   1.998  0.0586  0.0680  0.1908
 5459TIP3    H137792   0.178   1.637   2.055 -0.9072  0.3351  0.3784
 5459TIP3    H237793   0.228   1.534   1.956  0.5181  1.2373  0.1292
 5460TIP3   OH237794   2.591   2.654   0.699 -0.2616  0.8056 -0.7997
 5460TIP3    H137795   2.665   2.595   0.712 -0.1936  0.1421 -3.5860
 5460TIP3    H237796   2.623   2.721   0.639 -0.8987  2.6587  0.8383
 5461TIP3   OH237797   0.689   5.228   1.792 -0.7381 -0.5064 -0.4849
 5461TIP3    H137798   0.634   5.205   1.867 -1.2698  0.1461 -0.6663
 5461TIP3    H237799   0.649   5.307   1.756 -0.1317 -0.4662 -1.0938
 5462TIP3   OH237800   6.370   3.263  14.603  0.0498 -0.4088  0.2969
 5462TIP3    H137801   6.290   3.227  14.641 -0.9108  1.3213  0.0053
 5462TIP3    H237802   6.356   3.256  14.508  0.4215 -0.4440  0.2434
 5463TIP3   OH237803   4.363   4.162   2.671 -0.1032  0.2789  0.4449
 5463TIP3    H137804   4.329   4.238   2.625 -0.0309 -0.0229 -0.1176
 5463TIP3    H237805   4.287   4.104   2.682  0.0830 -0.1007 -0.2172
 5464TIP3   OH237806   2.247   0.970   1.837 -0.2066  0.4314  0.1014
 5464TIP3    H137807   2.302   1.014   1.902  1.2946 -0.0701 -0.7583
 5464TIP3    H237808   2.168   1.022   1.833  1.2933  2.7963 -0.5241
 5465TIP3   OH237809   0.610   2.579  12.506  0.0179  0.3969  0.2476
 5465TIP3    H137810   0.653   2.507  12.553 -0.4366  0.2425  0.4325
 5465TIP3    H237811   0.588   2.542  12.421  0.0269  0.4001  0.2440
 5466TIP3   OH237812   0.017   6.590  14.121 -0.2096  1.0228  0.2998
 5466TIP3    H137813  -0.040   6.529  14.168  0.3616  1.1744  1.2171
 5466TIP3    H237814  -0.038   6.626  14.052 -0.6791 -0.2158  0.0055
 5467TIP3   OH237815   1.773   3.306   2.571 -0.0596 -0.2606 -0.9074
 5467TIP3    H137816   1.806   3.226   2.612 -1.2871 -1.8197 -2.7819
 5467TIP3    H237817   1.852   3.356   2.550  0.7536 -1.0545  0.1435
 5468TIP3   OH237818   3.288   1.090   5.878  0.0852  0.6168  0.3848
 5468TIP3    H137819   3.339   1.009   5.874  1.1270  1.2857 -0.6970
 5468TIP3    H237820   3.211   1.072   5.824  0.5926  0.5077 -0.3274
 5469TIP3   OH237821   0.855   2.645   2.054  0.1915  0.5036 -0.4226
 5469TIP3    H137822   0.870   2.715   1.991  0.0552  0.0738 -0.9412
 5469TIP3    H237823   0.942   2.624   2.088  0.6619 -0.9482 -2.3131
 5470TIP3   OH237824   1.620   0.403   6.637  0.6198  0.0569  0.0031
 5470TIP3    H137825   1.606   0.328   6.694 -0.3632  0.1121 -0.1502
 5470TIP3    H237826   1.538   0.452   6.641  0.4370 -0.0578 -1.6391
 5471TIP3   OH237827   2.295   0.480   1.301 -0.5337  0.4960  0.3560
 5471TIP3    H137828   2.344   0.522   1.371  1.4907  1.0955 -1.3332
 5471TIP3    H237829   2.305   0.538   1.225 -2.0362 -0.4758 -0.6645
 5472TIP3   OH237830   4.670   1.660  14.490 -0.8378  0.1457  0.0212
 5472TIP3    H137831   4.672   1.578  14.441 -0.7903  0.1695 -0.0171
 5472TIP3    H237832   4.656   1.634  14.581 -1.1687  0.1150 -0.0383
 5473TIP3   OH237833   3.285   3.647   6.222  0.5192 -0.9855 -0.0388
 5473TIP3    H137834   3.267   3.713   6.155  0.2412 -0.3620  0.6384
 5473TIP3    H237835   3.353   3.686   6.276  0.3984 -1.2812  0.3261
 5474TIP3   OH237836   5.893   4.777   0.929  0.0127 -0.2159 -0.5808
 5474TIP3    H137837   5.826   4.788   0.861  0.9925  1.1165 -1.3891
 5474TIP3    H237838   5.934   4.693   0.909 -0.4712 -0.3745 -0.9330
 5475TIP3   OH237839   2.571   2.993  14.948  0.1826  0.6332 -0.9168
 5475TIP3    H137840   2.665   3.012  14.945  0.2479  0.3284 -0.8189
 5475TIP3    H237841   2.559   2.919  14.889  0.0625  0.4283 -0.6381
 5476TIP3   OH237842   6.196   4.176   4.283  0.5297  0.2679  0.0841
 5476TIP3    H137843   6.230   4.086   4.287 -1.3888 -0.5314 -0.3104
 5476TIP3    H237844   6.177   4.199   4.373 -0.3196 -0.2902  0.0549
 5477TIP3   OH237845   2.789   6.386  14.383 -1.3558 -0.0134 -0.5501
 5477TIP3    H137846   2.708   6.437  14.384 -0.3825  1.6401 -1.2387
 5477TIP3    H237847   2.769   6.308  14.434 -2.9687  1.0069  0.4757
 5478TIP3   OH237848   3.478   3.152   3.742 -0.2824  0.0594  0.0099
 5478TIP3    H137849   3.392   3.193   3.757  0.2413  1.7552 -1.3860
 5478TIP3    H237850   3.492   3.158   3.648  1.1900 -0.6049  0.1574
 5479TIP3   OH237851   0.177   5.181  16.469  0.4797  0.1514  0.1939
 5479TIP3    H137852   0.091   5.143  16.451  0.5820 -0.4035  0.8513
 5479TIP3    H237853   0.157   5.265  16.512  0.2624 -0.4174  1.2360
 5480TIP3   OH237854   2.377   6.034  13.531  0.1881 -0.0208  0.4749
 5480TIP3    H137855   2.384   5.985  13.613 -0.5602  0.4133  0.8004
 5480TIP3    H237856   2.294   6.005  13.493  1.0284 -1.0228 -0.6646
 5481TIP3   OH237857   3.575   6.690   4.627  0.1907 -0.3109 -0.4302
 5481TIP3    H137858   3.573   6.600   4.661  0.2442  0.6079  2.2443
 5481TIP3    H237859   3.485   6.722   4.639  0.4284  0.3304 -0.3055
 5482TIP3   OH237860   1.031   3.539  15.314  0.4884  0.0366  0.7103
 5482TIP3    H137861   1.073   3.546  15.228 -0.8493  0.7625  0.0829
 5482TIP3    H237862   0.998   3.627  15.332 -1.3959 -0.6278  0.7974
 5483TIP3   OH237863   1.330   0.416  13.568  0.3086  0.2394  0.0572
 5483TIP3    H137864   1.403   0.388  13.622  0.6617  1.0938  0.0366
 5483TIP3    H237865   1.370   0.469  13.499 -0.5251  3.4787  1.8358
 5484TIP3   OH237866   0.681   0.383   5.522 -0.4335 -0.6334 -0.0386
 5484TIP3    H137867   0.649   0.442   5.590 -1.0496 -0.8752 -0.1122
 5484TIP3    H237868   0.725   0.313   5.570  2.1632  0.8864  0.0049
 5485TIP3   OH237869   6.396   4.663  16.457  0.2263 -0.5667 -0.1088
 5485TIP3    H137870   6.320   4.711  16.423 -0.2308 -1.3479 -0.2008
 5485TIP3    H237871   6.438   4.627  16.379  0.5713 -0.3233 -0.0397
 5486TIP3   OH237872   2.247   5.974  11.393 -0.0152 -0.3226 -0.4443
 5486TIP3    H137873   2.210   6.063  11.394  2.8140  0.9466 -0.7510
 5486TIP3    H237874   2.315   5.977  11.327  1.5559 -2.1179  0.9885
 5487TIP3   OH237875   5.787   2.015  16.084 -0.0203  0.1221  0.0549
 5487TIP3    H137876   5.798   2.060  16.000  0.0932 -1.4865 -0.8278
 5487TIP3    H237877   5.778   1.923  16.061 -1.1927 -0.2257  1.7490
 5488TIP3   OH237878   1.148   1.317   5.457  0.1346 -0.6257  0.0961
 5488TIP3    H137879   1.126   1.325   5.550 -2.0077 -1.7782 -0.2383
 5488TIP3    H237880   1.237   1.284   5.456  0.0951 -0.8833  1.7481
 5489TIP3   OH237881   6.581   5.684   4.631 -0.7132  0.3021 -0.1331
 5489TIP3    H137882   6.634   5.625   4.578  1.9715 -0.0712  2.6955
 5489TIP3    H237883   6.626   5.769   4.627 -0.9859  0.5078  0.7485
 5490TIP3   OH237884   6.412   4.755   3.792 -0.5773  0.3128 -0.2586
 5490TIP3    H137885   6.409   4.841   3.749 -0.1586  0.2432 -0.4261
 5490TIP3    H237886   6.328   4.749   3.838 -0.5430  0.8778 -0.1160
 5491TIP3   OH237887   4.817   6.100   1.892  0.0723 -0.0951 -0.3803
 5491TIP3    H137888   4.752   6.143   1.836  0.2955 -0.5477 -1.0020
 5491TIP3    H237889   4.893   6.158   1.889  0.9834 -1.2904 -2.5692
 5492TIP3   OH237890   0.903   6.645  15.705 -0.1717 -0.2868  0.1643
 5492TIP3    H137891   0.852   6.697  15.767 -0.3809  0.8470 -0.9172
 5492TIP3    H237892   0.923   6.564  15.752 -1.2153  0.1040  1.3311
 5493TIP3   OH237893   3.121   0.355   4.702 -0.1143 -0.1086  0.2415
 5493TIP3    H137894   3.192   0.291   4.696 -1.2784 -1.4141 -0.2386
 5493TIP3    H237895   3.141   0.406   4.781  1.7806  0.1431 -0.3517
 5494TIP3   OH237896   2.763   3.823   1.629 -0.4893 -0.2423  0.2834
 5494TIP3    H137897   2.814   3.884   1.683 -0.4360  0.8392 -0.9351
 5494TIP3    H237898   2.696   3.877   1.589 -1.4118 -1.3001  0.3573
 5495TIP3   OH237899   0.564   5.805  12.787 -0.0847 -0.6506 -0.0520
 5495TIP3    H137900   0.526   5.717  12.787  0.0257 -0.7186  1.3509
 5495TIP3    H237901   0.659   5.790  12.788 -0.0595 -0.5092 -0.3137
 5496TIP3   OH237902   1.102   5.335  12.529  0.2717 -0.4361  0.2425
 5496TIP3    H137903   1.187   5.371  12.504  0.9746 -1.3194  1.3151
 5496TIP3    H237904   1.073   5.389  12.603  0.0928 -0.4182  0.1617
 5497TIP3   OH237905   5.455   3.924  12.848 -0.4893  0.2310 -0.3223
 5497TIP3    H137906   5.381   3.865  12.832 -0.3664 -0.2576  0.8223
 5497TIP3    H237907   5.474   3.914  12.941  2.1389 -0.9420 -0.9190
 5498TIP3   OH237908   4.839   0.146  13.393 -0.1682  0.0395  0.4539
 5498TIP3    H137909   4.764   0.197  13.425 -0.1838 -0.1305  0.6874
 5498TIP3    H237910   4.801   0.087  13.327 -0.3924 -0.6521  1.1878
 5499TIP3   OH237911   1.140   5.697  12.117  0.0745  0.3038  0.3578
 5499TIP3    H137912   1.189   5.735  12.045  0.4327  1.0368  0.9728
 5499TIP3    H237913   1.061   5.661  12.076 -0.1213  1.4286 -0.2950
 5500TIP3   OH237914   5.608   0.490  11.159 -0.2804 -0.6427  0.3181
 5500TIP3    H137915   5.581   0.544  11.084  0.3318  1.0786  1.2809
 5500TIP3    H237916   5.559   0.527  11.233  0.5579 -1.0651  1.0961
 5501TIP3   OH237917   4.301   1.520   0.265 -0.3810  0.0617  0.6379
 5501TIP3    H137918   4.374   1.564   0.223 -0.7749 -0.3192 -0.4800
 5501TIP3    H237919   4.231   1.521   0.200 -1.0467 -0.4475  1.3244
 5502TIP3   OH237920   6.424   4.260   4.068 -0.9766 -0.5407 -0.1097
 5502TIP3    H137921   6.400   4.215   4.148 -0.6368  0.0081  0.3083
 5502TIP3    H237922   6.342   4.273   4.021 -1.3279  0.1502  0.6840
 5503TIP3   OH237923   0.252   3.955  13.625  0.9309  0.2203  0.6895
 5503TIP3    H137924   0.181   3.967  13.563  0.5150 -0.0529  1.1073
 5503TIP3    H237925   0.245   3.864  13.652  1.8918 -0.0134  0.1879
 5504TIP3   OH237926   6.736   6.006   0.714  0.5164  0.0973  0.3143
 5504TIP3    H137927   6.769   6.051   0.792  0.6517  1.4214 -0.4795
 5504TIP3    H237928   6.657   5.961   0.745  0.9311  0.0551  1.3575
 5505TIP3   OH237929   5.569   0.056  14.628 -0.2269  0.2411 -0.5601
 5505TIP3    H137930   5.569   0.005  14.547  0.0934 -0.4686 -0.1233
 5505TIP3    H237931   5.661   0.060  14.654 -0.5306 -1.3828  0.8937
 5506TIP3   OH237932   3.353   0.424   4.554  0.2640  0.2466 -0.4017
 5506TIP3    H137933   3.320   0.367   4.623 -1.6124 -0.3407 -1.7042
 5506TIP3    H237934   3.295   0.500   4.557  0.4904  0.4452 -1.0187
 5507TIP3   OH237935   3.526   5.217  12.704  0.0652 -0.5933 -0.3962
 5507TIP3    H137936   3.576   5.170  12.638 -0.1890  1.0008 -1.8056
 5507TIP3    H237937   3.453   5.158  12.726  0.3860 -1.3199 -1.2409
 5508TIP3   OH237938   5.118   5.917   4.977 -0.5079  0.3710  0.2292
 5508TIP3    H137939   5.095   6.010   4.975  1.6569  0.9548  0.3293
 5508TIP3    H237940   5.213   5.915   4.968 -0.4032 -1.8069  1.1357
 5509TIP3   OH237941   2.331   2.416   4.435  0.2405 -0.3337  0.6076
 5509TIP3    H137942   2.412   2.365   4.428  0.4010  0.0766 -0.7476
 5509TIP3    H237943   2.296   2.393   4.522  2.0389 -0.1519  1.4242
 5510TIP3   OH237944   0.608   6.261   1.619 -0.2448  0.2866  0.0488
 5510TIP3    H137945   0.672   6.325   1.650  0.1549 -0.1485  0.1493
 5510TIP3    H237946   0.595   6.203   1.695  1.4940 -1.3903 -0.8322
 5511TIP3   OH237947   2.645   3.870  12.246 -0.2675  0.0959  0.0623
 5511TIP3    H137948   2.716   3.833  12.192  0.2596  0.0009  0.8113
 5511TIP3    H237949   2.565   3.839  12.204  0.0961  0.7687 -1.2171
 5512TIP3   OH237950   0.897   1.334  12.496  0.1874  0.2681  0.1997
 5512TIP3    H137951   0.906   1.348  12.590  2.9757 -2.2700  0.4400
 5512TIP3    H237952   0.968   1.274  12.473  0.7323  2.1264 -3.8804
 5513TIP3   OH237953   0.951   2.591  14.242 -0.3416 -1.0260  0.3295
 5513TIP3    H137954   0.884   2.659  14.240  1.0780  0.4337  0.3291
 5513TIP3    H237955   1.025   2.629  14.194  0.5968 -2.4722  0.5614
 5514TIP3   OH237956   1.540   1.800  12.895  0.2273 -0.1776  0.1104
 5514TIP3    H137957   1.568   1.862  12.963 -0.0105 -0.8017  0.7980
 5514TIP3    H237958   1.465   1.843  12.854  0.5756  0.3516  0.0138
 5515TIP3   OH237959   0.351   1.671   2.176  0.0023  0.2365 -0.0384
 5515TIP3    H137960   0.386   1.640   2.093 -0.1172 -0.2363  0.0886
 5515TIP3    H237961   0.417   1.647   2.241 -1.0753 -1.7443  0.3827
 5516TIP3   OH237962   2.243   0.288   1.075 -0.3217  0.7448  0.2445
 5516TIP3    H137963   2.262   0.200   1.042 -2.0478  0.4558 -0.0452
 5516TIP3    H237964   2.308   0.302   1.144  1.0457 -0.0770 -0.8371
 5517TIP3   OH237965   1.786   5.871  14.815 -0.5901 -0.2023  0.0622
 5517TIP3    H137966   1.830   5.835  14.893 -0.2398  0.8609  0.3672
 5517TIP3    H237967   1.704   5.822  14.811  0.5724 -2.2501 -0.5321
 5518TIP3   OH237968   0.595   3.521   5.030  0.0171  0.2495  1.0536
 5518TIP3    H137969   0.598   3.589   5.098  0.9391 -0.9091  2.1998
 5518TIP3    H237970   0.636   3.562   4.954 -0.5737  1.3991  1.3285
 5519TIP3   OH237971   2.012   0.751  10.735 -0.2338  0.5569  0.0344
 5519TIP3    H137972   2.061   0.693  10.677 -0.7251  0.3039 -0.1308
 5519TIP3    H237973   1.994   0.829  10.681 -1.4343 -0.0339 -0.4373
 5520TIP3   OH237974   2.091   4.971   0.071 -0.6583  0.0992 -0.3494
 5520TIP3    H137975   2.056   4.888   0.039  0.5871 -0.8859  0.7087
 5520TIP3    H237976   2.164   4.991   0.012  2.4590 -2.3685  2.3228
 5521TIP3   OH237977   5.435   4.735  10.403  0.3094  0.1344  0.3735
 5521TIP3    H137978   5.477   4.731  10.317 -0.8427  1.6316 -0.3126
 5521TIP3    H237979   5.477   4.666  10.454  1.8168 -0.0483 -1.0338
 5522TIP3   OH237980   0.065   1.730   4.331 -0.5109  0.1411  0.2728
 5522TIP3    H137981   0.134   1.791   4.306 -0.3747  0.7752  2.0953
 5522TIP3    H237982   0.106   1.644   4.327  0.6999  0.5777  2.1788
 5523TIP3   OH237983   0.526   6.170   1.390  0.5047 -0.0385 -0.4002
 5523TIP3    H137984   0.566   6.178   1.476  1.5929  1.3798 -1.0005
 5523TIP3    H237985   0.597   6.186   1.328 -0.5865  0.5917 -1.5476
 5524TIP3   OH237986   3.630   4.326  11.862  0.3688 -0.2922  0.3977
 5524TIP3    H137987   3.665   4.411  11.888 -1.7551  0.5473  0.7474
 5524TIP3    H237988   3.566   4.305  11.931 -0.0176 -1.5969 -0.3258
 5525TIP3   OH237989   5.930   3.080  13.588  0.1547 -0.1015 -0.4566
 5525TIP3    H137990   5.876   3.031  13.525  0.1548 -0.0118 -0.5270
 5525TIP3    H237991   6.019   3.048  13.574  0.1375 -0.1653 -0.4215
 5526TIP3   OH237992   1.893   5.012   4.747 -0.1381 -0.2043  0.2996
 5526TIP3    H137993   1.836   5.081   4.713 -1.5549 -1.5703 -0.2361
 5526TIP3    H237994   1.923   5.045   4.831 -2.1463  0.3856  0.8517
 5527TIP3   OH237995   2.879   3.980   3.838 -0.0188  0.0253  0.1080
 5527TIP3    H137996   2.792   4.005   3.805  0.6030  0.1271 -1.5374
 5527TIP3    H237997   2.863   3.903   3.892 -1.2844  0.7876  0.8758
 5528TIP3   OH237998   1.112   4.145   0.227 -0.4846 -0.1524 -0.2918
 5528TIP3    H137999   1.127   4.052   0.214  1.4253  0.0730 -0.0449
 5528TIP3    H238000   1.070   4.174   0.146  1.4000 -0.7478 -1.5659
 5529TIP3   OH238001   6.021   2.998  14.356 -0.0951  0.2210  0.8518
 5529TIP3    H138002   5.972   2.918  14.378  0.2916 -0.0624  0.6927
 5529TIP3    H238003   5.958   3.069  14.371 -0.8703 -0.1994 -0.2843
 5530TIP3   OH238004   1.861   2.998  12.442 -0.4073 -0.5259  0.1438
 5530TIP3    H138005   1.879   3.011  12.535  0.1166 -0.3945  0.0286
 5530TIP3    H238006   1.936   2.947  12.410 -1.1281 -1.5596  0.0316
 5531TIP3   OH238007   5.473   6.176  15.683 -0.1940  0.1532 -0.2833
 5531TIP3    H138008   5.425   6.146  15.760 -1.5247 -0.4076 -1.2960
 5531TIP3    H238009   5.411   6.232  15.636  0.9703  1.3846 -0.4075
 5532TIP3   OH238010   0.588   2.767   1.699 -0.1535  0.4296  0.0928
 5532TIP3    H138011   0.640   2.789   1.623 -0.6878 -1.4438 -0.8934
 5532TIP3    H238012   0.526   2.839   1.709  0.6043  1.1864 -0.5854
 5533TIP3   OH238013   4.880   2.887   4.197 -0.3663 -0.5069 -0.4834
 5533TIP3    H138014   4.942   2.950   4.160 -2.4487  0.6709 -2.1609
 5533TIP3    H238015   4.863   2.920   4.285  0.1471  0.0680 -0.5904
 5534TIP3   OH238016   3.275   4.980   5.137 -0.5036 -0.1262 -0.0000
 5534TIP3    H138017   3.258   4.901   5.189 -0.9310  0.0750  0.1712
 5534TIP3    H238018   3.345   5.025   5.186  0.0104 -0.5797 -0.3013
 5535TIP3   OH238019   6.546   3.831   5.573  0.4728 -0.0763  0.3959
 5535TIP3    H138020   6.556   3.760   5.636  2.0628 -0.4361 -0.2240
 5535TIP3    H238021   6.580   3.796   5.491 -1.6222  0.3659 -0.7244
 5536TIP3   OH238022   4.388   2.137  15.981  0.0990  0.3063  0.1531
 5536TIP3    H138023   4.458   2.081  16.013  1.9977  0.5919 -3.0305
 5536TIP3    H238024   4.425   2.225  15.983 -0.2048  0.5016 -1.3144
 5537TIP3   OH238025   3.552   2.331  14.429  0.4017 -0.5524  0.1657
 5537TIP3    H138026   3.494   2.257  14.445 -0.4002  0.4720  2.5710
 5537TIP3    H238027   3.637   2.292  14.409  0.0445 -2.1656  1.5384
 5538TIP3   OH238028   5.494   0.591  16.112  0.3678 -0.7218  0.6602
 5538TIP3    H138029   5.582   0.619  16.140  1.1090 -1.5916 -0.7129
 5538TIP3    H238030   5.435   0.653  16.155  1.8433  2.4377 -1.4406
 5539TIP3   OH238031   1.440   1.240   5.432 -0.6018  0.5619 -0.1735
 5539TIP3    H138032   1.486   1.292   5.498 -0.1537  0.1655 -0.1701
 5539TIP3    H238033   1.499   1.168   5.412 -1.4859 -0.3406  0.3201
 5540TIP3   OH238034   6.565   3.525   0.542 -0.6825  0.6730  0.1225
 5540TIP3    H138035   6.507   3.509   0.617 -0.0075 -0.2534  0.4609
 5540TIP3    H238036   6.507   3.523   0.466 -1.1379 -0.0059  0.4776
 5541TIP3   OH238037   2.756   6.318  16.242 -0.2733 -0.1246  0.3614
 5541TIP3    H138038   2.740   6.300  16.149  0.3491  1.7705 -0.1696
 5541TIP3    H238039   2.848   6.346  16.244 -0.4192  0.2981  1.4677
 5542TIP3   OH238040   5.460   0.635  16.752  0.3133 -0.0322 -0.1848
 5542TIP3    H138041   5.539   0.590  16.783  0.8982 -0.7582 -2.5651
 5542TIP3    H238042   5.407   0.566  16.713 -0.6538  0.7438 -0.2665
 5543TIP3   OH238043   6.596   2.340  15.475 -0.2346 -0.7688  0.7781
 5543TIP3    H138044   6.507   2.367  15.453 -0.5993 -3.6488 -2.0950
 5543TIP3    H238045   6.630   2.303  15.393  3.6187  0.1152  1.7892
 5544TIP3   OH238046   2.223   5.342  15.836  0.6442  0.0283  0.1973
 5544TIP3    H138047   2.159   5.274  15.857  0.7807 -0.6566 -1.4611
 5544TIP3    H238048   2.308   5.300  15.846  0.7100 -0.7154 -2.6707
 5545TIP3   OH238049   5.766   2.369  16.961  0.0531 -0.0494  0.3057
 5545TIP3    H138050   5.796   2.378  17.052 -1.4559  1.5584  0.6951
 5545TIP3    H238051   5.834   2.414  16.910  0.9232 -0.9821  0.5960
 5546TIP3   OH238052   3.999   4.899  14.890  0.2085 -0.5334  0.0981
 5546TIP3    H138053   4.031   4.809  14.879 -0.2449 -0.5463 -1.4101
 5546TIP3    H238054   4.072   4.954  14.864  1.3008 -0.3204  3.1716
 5547TIP3   OH238055   4.334   3.201  13.631  0.1591  0.1087  0.2850
 5547TIP3    H138056   4.301   3.111  13.635 -1.0238  0.5289  0.1949
 5547TIP3    H238057   4.257   3.255  13.618  0.9918  1.0524 -0.9980
 5548TIP3   OH238058   5.788   3.187   3.939  0.0339  0.0278  0.6558
 5548TIP3    H138059   5.803   3.093   3.953  1.4839  0.4274  2.0447
 5548TIP3    H238060   5.739   3.215   4.016 -1.2976  0.2346 -0.2476
 5549TIP3   OH238061   0.623   6.169  12.800  0.2133 -0.0065  0.5409
 5549TIP3    H138062   0.635   6.157  12.894  0.6766 -1.2723  0.3360
 5549TIP3    H238063   0.537   6.210  12.792 -0.6045 -1.4814  1.4287
 5550TIP3   OH238064   2.176   5.329  14.693 -0.1687 -0.4367 -0.1370
 5550TIP3    H138065   2.257   5.378  14.708 -0.4767 -0.1003  0.4816
 5550TIP3    H238066   2.123   5.347  14.771  0.1048 -2.5661  0.6021
 5551TIP3   OH238067   3.511   2.871  14.601  0.6596  0.3918 -0.0454
 5551TIP3    H138068   3.417   2.865  14.616  0.1790 -0.7129 -2.8679
 5551TIP3    H238069   3.539   2.946  14.653 -1.5173  0.0297  1.8189
 5552TIP3   OH238070   5.674   5.822  12.791  0.6300  0.2604 -0.1120
 5552TIP3    H138071   5.657   5.820  12.697  2.3004  1.0505 -0.4647
 5552TIP3    H238072   5.610   5.885  12.825  0.6735  0.7364 -0.8761
 5553TIP3   OH238073   3.121   6.722  12.183 -0.4719  0.4649  0.0432
 5553TIP3    H138074   3.062   6.791  12.155  0.4626  1.2860  0.0538
 5553TIP3    H238075   3.064   6.658  12.226 -1.4015  1.0181 -0.3268
 5554TIP3   OH238076   5.872   5.392  14.020  0.2264 -0.3986 -0.7350
 5554TIP3    H138077   5.796   5.354  14.064  0.2999  0.6564  0.3554
 5554TIP3    H238078   5.945   5.336  14.046  0.5287  1.0072  1.7712
 5555TIP3   OH238079   6.729   6.069  12.088  0.1339  0.1550  0.4918
 5555TIP3    H138080   6.733   5.973  12.089 -0.8269  0.0903  2.2530
 5555TIP3    H238081   6.794   6.095  12.022  0.3070 -1.6963 -0.1328
 5556TIP3   OH238082   3.101   0.864   2.183  0.7295 -0.3224 -0.5270
 5556TIP3    H138083   3.107   0.833   2.273 -0.8161  0.2329 -0.1935
 5556TIP3    H238084   3.068   0.954   2.191  0.9029 -0.1454 -1.6323
 5557TIP3   OH238085   4.533   1.529   1.227 -0.3660 -0.0863  0.3877
 5557TIP3    H138086   4.621   1.546   1.261  0.0313 -0.6741 -0.3093
 5557TIP3    H238087   4.477   1.592   1.272  0.0757 -1.0266  2.3599
 5558TIP3   OH238088   3.263   0.053  13.178 -0.8100  0.0281 -0.3268
 5558TIP3    H138089   3.246  -0.027  13.229 -0.0184 -1.4763 -2.2872
 5558TIP3    H238090   3.357   0.050  13.160 -0.8648  1.1597 -0.8572
 5559TIP3   OH238091   1.044   4.032   1.855 -0.2969  0.0290 -0.0105
 5559TIP3    H138092   1.079   3.946   1.833 -0.2088  0.2542 -0.7825
 5559TIP3    H238093   0.994   4.058   1.778 -1.3869  0.1252  0.7047
 5560TIP3   OH238094   3.994   5.451  12.367 -0.2261  0.3139  0.0704
 5560TIP3    H138095   3.957   5.482  12.285  1.7123  1.0151 -0.5726
 5560TIP3    H238096   3.974   5.519  12.430 -0.5151  0.4163 -0.1301
 5561TIP3   OH238097   3.730   5.355  14.241  0.1883 -0.2250  0.4270
 5561TIP3    H138098   3.755   5.420  14.176  1.8671 -0.0780  1.1576
 5561TIP3    H238099   3.729   5.403  14.324 -2.2478 -0.3294  0.5381
 5562TIP3   OH238100   2.924   6.296  12.725 -0.1829 -0.2476 -0.0776
 5562TIP3    H138101   2.839   6.323  12.759 -0.0655 -1.5282  1.3151
 5562TIP3    H238102   2.922   6.321  12.632 -1.1763  1.8050  0.4386
 5563TIP3   OH238103   2.168   1.882   3.810  0.2665  1.3315 -0.3958
 5563TIP3    H138104   2.221   1.807   3.783 -1.7345 -0.8207  1.2101
 5563TIP3    H238105   2.093   1.881   3.750  0.2925  2.1371 -0.4468
 5564TIP3   OH238106   2.998   2.068   5.074 -0.0516  0.2624  0.0611
 5564TIP3    H138107   3.019   2.138   5.136  0.7414 -0.7559  0.9900
 5564TIP3    H238108   3.031   1.988   5.116 -0.1399 -0.5571 -1.3559
 5565TIP3   OH238109   3.189   3.368   2.425 -0.0888 -0.1558  0.4813
 5565TIP3    H138110   3.220   3.459   2.434 -2.3917  0.5045  3.6930
 5565TIP3    H238111   3.149   3.365   2.338  0.9271  1.5738 -0.1107
 5566TIP3   OH238112   4.914   6.654   3.188 -0.8686 -0.1959  0.2174
 5566TIP3    H138113   4.823   6.666   3.214 -0.5347  0.2427  1.2450
 5566TIP3    H238114   4.960   6.729   3.226  0.0900 -0.9755  0.6513
 5567TIP3   OH238115   0.723   1.034   1.054  0.3027 -0.1019  0.4179
 5567TIP3    H138116   0.681   1.110   1.093 -0.8881 -1.9108  2.9561
 5567TIP3    H238117   0.755   0.983   1.129  2.6835 -1.2607 -1.2380
 5568TIP3   OH238118   5.763   4.307   2.464  0.5953 -0.3058 -0.2953
 5568TIP3    H138119   5.742   4.246   2.393  0.1531  0.8591 -1.1904
 5568TIP3    H238120   5.843   4.351   2.435  1.0397 -0.5961  0.4499
 5569TIP3   OH238121   4.110   2.549   0.006 -0.1266  0.5110 -0.1372
 5569TIP3    H138122   4.017   2.566  -0.010 -0.4393  0.2224  1.2415
 5569TIP3    H238123   4.120   2.456  -0.012 -0.5501  0.1136  1.5540
 5570TIP3   OH238124   3.566   6.236  16.684 -0.3642 -0.0547 -0.5553
 5570TIP3    H138125   3.532   6.320  16.654 -0.9828 -0.2418 -0.4151
 5570TIP3    H238126   3.622   6.205  16.613 -0.2024  0.4336 -0.6415
 5571TIP3   OH238127   5.397   0.910   3.652  0.4855 -0.4140 -0.2692
 5571TIP3    H138128   5.432   0.848   3.716  3.9738  2.2460  0.7153
 5571TIP3    H238129   5.445   0.891   3.571  2.4569  1.5033  0.3418
 5572TIP3   OH238130   2.646   5.492  17.037  1.0231 -0.3380 -0.5281
 5572TIP3    H138131   2.699   5.415  17.057  1.2285 -0.1057 -0.1554
 5572TIP3    H238132   2.699   5.566  17.069 -0.4733 -0.2238  1.9583
 5573TIP3   OH238133   0.048   2.638  11.422 -0.5269 -0.0812 -0.3242
 5573TIP3    H138134  -0.011   2.563  11.432 -0.8475  0.2316  0.2116
 5573TIP3    H238135  -0.000   2.711  11.461 -0.0246  0.3069 -0.4227
 5574TIP3   OH238136   0.293   1.012   6.776 -0.4486 -0.1573 -0.4815
 5574TIP3    H138137   0.378   1.049   6.800 -0.7971 -0.1015  0.7750
 5574TIP3    H238138   0.269   1.056   6.695 -0.4497  1.7629  0.4981
 5575TIP3   OH238139   1.841   2.037   3.153  0.7034  0.2137 -1.2354
 5575TIP3    H138140   1.909   2.104   3.140  1.2478 -0.0825 -0.0921
 5575TIP3    H238141   1.844   2.019   3.247 -2.0353  1.3117 -0.8554
 5576TIP3   OH238142   5.222   2.553  10.865  0.0674  0.5120 -0.0907
 5576TIP3    H138143   5.212   2.469  10.911 -1.4025  1.0385  0.6020
 5576TIP3    H238144   5.172   2.542  10.784 -0.6887  0.9194  0.3075
 5577TIP3   OH238145   5.525   0.777  11.831  0.3384  0.4726 -0.4340
 5577TIP3    H138146   5.442   0.800  11.790 -0.1946 -0.9494 -0.1798
 5577TIP3    H238147   5.528   0.830  11.910 -1.1216 -0.6799  0.4214
 5578TIP3   OH238148   6.454   5.747  12.933  0.4213 -0.0534 -0.4072
 5578TIP3    H138149   6.463   5.836  12.966  0.4842 -0.5522  0.9993
 5578TIP3    H238150   6.374   5.749  12.880 -0.1974  0.5950  0.5181
 5579TIP3   OH238151   6.768   6.527   4.024 -0.0476 -0.2350 -0.0420
 5579TIP3    H138152   6.849   6.577   4.012 -0.9434  1.6592  1.2371
 5579TIP3    H238153   6.713   6.584   4.078 -2.0995 -1.6208 -0.5592
 5580TIP3   OH238154   2.146   2.828   0.560  0.4408 -0.0082  1.1823
 5580TIP3    H138155   2.139   2.827   0.655  1.2766  0.5335  1.2524
 5580TIP3    H238156   2.064   2.869   0.530  0.0354 -0.4742  1.6454
 5581TIP3   OH238157   5.315   5.509   1.337 -0.5091 -0.1378  0.1523
 5581TIP3    H138158   5.320   5.413   1.334 -0.6949 -0.2151  1.4748
 5581TIP3    H238159   5.279   5.534   1.252  0.3057 -1.1796 -0.5244
 5582TIP3   OH238160   4.798   1.332  10.908  0.3979 -0.3736  0.3520
 5582TIP3    H138161   4.881   1.363  10.873  1.1933 -2.1293  0.5872
 5582TIP3    H238162   4.733   1.392  10.871  1.4199 -0.7661 -2.3457
 5583TIP3   OH238163   6.363   4.304   1.218  0.2613  0.0592  0.4545
 5583TIP3    H138164   6.427   4.338   1.156 -0.8169 -1.5012 -1.6198
 5583TIP3    H238165   6.414   4.248   1.277  1.1728  0.9297  0.5181
 5584TIP3   OH238166   0.219   4.221   3.881  0.5243 -0.8868 -0.1722
 5584TIP3    H138167   0.192   4.274   3.956 -0.4891 -2.6019  0.7380
 5584TIP3    H238168   0.190   4.270   3.804 -0.9273 -0.4038  0.6651
 5585TIP3   OH238169   5.896   2.199  12.409  0.2721  0.4278 -0.0468
 5585TIP3    H138170   5.841   2.123  12.430 -1.5428  0.9206 -2.5650
 5585TIP3    H238171   5.976   2.185  12.460 -1.3460 -1.3675  2.2338
 5586TIP3   OH238172   3.348   0.192  10.863 -0.0144 -0.0279  0.2968
 5586TIP3    H138173   3.366   0.146  10.781 -0.9379 -1.3152  0.7889
 5586TIP3    H238174   3.335   0.283  10.837 -2.3860 -0.7344 -1.2918
 5587TIP3   OH238175   4.157   2.836   5.182 -0.7070 -0.5507 -0.0814
 5587TIP3    H138176   4.142   2.833   5.277 -0.4371 -0.5887 -0.0386
 5587TIP3    H238177   4.233   2.780   5.168  0.7854  1.3471 -0.0042
 5588TIP3   OH238178   2.136   1.482   3.988  0.2136  0.2266  0.3464
 5588TIP3    H138179   2.165   1.398   3.952  0.8301  0.7174 -0.3387
 5588TIP3    H238180   2.041   1.475   3.993  0.0534  0.2165 -1.6511
 5589TIP3   OH238181   5.007   6.785  10.818  0.4177  0.1016 -0.5014
 5589TIP3    H138182   4.912   6.778  10.816  0.4022  0.3473 -1.8279
 5589TIP3    H238183   5.037   6.730  10.746  1.2814  0.1283 -0.1814
 5590TIP3   OH238184   4.721   0.234  10.572 -0.0918 -0.3936 -0.0624
 5590TIP3    H138185   4.788   0.180  10.532 -0.8912 -0.6527 -1.0819
 5590TIP3    H238186   4.686   0.180  10.643 -1.3607 -1.5238 -1.5061
 5591TIP3   OH238187   0.209   3.898   4.430  0.0333  0.5133 -0.3304
 5591TIP3    H138188   0.139   3.962   4.419 -1.1406 -0.8367 -0.8970
 5591TIP3    H238189   0.237   3.909   4.521 -0.5963  1.3672 -0.2289
 5592TIP3   OH238190   0.734   1.710  16.620  0.3443  0.2033 -0.0912
 5592TIP3    H138191   0.755   1.765  16.696 -1.6394  1.3585 -0.3251
 5592TIP3    H238192   0.746   1.768  16.545 -1.2665  0.1862 -0.3817
 5593TIP3   OH238193   2.110   5.494  11.167  0.2172 -0.2663 -0.0010
 5593TIP3    H138194   2.165   5.557  11.121 -1.0424  1.2788  0.5407
 5593TIP3    H238195   2.112   5.522  11.258 -0.7428 -0.7164  0.1686
 5594TIP3   OH238196   6.787   1.427  10.521 -0.5256 -0.2702 -0.4634
 5594TIP3    H138197   6.827   1.502  10.567 -1.0292 -0.6863  0.6967
 5594TIP3    H238198   6.697   1.455  10.503 -0.1627  0.1258 -1.8014
 5595TIP3   OH238199   0.418   3.840  11.242 -0.1134 -0.3344 -0.5078
 5595TIP3    H138200   0.466   3.785  11.305 -0.7263  0.2719  0.5011
 5595TIP3    H238201   0.375   3.777  11.184 -0.3435 -0.9185  0.2807
 5596TIP3   OH238202   4.347   2.712  10.857  0.8618  0.7127 -0.1584
 5596TIP3    H138203   4.343   2.616  10.863 -1.0532  0.7442 -0.1034
 5596TIP3    H238204   4.343   2.741  10.948 -1.3710  0.8337 -0.2347
 5597TIP3   OH238205   6.077   3.033  12.372 -0.4321  0.7320 -0.1314
 5597TIP3    H138206   6.117   3.089  12.439 -1.4988  2.7752 -1.1125
 5597TIP3    H238207   6.043   2.958  12.420  2.0079  0.3205  1.0976
 5598TIP3   OH238208   0.249   2.544   1.692 -0.2962 -0.1012 -0.2875
 5598TIP3    H138209   0.321   2.550   1.755 -0.3259 -0.1490 -0.2485
 5598TIP3    H238210   0.243   2.451   1.670 -1.3005 -0.3415  0.8458
 5599TIP3   OH238211   4.840   5.956  12.271 -0.1364 -0.3339 -0.6555
 5599TIP3    H138212   4.926   5.993  12.249  1.2945 -0.4988  3.6962
 5599TIP3    H238213   4.858   5.864  12.289 -1.3568 -0.5150 -0.2849
 5600TIP3   OH238214   1.746   5.876   4.209  0.1392 -0.1684 -0.2751
 5600TIP3    H138215   1.651   5.885   4.203 -0.1500 -2.0599  0.7633
 5600TIP3    H238216   1.763   5.785   4.185  1.5520 -0.2107  0.7373
 5601TIP3   OH238217   3.115   5.410  14.528 -0.0162  0.1710  0.5036
 5601TIP3    H138218   3.050   5.351  14.566  0.7589  0.3022  2.1107
 5601TIP3    H238219   3.107   5.397  14.434 -2.6782  0.5289  0.6088
 5602TIP3   OH238220   4.748   1.768   1.076  0.3829 -0.2631 -0.3383
 5602TIP3    H138221   4.755   1.862   1.056  0.0701  0.1679  1.4151
 5602TIP3    H238222   4.738   1.765   1.171  1.6716 -2.1549 -0.2181
 5603TIP3   OH238223   5.457   1.416  11.534  0.7120  0.5457  1.0265
 5603TIP3    H138224   5.450   1.499  11.581 -0.2391  0.0078  1.8853
 5603TIP3    H238225   5.419   1.351  11.594 -0.0866 -0.2447 -0.2825
 5604TIP3   OH238226   5.346   1.504   0.013  0.1814  0.1057  0.2379
 5604TIP3    H138227   5.413   1.510  -0.055  1.8373 -0.8481  1.6963
 5604TIP3    H238228   5.395   1.482   0.092 -1.8499 -0.3194  1.4353
 5605TIP3   OH238229   3.081   4.401   2.319 -0.8820  0.1819  0.0247
 5605TIP3    H138230   3.120   4.334   2.376 -0.3215  0.3711 -0.1309
 5605TIP3    H238231   3.045   4.352   2.245  1.3055  0.1800 -1.1211
 5606TIP3   OH238232   4.507   1.147  11.754  0.4792 -0.2804 -0.1271
 5606TIP3    H138233   4.464   1.063  11.770  0.9870 -0.2695  1.5210
 5606TIP3    H238234   4.572   1.154  11.825  0.0323  1.7626  0.1259
 5607TIP3   OH238235   5.160   0.054  11.586  0.6078  0.0039 -0.2710
 5607TIP3    H138236   5.111   0.046  11.504  3.3512  1.4082 -2.2339
 5607TIP3    H238237   5.151  -0.031  11.628 -2.4818 -0.1485 -1.0116
 5608TIP3   OH238238   0.437   2.503  15.683 -0.5537  0.1109 -0.1430
 5608TIP3    H138239   0.443   2.408  15.683 -0.5518  0.1066  0.3218
 5608TIP3    H238240   0.521   2.532  15.721 -1.6294  0.1936  2.3856
 5609TIP3   OH238241   2.051   3.800  11.691 -0.0056  0.0091 -0.9588
 5609TIP3    H138242   2.038   3.784  11.597  1.0715  0.8370 -1.2748
 5609TIP3    H238243   2.028   3.892  11.704 -0.6623 -0.2387 -0.2943
 5610TIP3   OH238244   6.797   5.859  14.415  0.0598 -0.5689  0.1074
 5610TIP3    H138245   6.786   5.937  14.469  2.2320  0.0609 -0.2507
 5610TIP3    H238246   6.711   5.819  14.412 -0.9760  1.4795  0.8270
 5611TIP3   OH238247   4.159   6.411  12.999 -0.3551 -0.2329  0.1525
 5611TIP3    H138248   4.222   6.483  13.006 -1.8927  0.9881  3.6314
 5611TIP3    H238249   4.173   6.376  12.911  2.9760  1.9388 -0.3806
 5612TIP3   OH238250   3.624   5.372   0.825  0.6851 -0.0685  0.0101
 5612TIP3    H138251   3.649   5.461   0.800  0.7539 -0.2203 -0.4747
 5612TIP3    H238252   3.664   5.360   0.911 -2.1141  1.5522  1.6630
 5613TIP3   OH238253   6.572   6.754  16.779  0.4157 -0.4710  0.6152
 5613TIP3    H138254   6.528   6.672  16.757 -1.0419  0.6202 -0.7375
 5613TIP3    H238255   6.616   6.780  16.698  2.6043 -0.8949  1.5977
 5614TIP3   OH238256   3.455   2.356  15.272  0.4258  0.7351  0.1054
 5614TIP3    H138257   3.361   2.350  15.259  0.5357  1.2872 -1.0057
 5614TIP3    H238258   3.477   2.278  15.324 -0.5069  0.1332 -0.3780
 5615TIP3   OH238259   5.463   6.177   0.179 -0.0668 -0.0985  0.6019
 5615TIP3    H138260   5.533   6.242   0.172  2.3249 -2.4047  1.4556
 5615TIP3    H238261   5.383   6.229   0.180  1.5480  2.6668 -0.9127
 5616TIP3   OH238262   6.621   4.560   0.035  0.3279 -0.4603  0.0739
 5616TIP3    H138263   6.602   4.509   0.114  1.9509 -1.2746 -0.0211
 5616TIP3    H238264   6.553   4.628   0.033 -1.8573 -2.5011  0.2751
 5617TIP3   OH238265   4.509   4.051   2.405 -0.3087  0.1916 -0.8502
 5617TIP3    H138266   4.460   4.081   2.481 -0.8186  1.3249 -1.6026
 5617TIP3    H238267   4.482   3.959   2.394  0.5823 -0.3218  0.9350
 5618TIP3   OH238268   1.201   1.027   5.816  0.3794  0.0506  0.0215
 5618TIP3    H138269   1.295   1.047   5.818  0.1755  1.0087  0.8223
 5618TIP3    H238270   1.196   0.932   5.831  1.1029  0.4644  4.0098
 5619TIP3   OH238271   1.586   2.280   1.599  0.5344 -0.1098  0.9974
 5619TIP3    H138272   1.519   2.294   1.666 -0.7411  0.1226 -0.2704
 5619TIP3    H238273   1.569   2.190   1.568 -0.5371  0.6322 -0.7093
 5620TIP3   OH238274   1.869   0.390   2.249  0.4614 -0.3732 -0.4386
 5620TIP3    H138275   1.947   0.386   2.304  1.2469 -0.2912 -1.5262
 5620TIP3    H238276   1.839   0.299   2.246 -0.5256 -0.1686  1.3807
 5621TIP3   OH238277   4.551   4.350  15.181  0.1234 -0.3678  0.1281
 5621TIP3    H138278   4.507   4.435  15.175  1.7210  0.4521 -0.7258
 5621TIP3    H238279   4.604   4.356  15.260 -0.9966 -1.2309  0.9779
 5622TIP3   OH238280   1.277   3.581   1.495 -0.4045 -0.0155 -0.1139
 5622TIP3    H138281   1.282   3.492   1.530  0.9229 -1.2703 -3.1796
 5622TIP3    H238282   1.196   3.583   1.443  0.3771  0.0008 -1.3687
 5623TIP3   OH238283   0.426   0.518  16.184 -0.1987 -0.0252 -0.6523
 5623TIP3    H138284   0.424   0.614  16.175  1.9183  0.1583  0.2572
 5623TIP3    H238285   0.463   0.487  16.102  1.9998  0.2153  0.2029
 5624TIP3   OH238286   1.626   4.103   1.255  0.2506 -0.2263 -0.1867
 5624TIP3    H138287   1.713   4.064   1.244  0.6836  0.7762 -0.4276
 5624TIP3    H238288   1.567   4.028   1.263  1.0905 -0.9237 -0.3661
 5625TIP3   OH238289   3.834   6.739   3.086 -0.0595 -0.8665 -0.2611
 5625TIP3    H138290   3.835   6.644   3.096  1.1304 -0.6132  3.3240
 5625TIP3    H238291   3.761   6.769   3.141  0.3015  0.3869 -0.4186
 5626TIP3   OH238292   3.499   5.995  16.765 -0.6835  0.0971 -0.2755
 5626TIP3    H138293   3.523   5.934  16.694 -0.6586  1.6042 -1.6249
 5626TIP3    H238294   3.514   6.082  16.727 -3.3238  1.0268  0.6176
 5627TIP3   OH238295   5.602   0.666  12.822 -0.2701  0.1791 -0.2000
 5627TIP3    H138296   5.542   0.651  12.749  0.7034  1.1692 -1.2413
 5627TIP3    H238297   5.641   0.580  12.838 -0.8870 -0.1607 -0.4933
 5628TIP3   OH238298   2.993   6.378   4.957 -0.0377 -0.3156 -0.2551
 5628TIP3    H138299   3.006   6.437   5.032  1.5422  0.2127 -0.9183
 5628TIP3    H238300   2.998   6.290   4.994  1.6439 -0.0728  0.1469
 5629TIP3   OH238301   5.142   6.454   0.817  0.3187 -0.0869  0.5657
 5629TIP3    H138302   5.093   6.372   0.812  1.1731 -0.5026 -2.7219
 5629TIP3    H238303   5.185   6.462   0.732  1.8721  2.8047  1.5023
 5630TIP3   OH238304   2.039   6.259   1.247 -0.3577 -0.1461 -0.4989
 5630TIP3    H138305   2.108   6.318   1.279 -1.1939 -0.1259  1.4173
 5630TIP3    H238306   2.075   6.222   1.167  1.1792  1.1518 -0.4700
 5631TIP3   OH238307   5.602   2.935  14.756 -0.6441 -0.0711  0.6483
 5631TIP3    H138308   5.635   2.984  14.830 -0.1000  0.9232 -0.2241
 5631TIP3    H238309   5.615   2.993  14.681 -2.2874 -0.5549 -0.0658
 5632TIP3   OH238310   3.236   3.474   3.950 -0.1251 -0.5417  0.2802
 5632TIP3    H138311   3.170   3.421   3.905  0.2488 -0.0607 -0.8839
 5632TIP3    H238312   3.259   3.423   4.027 -1.4772 -0.9570  0.4339
 5633TIP3   OH238313   2.440   6.081   1.784 -0.1964  0.1302  0.3304
 5633TIP3    H138314   2.502   6.154   1.788 -2.2176  1.9131  1.0565
 5633TIP3    H238315   2.371   6.111   1.725 -1.5185 -0.8275  1.3347
 5634TIP3   OH238316   1.083   4.404   5.987  0.9089  0.1756 -0.6042
 5634TIP3    H138317   1.045   4.356   6.060 -0.2703  1.3035 -0.4409
 5634TIP3    H238318   1.169   4.364   5.974  2.0839  1.2213  2.7447
 5635TIP3   OH238319   3.780   0.163   1.343 -0.1687  0.3424 -0.4766
 5635TIP3    H138320   3.758   0.110   1.420  1.4817 -0.8157 -0.7555
 5635TIP3    H238321   3.860   0.124   1.309  1.2994  3.1819 -0.5677
 5636TIP3   OH238322   0.781   1.052  11.307 -0.8148 -0.0982 -0.3077
 5636TIP3    H138323   0.801   1.095  11.224 -1.2039  0.9931  0.1433
 5636TIP3    H238324   0.865   1.022  11.340 -0.7647 -1.4535 -1.5573
 5637TIP3   OH238325   5.755   0.706  14.713  0.1340 -0.4028 -0.1548
 5637TIP3    H138326   5.780   0.788  14.754 -1.7881 -0.5916  1.5182
 5637TIP3    H238327   5.659   0.706  14.714  0.0800 -2.5436 -0.3303
 5638TIP3   OH238328   3.540   2.686  15.332  0.5181 -0.6162  0.3865
 5638TIP3    H138329   3.627   2.694  15.370  0.8782 -2.9403  0.1789
 5638TIP3    H238330   3.554   2.643  15.248 -0.8546 -1.8009  0.7098
 5639TIP3   OH238331   2.794   6.396  15.735 -0.2162 -0.3917 -0.3461
 5639TIP3    H138332   2.848   6.412  15.658  0.2719 -0.5189 -0.0338
 5639TIP3    H238333   2.704   6.393  15.702  0.1320 -2.5982 -1.2860
 5640TIP3   OH238334   3.351   2.461  12.199  0.8850  0.3523  0.1918
 5640TIP3    H138335   3.273   2.516  12.198  0.3560 -0.3727  0.1897
 5640TIP3    H238336   3.320   2.376  12.166  1.8698  0.3036 -0.6593
 5641TIP3   OH238337   1.521   2.927   0.172 -0.2894 -0.0641 -0.0063
 5641TIP3    H138338   1.508   2.917   0.077 -0.9765 -0.1603  0.0940
 5641TIP3    H238339   1.438   2.897   0.211  0.6307 -1.8091  0.7233
 5642TIP3   OH238340   0.172   3.531  14.418 -0.4437  0.8255  0.0717
 5642TIP3    H138341   0.096   3.540  14.361 -1.3162 -0.3012  0.9966
 5642TIP3    H238342   0.136   3.519  14.506  0.7198 -0.9260  0.3884
 5643TIP3   OH238343   2.971   4.983   4.692 -0.5275  0.2873 -0.4058
 5643TIP3    H138344   3.040   4.951   4.635  0.9483  0.2396  1.3376
 5643TIP3    H238345   2.994   5.075   4.708 -0.6402  0.1598  0.5113
 5644TIP3   OH238346   4.232   2.930   2.427 -0.2986 -0.4396 -0.0275
 5644TIP3    H138347   4.212   2.954   2.517 -1.2636  1.7548 -0.7345
 5644TIP3    H238348   4.269   3.010   2.389 -0.0885 -1.2572 -1.6232
 5645TIP3   OH238349   6.770   4.736   4.065 -0.2458  0.1364 -0.5326
 5645TIP3    H138350   6.778   4.678   3.989  0.3752  0.5062 -0.7523
 5645TIP3    H238351   6.761   4.676   4.140  2.8931 -0.3440 -0.4314
 5646TIP3   OH238352   5.763   0.992   0.069  0.6000 -0.6057 -0.0957
 5646TIP3    H138353   5.673   0.972   0.041  0.2759 -1.0803  1.2230
 5646TIP3    H238354   5.752   1.045   0.148  1.4800 -0.8309  0.1852
 5647TIP3   OH238355   0.415   6.316  12.731 -0.7646  0.5312 -0.0746
 5647TIP3    H138356   0.339   6.271  12.695 -0.0446 -0.6593 -0.1835
 5647TIP3    H238357   0.477   6.321  12.657  0.6943 -1.8601  0.8480
 5648TIP3   OH238358   0.503   6.138   5.093 -0.2597 -0.8562  0.3181
 5648TIP3    H138359   0.573   6.177   5.146 -0.4663 -1.8659  1.3745
 5648TIP3    H238360   0.423   6.151   5.144 -0.6996 -0.6192 -0.4059
 5649TIP3   OH238361   4.989   3.146  14.296 -0.0846  0.2418 -0.6099
 5649TIP3    H138362   5.007   3.239  14.311  0.9057  0.0859 -0.7667
 5649TIP3    H238363   5.065   3.115  14.246  0.4437 -1.0456  0.8956
 5650TIP3   OH238364   1.910   3.380   3.441  0.1201 -0.3787 -0.0730
 5650TIP3    H138365   1.859   3.340   3.512  1.2330 -1.1645  0.3042
 5650TIP3    H238366   1.893   3.324   3.365  0.8588 -0.9850  0.1976
 5651TIP3   OH238367   1.105   0.931   3.745  0.1702  0.0535 -0.4218
 5651TIP3    H138368   1.045   0.857   3.755 -0.5338  0.4218 -1.6719
 5651TIP3    H238369   1.086   0.988   3.820  0.2950 -0.7292  0.2165
 5652TIP3   OH238370   3.384   3.256   2.867  0.0117 -0.2119 -0.2391
 5652TIP3    H138371   3.420   3.282   2.782  0.4244 -1.7485 -0.5694
 5652TIP3    H238372   3.429   3.313   2.930  0.7397 -0.0025 -0.9293
 5653TIP3   OH238373   2.170   3.891   5.214 -0.0097 -0.1813  0.5937
 5653TIP3    H138374   2.170   3.971   5.266 -0.3628  0.3646 -0.2307
 5653TIP3    H238375   2.167   3.821   5.279 -0.3134  0.4803  1.3107
 5654TIP3   OH238376   5.279   2.646   5.023  0.3073  0.2935  0.1862
 5654TIP3    H138377   5.194   2.677   4.993 -0.0639 -1.4883 -0.7620
 5654TIP3    H238378   5.272   2.645   5.119 -1.5312 -1.7687  0.1010
 5655TIP3   OH238379   1.352   0.493   0.336 -0.4425  0.6554  0.7255
 5655TIP3    H138380   1.309   0.440   0.403  1.0250 -0.3059  0.9653
 5655TIP3    H238381   1.322   0.456   0.253 -1.0033  0.7822  0.8714
 5656TIP3   OH238382   5.025   3.462  15.782  0.7788 -0.3140 -0.0653
 5656TIP3    H138383   5.103   3.511  15.757  0.2650 -0.4549 -2.1238
 5656TIP3    H238384   5.043   3.372  15.753 -0.7361 -0.0269 -2.0856
 5657TIP3   OH238385   1.874   5.350   2.707  0.0050 -0.1274  0.6469
 5657TIP3    H138386   1.935   5.278   2.693  1.3889  1.2602 -0.8287
 5657TIP3    H238387   1.814   5.346   2.632 -0.3309 -0.1042  0.9082
 5658TIP3   OH238388   0.913   0.287   0.018 -0.0174  0.2702  0.0299
 5658TIP3    H138389   0.988   0.229   0.000 -1.4315 -1.5315 -0.3221
 5658TIP3    H238390   0.843   0.227   0.045 -1.9198  1.6941 -1.5059
 5659TIP3   OH238391   3.257   0.799  13.371 -0.3280 -0.1401  0.1789
 5659TIP3    H138392   3.187   0.734  13.367 -0.4912  0.1022 -1.1650
 5659TIP3    H238393   3.297   0.798  13.285 -0.8973  2.1398 -0.1988
 5660TIP3   OH238394   3.443   5.024  14.434 -0.6121 -0.8054 -0.2001
 5660TIP3    H138395   3.535   5.053  14.436 -0.5788 -0.9312  0.1382
 5660TIP3    H238396   3.416   5.039  14.343 -0.6816  0.5345  0.0189
 5661TIP3   OH238397   2.708   6.157  12.387  0.0002  0.3984 -0.2048
 5661TIP3    H138398   2.637   6.194  12.440 -1.8165  0.5400 -2.5562
 5661TIP3    H238399   2.786   6.205  12.415 -0.9275  0.7974  1.9268
 5662TIP3   OH238400   2.745   4.142  10.962  0.2312  0.2159  0.3820
 5662TIP3    H138401   2.762   4.234  10.984 -1.3027  1.2252 -2.0894
 5662TIP3    H238402   2.829   4.110  10.929  0.4263  1.2495 -0.1905
 5663TIP3   OH238403   3.067   3.300   6.154 -0.1376 -0.5227 -0.1579
 5663TIP3    H138404   3.018   3.374   6.191  0.8874 -0.3871  0.9994
 5663TIP3    H238405   3.153   3.305   6.196 -0.0032 -2.2934 -0.1586
 5664TIP3   OH238406   1.790   5.655   0.383  0.0077 -0.6877  0.4503
 5664TIP3    H138407   1.705   5.611   0.380 -0.0367 -0.6291  0.7678
 5664TIP3    H238408   1.819   5.644   0.474 -0.6173  1.0777  0.9177
 5665TIP3   OH238409   2.853   0.814  14.750  0.0415  0.0857  0.6397
 5665TIP3    H138410   2.796   0.752  14.704 -0.5801 -1.1939  2.9655
 5665TIP3    H238411   2.942   0.786  14.729 -0.2291 -1.7866  1.7548
 5666TIP3   OH238412   2.660   4.469  16.667  0.6156 -0.1246 -0.2019
 5666TIP3    H138413   2.733   4.530  16.671 -1.2330  2.2673 -0.7991
 5666TIP3    H238414   2.582   4.524  16.671 -1.2172 -2.5872  1.0568
 5667TIP3   OH238415   1.290   4.499   6.565 -0.4797  0.1827  0.4194
 5667TIP3    H138416   1.213   4.546   6.596 -1.8802 -1.1230 -0.9532
 5667TIP3    H238417   1.277   4.491   6.471 -0.1863 -2.6987  0.5422
 5668TIP3   OH238418   5.754   3.605  12.212  0.1566 -0.0837  0.2702
 5668TIP3    H138419   5.699   3.679  12.185  1.7656  0.7164 -1.0166
 5668TIP3    H238420   5.692   3.539  12.241 -1.4807  0.8597 -0.8806
 5669TIP3   OH238421   2.240   5.718  16.100 -0.4924 -0.1039 -0.3738
 5669TIP3    H138422   2.247   5.739  16.007  0.8479 -1.2235 -0.5580
 5669TIP3    H238423   2.197   5.632  16.102 -0.8647  0.0869  0.0745
 5670TIP3   OH238424   0.807   6.779  11.439  0.1164 -0.5183  0.1606
 5670TIP3    H138425   0.886   6.735  11.406  0.3690  0.5800 -0.7770
 5670TIP3    H238426   0.818   6.782  11.534  0.8125 -1.1052  0.1038
 5671TIP3   OH238427   6.156   6.597   1.778  0.1992  0.2211 -0.4299
 5671TIP3    H138428   6.084   6.542   1.748  0.6693  1.0351 -3.3624
 5671TIP3    H238429   6.231   6.570   1.724  1.6662  0.6031  1.3051
 5672TIP3   OH238430   4.519   5.780  13.135  0.5272 -0.0947 -0.1422
 5672TIP3    H138431   4.565   5.825  13.064 -0.9074  0.5760 -0.6815
 5672TIP3    H238432   4.510   5.689  13.105 -1.1348  0.4395 -1.4194
 5673TIP3   OH238433   6.386   1.752   4.938  0.2892  0.4754  0.3486
 5673TIP3    H138434   6.401   1.822   4.875 -2.0460  1.5519  0.8871
 5673TIP3    H238435   6.445   1.772   5.011  2.1237 -0.1100 -0.8878
 5674TIP3   OH238436   3.088   1.155  11.164 -0.0259 -0.0814 -0.0354
 5674TIP3    H138437   3.005   1.120  11.196 -1.5308  1.8259 -1.6062
 5674TIP3    H238438   3.115   1.094  11.095 -0.0180 -0.7774  0.5678
 5675TIP3   OH238439   1.310   4.771  13.412  0.1481 -0.0963  0.9168
 5675TIP3    H138440   1.379   4.813  13.463  0.6051  0.0461  0.1979
 5675TIP3    H238441   1.315   4.679  13.438  1.2356 -0.2614  0.2106
 5676TIP3   OH238442   2.352   5.348   1.317  0.1070  0.3618  0.5883
 5676TIP3    H138443   2.337   5.337   1.411 -0.8484 -0.6844  0.3350
 5676TIP3    H238444   2.280   5.403   1.287 -0.0241  0.0545  0.3360
 5677TIP3   OH238445   6.597   2.583  14.611  0.4260 -0.5394 -0.1024
 5677TIP3    H138446   6.573   2.569  14.519 -1.1500 -1.9615  0.4922
 5677TIP3    H238447   6.649   2.664  14.609 -0.0940 -0.1921 -2.1540
 5678TIP3   OH238448   1.486   1.983   3.041  0.5357 -0.1390  0.1054
 5678TIP3    H138449   1.547   2.002   2.971  0.0564 -2.2958 -0.9895
 5678TIP3    H238450   1.426   1.918   3.004 -0.2004 -0.7942  2.2732
 5679TIP3   OH238451   2.124   2.154   4.834 -0.3359 -0.1199  0.6162
 5679TIP3    H138452   2.185   2.208   4.783  0.8715 -1.7406  0.2740
 5679TIP3    H238453   2.086   2.094   4.770  0.8186 -1.8493  1.4639
 5680TIP3   OH238454   3.021   1.294  15.049 -0.0447  0.2872  0.2269
 5680TIP3    H138455   2.927   1.279  15.043 -0.5778  3.1574 -0.0882
 5680TIP3    H238456   3.036   1.314  15.142  0.4882 -1.1617  0.4839
 5681TIP3   OH238457   4.221   0.571   5.953 -0.1312  0.0413  0.0134
 5681TIP3    H138458   4.177   0.649   5.987  0.1466 -0.6972  2.2270
 5681TIP3    H238459   4.187   0.499   6.006  0.8139 -1.1127 -0.8959
 5682TIP3   OH238460   5.815   4.570  15.403 -0.0946  0.0745  0.6848
 5682TIP3    H138461   5.864   4.612  15.332  0.4017 -2.5295 -0.6654
 5682TIP3    H238462   5.871   4.496  15.430 -2.9074 -2.7316 -0.5477
 5683TIP3   OH238463   2.871   0.320   5.350  0.5997  0.6156  0.3974
 5683TIP3    H138464   2.920   0.344   5.272  2.3239 -0.8527  0.9500
 5683TIP3    H238465   2.804   0.258   5.319  1.9923 -0.8471  0.1696
 5684TIP3   OH238466   1.520   4.765  14.924 -0.8031  0.5595  0.3802
 5684TIP3    H138467   1.556   4.676  14.923 -0.1770  0.8073 -0.0182
 5684TIP3    H238468   1.551   4.802  15.007  1.7654  1.5011 -0.9009
 5685TIP3   OH238469   0.064   3.194  12.271  0.0006  0.1969  0.4913
 5685TIP3    H138470  -0.010   3.135  12.287  1.6172 -1.7015  1.3983
 5685TIP3    H238471   0.024   3.276  12.243 -2.3809 -1.4252 -1.2921
 5686TIP3   OH238472   2.872   5.552   2.184 -0.3224  0.5505  1.3594
 5686TIP3    H138473   2.860   5.507   2.268 -1.5623  0.7762  1.3268
 5686TIP3    H238474   2.783   5.570   2.154 -0.0205 -1.5194 -1.1036
 5687TIP3   OH238475   3.548   2.445  16.326 -0.1868 -0.0837 -0.2208
 5687TIP3    H138476   3.631   2.491  16.338 -0.9271  1.1944  0.2981
 5687TIP3    H238477   3.572   2.361  16.288  1.3237  0.3180 -0.2300
 5688TIP3   OH238478   3.835   3.750   4.343 -0.1369  0.1807  0.1377
 5688TIP3    H138479   3.839   3.799   4.425 -0.5724 -0.6568  0.6756
 5688TIP3    H238480   3.768   3.794   4.291  1.5903  2.0027 -0.6590
 5689TIP3   OH238481   3.380   2.925  16.420 -0.4947  0.3495 -0.8861
 5689TIP3    H138482   3.457   2.954  16.370  1.4510 -4.1785 -0.9600
 5689TIP3    H238483   3.390   2.968  16.505  1.5788  0.7045 -1.2386
 5690TIP3   OH238484   3.584   1.185   6.052  0.7313 -0.2261 -0.0393
 5690TIP3    H138485   3.523   1.123   6.011 -0.0706 -0.3442  1.2795
 5690TIP3    H238486   3.529   1.239   6.108  1.9355 -0.9166  1.8810
 5691TIP3   OH238487   2.642   0.412  15.392 -0.5304 -0.1015  0.3997
 5691TIP3    H138488   2.685   0.350  15.451 -2.8566 -1.0052  1.2493
 5691TIP3    H238489   2.662   0.498  15.429  1.0601 -0.4133  0.3648
 5692TIP3   OH238490   2.631   5.742  16.786 -0.6291  0.5663 -0.2106
 5692TIP3    H138491   2.708   5.684  16.788 -0.9334  0.1676  0.0080
 5692TIP3    H238492   2.593   5.728  16.700 -0.9192  0.1460 -0.0221
 5693TIP3   OH238493   6.606   3.193  12.836 -0.4980 -0.5093 -0.1082
 5693TIP3    H138494   6.519   3.160  12.814 -0.3698  0.3125 -2.0393
 5693TIP3    H238495   6.655   3.191  12.754 -0.1016  3.1613 -0.1287
 5694TIP3   OH238496   1.441   5.338  10.915  0.2400  0.4772  0.1735
 5694TIP3    H138497   1.427   5.351  11.009 -0.1654 -0.8963  0.3329
 5694TIP3    H238498   1.489   5.255  10.910 -1.4173 -0.4692 -0.9033
 5695TIP3   OH238499   3.856   4.904   2.658 -0.1892  0.4545  0.4487
 5695TIP3    H138500   3.793   4.900   2.731 -1.1945  1.6419 -0.3049
 5695TIP3    H238501   3.865   4.814   2.629 -2.6554  0.3520 -0.2786
 5696TIP3   OH238502   6.809   3.421  13.443 -0.8715  0.6520 -0.2729
 5696TIP3    H138503   6.750   3.479  13.491 -0.9796  1.0651 -0.8856
 5696TIP3    H238504   6.757   3.390  13.369 -0.2334  1.3003 -1.0230
 5697TIP3   OH238505   2.930   2.409   2.073 -0.0386 -0.0310 -0.1659
 5697TIP3    H138506   2.896   2.344   2.135 -1.7665  0.2462 -0.7643
 5697TIP3    H238507   2.985   2.359   2.013 -0.8957 -0.8689 -0.2784
 5698TIP3   OH238508   0.085   1.662  10.660 -0.2540 -0.4179  0.2908
 5698TIP3    H138509   0.163   1.711  10.687 -0.3488 -1.4830  2.7529
 5698TIP3    H238510   0.019   1.729  10.643  1.0710  0.4951 -1.6346
 5699TIP3   OH238511   4.884   0.302  14.115 -0.0551 -0.1685 -0.9814
 5699TIP3    H138512   4.948   0.278  14.048  1.5071 -0.5638  0.5607
 5699TIP3    H238513   4.926   0.372  14.165 -1.4894  0.6473 -0.8592
 5700TIP3   OH238514   3.506   5.381   0.548 -0.2263  0.2753 -0.7699
 5700TIP3    H138515   3.419   5.419   0.559 -0.6842 -0.6992 -0.9337
 5700TIP3    H238516   3.556   5.416   0.622 -0.6840  1.0323 -0.8079
 5701TIP3   OH238517   3.962   5.579   1.437  0.1116  0.7445 -0.3096
 5701TIP3    H138518   3.961   5.639   1.512  0.2283 -0.7498  0.9386
 5701TIP3    H238519   3.907   5.622   1.372 -0.9683  1.5554  1.0765
 5702TIP3   OH238520   0.940   0.765   3.404  0.5420 -0.0155 -0.0694
 5702TIP3    H138521   0.907   0.677   3.422 -1.6518  0.6802 -0.3286
 5702TIP3    H238522   0.957   0.765   3.310 -0.7474  0.1946 -0.3215
 5703TIP3   OH238523   3.208   0.720   5.408  0.4626  0.6854  0.8800
 5703TIP3    H138524   3.299   0.716   5.378  0.9101  3.1092  1.6700
 5703TIP3    H238525   3.213   0.766   5.492 -1.5522  1.6571  0.5295
 5704TIP3   OH238526   6.780   5.903   4.581  0.0780 -0.4615  0.3404
 5704TIP3    H138527   6.794   5.919   4.487  4.2155  1.9803  1.1078
 5704TIP3    H238528   6.858   5.853   4.608 -0.3183  0.1059  2.6964
 5705TIP3   OH238529   2.397   0.081  15.371  0.0648 -0.5522  0.1074
 5705TIP3    H138530   2.469   0.044  15.319 -0.9080 -0.9240 -1.0064
 5705TIP3    H238531   2.441   0.141  15.432  1.2272  0.2407 -1.4268
 5706TIP3   OH238532   3.735   6.655  14.175 -0.3399  0.1187 -0.3112
 5706TIP3    H138533   3.647   6.689  14.192 -0.8167  0.2469 -2.6545
 5706TIP3    H238534   3.793   6.730  14.185 -0.7976  0.5614 -0.8975
 5707TIP3   OH238535   5.477   2.229   2.645  0.9250  0.4516  0.1578
 5707TIP3    H138536   5.395   2.215   2.598 -0.7004  2.7961  1.9994
 5707TIP3    H238537   5.482   2.324   2.657  3.3357  0.2891  1.1206
 5708TIP3   OH238538   2.196   1.344  12.823 -0.5224 -0.5160 -0.0047
 5708TIP3    H138539   2.189   1.418  12.763 -1.3928 -1.0843 -0.6176
 5708TIP3    H238540   2.257   1.374  12.891  1.3502 -0.2354 -1.7166
 5709TIP3   OH238541   1.782   2.805   1.062  0.5069  0.5813  0.5113
 5709TIP3    H138542   1.870   2.770   1.050  1.0422  1.8841  0.5152
 5709TIP3    H238543   1.771   2.811   1.156 -0.1862 -0.9596  0.5761
 5710TIP3   OH238544   3.872   1.738   2.035 -0.2954 -0.2552 -0.3365
 5710TIP3    H138545   3.838   1.719   2.122 -0.1274 -0.2714 -0.2739
 5710TIP3    H238546   3.794   1.745   1.980 -0.3835 -0.5925 -0.2557
 5711TIP3   OH238547   1.055   2.106   4.185 -0.3506 -0.1940  0.1937
 5711TIP3    H138548   1.017   2.186   4.222 -0.4097  0.0419 -0.3642
 5711TIP3    H238549   0.985   2.040   4.194  0.4166 -0.7517  2.5388
 5712TIP3   OH238550   5.031   5.127  12.268 -0.1916 -0.1797 -0.0967
 5712TIP3    H138551   5.039   5.073  12.346 -0.9836  0.5244  0.4803
 5712TIP3    H238552   4.955   5.182  12.284  1.0494  1.6858 -0.3143
 5713TIP3   OH238553   4.541   4.129   3.970 -0.3030  0.0593 -0.7562
 5713TIP3    H138554   4.486   4.076   4.028  0.0326  0.6054  0.0751
 5713TIP3    H238555   4.613   4.071   3.945  0.5540  0.3506  0.8736
 5714TIP3   OH238556   4.380   0.644  15.077  0.2658  0.2566  0.3086
 5714TIP3    H138557   4.475   0.630  15.085  0.0076 -1.2081  1.2901
 5714TIP3    H238558   4.372   0.721  15.022  2.0602  1.4068  1.5310
 5715TIP3   OH238559   2.275   4.454   4.652  0.0367 -0.6805 -0.1523
 5715TIP3    H138560   2.304   4.365   4.672  1.9950  0.3909  2.2279
 5715TIP3    H238561   2.342   4.511   4.690 -0.4175  1.8600 -2.7463
 5716TIP3   OH238562   0.456   2.434  11.996 -0.1757 -0.3710  0.2286
 5716TIP3    H138563   0.372   2.471  11.968  0.1564 -0.7588 -1.3503
 5716TIP3    H238564   0.459   2.348  11.955  1.6426  0.2445 -1.0283
 5717TIP3   OH238565   5.811   0.550   5.305 -0.0513  0.8075  0.5112
 5717TIP3    H138566   5.836   0.463   5.336 -0.2594  1.2302  1.9255
 5717TIP3    H238567   5.895   0.594   5.287  0.3619  1.8696  4.2592
 5718TIP3   OH238568   4.569   1.321   5.530  0.1769 -0.3212 -0.3593
 5718TIP3    H138569   4.560   1.253   5.463 -0.5100  0.8346 -1.4950
 5718TIP3    H238570   4.509   1.295   5.600  0.4761 -1.2481 -0.4348
 5719TIP3   OH238571   6.556   2.583   0.372  0.2779  0.2378  0.4211
 5719TIP3    H138572   6.510   2.569   0.455  1.0124 -0.8601  0.6663
 5719TIP3    H238573   6.563   2.678   0.364 -0.0588  0.3674  1.4721
 5720TIP3   OH238574   3.874   4.431   0.135 -0.3242 -0.3467  0.8025
 5720TIP3    H138575   3.863   4.380   0.055 -0.2831  1.3131 -0.3099
 5720TIP3    H238576   3.875   4.366   0.205 -1.0738 -1.7923 -0.4723
 5721TIP3   OH238577   6.239   1.607  15.725  0.0665 -0.1385 -0.0352
 5721TIP3    H138578   6.283   1.568  15.800  1.0157  1.4276  0.2618
 5721TIP3    H238579   6.167   1.657  15.763  0.7746  0.9610 -0.1244
 5722TIP3   OH238580   3.404   2.662  16.470  0.1326  0.0291 -0.4253
 5722TIP3    H138581   3.419   2.619  16.386  0.6768  1.0175 -0.8582
 5722TIP3    H238582   3.369   2.748  16.447 -2.1967 -0.6194  0.4542
 5723TIP3   OH238583   5.420   5.835   4.128  0.0910 -0.6074 -0.0845
 5723TIP3    H138584   5.515   5.823   4.121  0.0564 -0.7813 -0.2678
 5723TIP3    H238585   5.409   5.919   4.172  0.3222 -0.2385 -0.7241
 5724TIP3   OH238586   2.789   1.666  12.342 -0.5153  0.0793 -0.1635
 5724TIP3    H138587   2.853   1.631  12.280  0.3179 -0.4341  0.9411
 5724TIP3    H238588   2.721   1.599  12.347 -1.4163  0.8155 -1.6671
 5725TIP3   OH238589   0.790   4.045   2.679 -0.7884  0.4066  0.2865
 5725TIP3    H138590   0.784   4.111   2.610 -0.0142  1.1652  0.9099
 5725TIP3    H238591   0.854   3.982   2.647 -2.2409 -0.6075 -0.7355
 5726TIP3   OH238592   6.513   6.171  11.174 -0.0935  0.2866  0.3657
 5726TIP3    H138593   6.486   6.262  11.165  0.1127  0.5984  2.3247
 5726TIP3    H238594   6.609   6.175  11.178 -0.1130  0.1215  1.3704
 5727TIP3   OH238595   5.055   1.122  16.614 -0.5783 -0.5515  0.5771
 5727TIP3    H138596   4.987   1.142  16.550 -0.1245 -1.1255 -0.1086
 5727TIP3    H238597   5.107   1.053  16.573 -0.2905 -0.9549  1.5854
 5728TIP3   OH238598   0.976   4.813   3.701 -0.1963 -0.4911 -0.1023
 5728TIP3    H138599   0.993   4.877   3.633  1.0369 -1.0702 -0.3792
 5728TIP3    H238600   0.940   4.863   3.774 -1.8626  0.0906 -1.2719
 5729TIP3   OH238601   4.295   6.320  10.593 -0.3267 -0.2901  0.2698
 5729TIP3    H138602   4.372   6.280  10.633 -1.0789 -1.8057  0.2997
 5729TIP3    H238603   4.303   6.300  10.500  0.4383  1.5365 -0.0874
 5730TIP3   OH238604   3.494   3.547   0.303 -0.3623  0.2329 -0.0077
 5730TIP3    H138605   3.504   3.639   0.276 -0.1989  1.1500  2.8903
 5730TIP3    H238606   3.401   3.528   0.287 -0.1771  0.5317 -1.5877
 5731TIP3   OH238607   1.203   1.737  16.628  0.0189 -0.1984  0.4828
 5731TIP3    H138608   1.238   1.667  16.684  0.5092 -0.4842 -0.1662
 5731TIP3    H238609   1.221   1.817  16.676  2.3052 -0.2683 -0.1769
 5732TIP3   OH238610   1.688   1.938  15.919  0.5827 -0.1460  0.0913
 5732TIP3    H138611   1.595   1.916  15.924  0.3992  0.3383 -0.9284
 5732TIP3    H238612   1.732   1.853  15.918  0.2248 -0.3641  1.5611
 5733TIP3   OH238613   0.121   4.505  14.099  0.2344 -0.4227  0.3013
 5733TIP3    H138614   0.191   4.440  14.089  0.3547 -0.2820  0.2382
 5733TIP3    H238615   0.054   4.459  14.151  0.7380 -0.2782  1.1024
 5734TIP3   OH238616   0.220   4.192  14.530  0.3810  0.3554  0.1277
 5734TIP3    H138617   0.266   4.197  14.446  3.7561 -0.5394  1.7584
 5734TIP3    H238618   0.128   4.190  14.506  1.1037  1.7126 -3.4604
 5735TIP3   OH238619   6.533   0.299   1.007 -0.1604  0.3958 -0.6906
 5735TIP3    H138620   6.468   0.320   0.941 -2.5643 -1.4421  0.9281
 5735TIP3    H238621   6.492   0.233   1.062  2.7092 -0.1043  1.0938
 5736TIP3   OH238622   1.331   5.741  11.349  0.3736 -0.4328  0.4573
 5736TIP3    H138623   1.259   5.800  11.326 -0.3145 -1.5021 -0.2287
 5736TIP3    H238624   1.392   5.796  11.398 -1.1479  0.3835  1.5127
 5737TIP3   OH238625   3.875   6.103   4.973  0.8390 -0.2894 -0.1507
 5737TIP3    H138626   3.944   6.140   5.027 -0.8476 -1.4481  3.0645
 5737TIP3    H238627   3.812   6.068   5.035 -2.0421 -0.4661 -2.9091
 5738TIP3   OH238628   5.500   1.102  16.618  0.4492  0.0186 -0.5204
 5738TIP3    H138629   5.567   1.036  16.602  1.3872  0.6146  0.8099
 5738TIP3    H238630   5.459   1.076  16.700  0.5193  0.8279 -0.2150
 5739TIP3   OH238631   6.135   3.481  11.550  0.0241 -0.2419  0.0838
 5739TIP3    H138632   6.143   3.401  11.603  1.5231 -0.2604 -0.1360
 5739TIP3    H238633   6.087   3.453  11.472  1.5245 -1.2357 -0.5296
 5740TIP3   OH238634   0.639   0.402  12.508  0.4639 -0.5937 -0.3699
 5740TIP3    H138635   0.545   0.418  12.498  0.2212 -0.8963  1.2339
 5740TIP3    H238636   0.648   0.308  12.493  0.2896 -0.8159  0.8482
 5741TIP3   OH238637   5.583   4.482   2.327  0.1880  0.3088 -0.4024
 5741TIP3    H138638   5.505   4.443   2.287 -0.1559 -0.0186  0.5664
 5741TIP3    H238639   5.622   4.412   2.378  0.4763  0.7891  0.0455
 5742TIP3   OH238640   1.324   5.011   4.792  0.5742  0.6866 -0.0626
 5742TIP3    H138641   1.336   5.033   4.884 -0.4647  0.4977  0.1215
 5742TIP3    H238642   1.236   4.973   4.787  0.4413  1.1215 -1.2077
 5743TIP3   OH238643   3.650   5.253   3.708  0.4105  0.3606  0.4914
 5743TIP3    H138644   3.708   5.289   3.775  0.1341 -0.8097  1.3923
 5743TIP3    H238645   3.708   5.216   3.642  0.6784  0.6113  0.5833
 5744TIP3   OH238646   6.346   2.910  14.191  0.3579 -0.2136  0.4427
 5744TIP3    H138647   6.268   2.917  14.137 -0.4583  3.2451  1.7654
 5744TIP3    H238648   6.418   2.935  14.133 -0.3104  1.9421  0.4437
 5745TIP3   OH238649   3.436   5.341  14.276 -0.0341 -0.4474 -0.2776
 5745TIP3    H138650   3.408   5.392  14.200  0.3002  0.6047  0.2902
 5745TIP3    H238651   3.420   5.250  14.251 -0.8663 -0.0619 -1.2228
 5746TIP3   OH238652   1.510   5.901   3.045 -0.5580  0.6038 -0.4073
 5746TIP3    H138653   1.438   5.863   3.096  1.5474 -2.1989  0.6970
 5746TIP3    H238654   1.522   5.988   3.084 -1.9495  0.3075  0.7891
 5747TIP3   OH238655   4.940   2.441   1.225  0.0358  0.3397 -0.2012
 5747TIP3    H138656   4.903   2.413   1.142 -1.6614  2.4900 -0.2654
 5747TIP3    H238657   4.912   2.375   1.289 -0.5815 -0.1280 -0.9462
 5748TIP3   OH238658   2.829   6.026   0.896 -0.1680  0.1615 -0.3740
 5748TIP3    H138659   2.921   6.046   0.879  0.2167  0.2931  1.6723
 5748TIP3    H238660   2.812   6.058   0.984 -1.6621 -1.5668  0.0415
 5749TIP3   OH238661   5.553   2.405   3.274 -0.2467  0.5866  0.3365
 5749TIP3    H138662   5.569   2.432   3.184 -2.6715  0.0542 -0.3479
 5749TIP3    H238663   5.592   2.474   3.328  0.7271  1.2155 -1.1179
 5750TIP3   OH238664   6.344   0.123   6.318  0.1445  0.1047  0.5282
 5750TIP3    H138665   6.407   0.127   6.390 -0.5119 -0.6621  1.1633
 5750TIP3    H238666   6.338   0.030   6.296 -0.6689  0.1869  0.3802
 5751TIP3   OH238667   6.725   4.338   0.296  0.5116  0.3523 -0.1420
 5751TIP3    H138668   6.764   4.291   0.369 -1.7515  0.1006  0.9725
 5751TIP3    H238669   6.736   4.279   0.221  1.6928  0.0540  0.2386
 5752TIP3   OH238670   2.846   6.470   1.669  0.9220  0.2690 -0.1198
 5752TIP3    H138671   2.925   6.466   1.723  1.6258  0.8268 -1.0875
 5752TIP3    H238672   2.878   6.485   1.580 -0.3352  2.1780 -0.3004
 5753TIP3   OH238673   0.916   2.404  10.679  0.3518 -0.1245 -0.2157
 5753TIP3    H138674   0.977   2.471  10.648  1.4489 -0.4756  1.0540
 5753TIP3    H238675   0.889   2.357  10.600 -1.0825  2.2690 -1.2366
 5754TIP3   OH238676   5.807   1.727   4.833 -0.4531 -0.0332  0.3378
 5754TIP3    H138677   5.894   1.729   4.794 -0.8213  1.2927 -0.4766
 5754TIP3    H238678   5.755   1.671   4.775 -0.2358 -0.5577  0.6436
 5755TIP3   OH238679   3.246   2.603   0.970 -0.1869  0.3355  0.0956
 5755TIP3    H138680   3.315   2.638   1.027  0.9463 -0.3205 -0.8256
 5755TIP3    H238681   3.204   2.680   0.932  0.5130  0.7442  0.1390
 5756TIP3   OH238682   2.384   2.595   0.918 -0.4315 -0.0351  0.0230
 5756TIP3    H138683   2.442   2.618   0.846 -1.8240  2.3184 -0.4426
 5756TIP3    H238684   2.323   2.668   0.925 -1.4094 -0.9567  2.5203
 5757TIP3   OH238685   4.567   5.448   5.430 -0.3212 -0.4153  0.1439
 5757TIP3    H138686   4.511   5.373   5.450  0.3155 -0.7624  0.6780
 5757TIP3    H238687   4.531   5.485   5.350  1.0403 -3.0204 -1.8244
 5758TIP3   OH238688   1.629   0.122   5.114 -0.1003  0.2558  0.1220
 5758TIP3    H138689   1.559   0.088   5.059 -0.6263  1.0253  0.2914
 5758TIP3    H238690   1.586   0.187   5.171  0.6012  0.1761  0.7707
 5759TIP3   OH238691   0.689   5.863  15.641  0.3222 -0.1056  0.5687
 5759TIP3    H138692   0.670   5.893  15.552  0.6010  0.4161  0.6782
 5759TIP3    H238693   0.603   5.855  15.682 -0.0023 -2.6950 -0.4520
 5760TIP3   OH238694   0.991   3.160  16.417 -0.4210 -0.2354  0.2180
 5760TIP3    H138695   1.076   3.187  16.451  1.0273 -1.9410 -1.7339
 5760TIP3    H238696   0.972   3.222  16.347 -0.5648 -0.1086  0.3692
 5761TIP3   OH238697   3.878   0.935   4.246 -1.0837  0.8882 -0.1774
 5761TIP3    H138698   3.841   0.856   4.206  1.7644 -1.2067  0.9947
 5761TIP3    H238699   3.837   0.939   4.333 -0.4874  0.0544  0.1561
 5762TIP3   OH238700   2.194   2.811  12.116  0.0744 -0.0856 -0.0107
 5762TIP3    H138701   2.125   2.767  12.067 -0.9702  1.3621  0.0777
 5762TIP3    H238702   2.251   2.741  12.147 -1.1442 -1.2898 -0.4230
 5763TIP3   OH238703   1.445   5.083   1.460  0.4238  0.2204 -0.1954
 5763TIP3    H138704   1.387   5.021   1.414  1.0339 -2.5762  2.4701
 5763TIP3    H238705   1.387   5.127   1.523  0.2012  1.7073 -1.3797
 5764TIP3   OH238706   6.261   6.446   2.163  0.1473  0.5129 -0.2643
 5764TIP3    H138707   6.167   6.429   2.168  0.3329 -0.3400  0.7294
 5764TIP3    H238708   6.296   6.371   2.115  0.3352  0.7936 -0.5695
 5765TIP3   OH238709   3.756   4.895   1.207  0.8209 -0.5074 -0.8608
 5765TIP3    H138710   3.811   4.864   1.279 -1.0402 -4.3816 -0.8970
 5765TIP3    H238711   3.813   4.894   1.130  2.0333  0.8808 -0.0510
 5766TIP3   OH238712   3.814   3.195  15.294  0.2729 -0.6981  0.2281
 5766TIP3    H138713   3.853   3.126  15.347  1.2545  1.1258  2.0682
 5766TIP3    H238714   3.781   3.258  15.358  1.2596  1.5016 -1.2855
 5767TIP3   OH238715   6.712   5.255  12.401  0.1392 -0.1668  0.4060
 5767TIP3    H138716   6.792   5.234  12.352  0.0552 -0.2453  0.3021
 5767TIP3    H238717   6.743   5.303  12.478  0.2197  0.5025 -0.0403
 5768TIP3   OH238718   5.579   1.835   1.998  0.0782  0.1260  0.6545
 5768TIP3    H138719   5.493   1.844   2.039 -0.0151 -0.3680  0.5750
 5768TIP3    H238720   5.640   1.832   2.071 -0.2030 -2.1574  0.8671
 5769TIP3   OH238721   6.130   6.558  15.972  0.1730 -0.1310 -0.1173
 5769TIP3    H138722   6.062   6.505  16.012 -2.0216  2.7234  0.2340
 5769TIP3    H238723   6.197   6.568  16.040 -0.2922 -0.8128  0.4510
 5770TIP3   OH238724   0.081   3.763   1.686  0.0374  0.1942 -0.4675
 5770TIP3    H138725   0.133   3.844   1.683  0.9128  0.0110  3.3749
 5770TIP3    H238726  -0.008   3.792   1.704 -0.2219  0.3447 -1.9092
 5771TIP3   OH238727   5.101   4.265  12.949  0.4746 -0.0142  0.3872
 5771TIP3    H138728   5.191   4.235  12.958 -0.0474 -2.5126 -1.7318
 5771TIP3    H238729   5.064   4.256  13.037  1.7731 -0.7417  0.8845
 5772TIP3   OH238730   4.033   2.017   4.492  0.5913  0.1241  0.7049
 5772TIP3    H138731   4.019   2.059   4.577 -0.1017  0.1823  0.5701
 5772TIP3    H238732   4.124   2.037   4.469  1.2711 -1.1328  2.1059
 5773TIP3   OH238733   0.267   2.238  12.122  0.0251  0.1962  0.0803
 5773TIP3    H138734   0.235   2.328  12.123  0.5638  0.4532  3.0357
 5773TIP3    H238735   0.217   2.194  12.191  0.3525 -1.5802 -0.7448
 5774TIP3   OH238736   4.516   4.693   1.864 -0.6652  0.0171  0.7996
 5774TIP3    H138737   4.467   4.767   1.829 -0.1110  0.3679  0.7671
 5774TIP3    H238738   4.503   4.699   1.958  0.9580  1.2975  0.9776
 5775TIP3   OH238739   5.311   6.517  14.577  0.3746 -0.4172  0.4115
 5775TIP3    H138740   5.277   6.518  14.488  2.5240  1.4582 -0.5031
 5775TIP3    H238741   5.321   6.610  14.599  2.0302 -0.8606  1.7163
 5776TIP3   OH238742   2.476   1.266   0.519  0.1777  0.0206  0.6337
 5776TIP3    H138743   2.418   1.307   0.456  0.2563 -0.4472  0.2449
 5776TIP3    H238744   2.418   1.215   0.576  0.3261 -2.2321 -1.0959
 5777TIP3   OH238745   1.142   3.787   4.213 -0.1110  0.3441 -0.4221
 5777TIP3    H138746   1.191   3.807   4.293 -0.0962 -0.5681 -0.1892
 5777TIP3    H238747   1.050   3.797   4.239 -0.0842  0.9998 -0.5643
 5778TIP3   OH238748   2.482   4.539  16.027 -0.2316 -0.0547 -0.0983
 5778TIP3    H138749   2.491   4.483  15.950 -0.6771  1.1537 -1.0620
 5778TIP3    H238750   2.568   4.582  16.036  0.4876 -1.6703  1.3176
 5779TIP3   OH238751   5.050   3.163   6.568  0.1891 -0.6581 -0.7048
 5779TIP3    H138752   4.975   3.116   6.532 -0.1836 -0.1531 -0.5999
 5779TIP3    H238753   5.071   3.229   6.501  1.0046 -1.2665 -1.0663
 5780TIP3   OH238754   4.992   3.184  11.733  0.1673  0.2170 -0.5633
 5780TIP3    H138755   4.920   3.202  11.794  1.1122 -0.0294  0.6693
 5780TIP3    H238756   5.060   3.247  11.757  0.1400  0.9241 -2.1802
 5781TIP3   OH238757   2.163   2.299  12.152  0.1683  0.0845  0.6242
 5781TIP3    H138758   2.156   2.280  12.246 -0.4092  0.4766  0.6647
 5781TIP3    H238759   2.101   2.370  12.138 -2.4591 -2.2673 -0.7317
 5782TIP3   OH238760   3.503   6.743  10.739 -0.3357 -0.5502 -1.1923
 5782TIP3    H138761   3.594   6.719  10.754 -0.3714 -0.5913 -1.0391
 5782TIP3    H238762   3.461   6.732  10.825 -0.3201  0.1896 -1.0806
 5783TIP3   OH238763   5.359   4.560   0.517  0.0411  0.0233 -0.0994
 5783TIP3    H138764   5.295   4.557   0.588  0.5088  1.7249  0.4352
 5783TIP3    H238765   5.360   4.471   0.482 -3.0767  0.0823 -0.5841
 5784TIP3   OH238766   5.984   1.033  14.695 -0.1243  0.5174  0.5272
 5784TIP3    H138767   6.007   0.964  14.757  0.3054 -1.9356 -2.1661
 5784TIP3    H238768   6.052   1.100  14.708 -0.0512  0.1146  2.6278
 5785TIP3   OH238769   4.343   3.278   3.301 -0.5883  0.1022  0.8348
 5785TIP3    H138770   4.300   3.237   3.226 -1.0384  0.7842  0.7105
 5785TIP3    H238771   4.283   3.348   3.327  1.1060  2.0975 -0.2947
 5786TIP3   OH238772   6.698   2.727   6.613 -0.7494 -0.0371  0.5380
 5786TIP3    H138773   6.607   2.711   6.590 -0.6641  0.0210  0.1442
 5786TIP3    H238774   6.735   2.641   6.629 -0.1919 -0.3262 -1.9420
 5787TIP3   OH238775   5.346   1.659  11.679  0.0780  0.0643  0.0912
 5787TIP3    H138776   5.332   1.730  11.616 -1.5194 -1.1511 -0.9967
 5787TIP3    H238777   5.277   1.596  11.660  1.3586 -1.7331  1.1109
 5788TIP3   OH238778   0.188   2.113   5.446  0.0346  0.0986  0.4461
 5788TIP3    H138779   0.283   2.100   5.442  0.0425  0.2018  0.2613
 5788TIP3    H238780   0.164   2.088   5.535  0.5505  2.0766  1.2100
 5789TIP3   OH238781   4.645   5.669   2.940  0.2606 -0.2229  0.1806
 5789TIP3    H138782   4.584   5.596   2.931 -1.5167  1.1157  0.7362
 5789TIP3    H238783   4.680   5.661   3.029 -0.5741  0.0603  0.5423
 5790TIP3   OH238784   0.778   5.152   2.808 -0.1033 -0.9727 -0.0511
 5790TIP3    H138785   0.725   5.220   2.767 -0.3400  0.5914  2.6670
 5790TIP3    H238786   0.835   5.199   2.869  1.7202 -2.9827 -0.0528
 5791TIP3   OH238787   6.591   0.796  14.037 -0.1715 -0.0338 -0.4482
 5791TIP3    H138788   6.610   0.780  13.945 -0.3260 -0.2540 -0.4419
 5791TIP3    H238789   6.669   0.764  14.084 -0.3421 -0.4632 -0.4593
 5792TIP3   OH238790   5.412   4.814  14.200 -0.2536  0.4909  0.0515
 5792TIP3    H138791   5.334   4.789  14.249  1.0575 -1.3295  1.3209
 5792TIP3    H238792   5.431   4.739  14.144  0.5310  0.9500 -0.3301
 5793TIP3   OH238793   2.926   5.202   0.533 -0.4196 -0.0453 -0.0916
 5793TIP3    H138794   2.834   5.202   0.561 -0.5418 -1.4652 -0.4079
 5793TIP3    H238795   2.955   5.112   0.547  0.0161 -0.4204 -2.8851
 5794TIP3   OH238796   0.334   1.421  14.808  0.6736  0.2102  0.7355
 5794TIP3    H138797   0.292   1.497  14.848  1.2054  0.5286  0.7090
 5794TIP3    H238798   0.297   1.416  14.720  3.7468  3.1711 -1.0007
 5795TIP3   OH238799   0.868   3.540   5.530 -0.5863  0.0642  0.2939
 5795TIP3    H138800   0.898   3.464   5.480 -0.7818 -1.9766  3.0469
 5795TIP3    H238801   0.774   3.544   5.512 -0.0760  2.1124 -2.7665
 5796TIP3   OH238802   1.951   2.479   1.369 -0.5840  0.5811 -0.3312
 5796TIP3    H138803   1.997   2.563   1.365  0.1708  0.2354  0.6057
 5796TIP3    H238804   1.859   2.502   1.380 -0.1476  1.3432  2.4702
 5797TIP3   OH238805   2.018   1.172   2.800 -0.2284  0.0120  0.3172
 5797TIP3    H138806   1.983   1.258   2.823 -0.7048  0.1209 -0.7195
 5797TIP3    H238807   1.944   1.112   2.812 -0.2369 -0.0589 -0.0500
 5798TIP3   OH238808   5.461   6.661   2.886 -0.2005 -0.3137 -0.1855
 5798TIP3    H138809   5.547   6.644   2.925 -0.1194 -0.5278 -0.4562
 5798TIP3    H238810   5.479   6.677   2.794 -0.5156 -0.9839 -0.3698
 5799TIP3   OH238811   6.771   0.237   0.037  0.3320  0.1751  0.1335
 5799TIP3    H138812   6.709   0.266   0.105 -0.5081 -0.4740 -0.3353
 5799TIP3    H238813   6.797   0.150   0.065  0.9835  0.4101  0.2779
 5800TIP3   OH238814   2.350   5.374   1.615 -0.2169  0.5537 -0.0256
 5800TIP3    H138815   2.303   5.432   1.675  0.3016 -0.0044  0.9475
 5800TIP3    H238816   2.441   5.400   1.623  0.2703 -1.3384  1.6253
 5801TIP3   OH238817   3.104   0.239   4.425  0.3565 -0.6037 -0.1512
 5801TIP3    H138818   3.060   0.229   4.510  1.5526 -1.1999  0.4338
 5801TIP3    H238819   3.085   0.328   4.398  0.8404 -0.0315  1.2845
 5802TIP3   OH238820   1.181   5.617  13.432 -0.2102 -0.0521  0.9338
 5802TIP3    H138821   1.275   5.629  13.443 -0.1364 -0.6615  1.0221
 5802TIP3    H238822   1.171   5.592  13.340 -0.6260  3.1245 -0.0074
 5803TIP3   OH238823   1.111   6.066  15.466 -0.4616 -0.6908  0.0265
 5803TIP3    H138824   1.164   6.027  15.397 -1.7701  0.0463 -1.4665
 5803TIP3    H238825   1.172   6.122  15.515  0.4832 -1.2362 -0.5021
 5804TIP3   OH238826   1.811   2.681   2.899  0.1022  0.7000  0.0699
 5804TIP3    H138827   1.883   2.682   2.962  1.4159  2.5268 -1.3484
 5804TIP3    H238828   1.789   2.773   2.886 -1.1480  0.2871 -1.0160
 5805TIP3   OH238829   4.712   3.325   4.344 -0.1864 -0.0507 -0.3316
 5805TIP3    H138830   4.636   3.286   4.387  0.7255 -0.5033  0.9244
 5805TIP3    H238831   4.786   3.302   4.400  1.0424 -0.5045 -2.0640
 5806TIP3   OH238832   4.574   5.667  13.727 -0.5002  0.1986  0.1653
 5806TIP3    H138833   4.573   5.683  13.633  0.6204 -0.3427  0.0458
 5806TIP3    H238834   4.553   5.574  13.736  1.1368 -0.1868  0.3167
 5807TIP3   OH238835   2.732   1.609   0.519 -0.2736 -0.5258 -0.1877
 5807TIP3    H138836   2.783   1.671   0.571 -0.6423  0.9593 -1.5314
 5807TIP3    H238837   2.730   1.646   0.431 -1.1293 -2.0873 -0.8818
 5808TIP3   OH238838   6.458   0.520   1.611 -0.1425 -0.2454  0.0931
 5808TIP3    H138839   6.430   0.579   1.681 -0.6343  0.4021 -0.6358
 5808TIP3    H238840   6.549   0.543   1.595  0.5007 -1.5073  1.6129
 5809TIP3   OH238841   4.897   5.671  11.457 -0.0816  0.0650  0.6881
 5809TIP3    H138842   4.933   5.755  11.482  1.7503 -0.9491  1.6262
 5809TIP3    H238843   4.971   5.622  11.421 -1.2907 -0.8373 -0.7058
 5810TIP3   OH238844   4.369   6.529   3.163  0.6674  0.2095  0.4037
 5810TIP3    H138845   4.320   6.609   3.139 -0.3675 -0.2311  0.9770
 5810TIP3    H238846   4.309   6.458   3.143  2.1577 -0.5720 -1.5730
 5811TIP3   OH238847   0.076   1.238   4.885 -0.0966 -0.1524 -0.3543
 5811TIP3    H138848   0.139   1.167   4.877 -0.2086 -0.1818 -1.0395
 5811TIP3    H238849   0.113   1.296   4.952  0.2737 -0.5627 -0.2016
 5812TIP3   OH238850   0.640   4.222  12.846 -0.0728  0.0647 -0.1391
 5812TIP3    H138851   0.725   4.264  12.837  0.8193 -2.0483 -3.1409
 5812TIP3    H238852   0.659   4.128  12.845 -2.3766 -0.4777  0.0482
 5813TIP3   OH238853   0.441   0.821  15.426 -1.3421 -0.2286  0.3368
 5813TIP3    H138854   0.398   0.778  15.499 -0.6505 -2.6537 -0.5792
 5813TIP3    H238855   0.529   0.783  15.423 -1.4436 -0.4525 -1.8991
 5814TIP3   OH238856   4.442   4.029  11.852  0.4469 -0.0460  0.4409
 5814TIP3    H138857   4.494   4.098  11.893 -0.0518  1.1510 -0.8589
 5814TIP3    H238858   4.507   3.975  11.806  0.7111  0.4587  0.2058
 5815TIP3   OH238859   5.668   0.551  13.136 -0.9030 -0.5828 -0.4028
 5815TIP3    H138860   5.658   0.480  13.199  0.5786 -0.4209  0.0527
 5815TIP3    H238861   5.578   0.577  13.115 -1.4345 -1.0332  1.1830
 5816TIP3   OH238862   6.460   2.098   2.145 -0.0372 -0.4834 -0.0047
 5816TIP3    H138863   6.405   2.025   2.172  0.9338 -0.7083  1.4235
 5816TIP3    H238864   6.494   2.072   2.059  2.2213 -2.8735  1.4903
 5817TIP3   OH238865   3.958   1.492  12.378 -0.0189  0.0646  1.0794
 5817TIP3    H138866   3.985   1.483  12.470  1.4685  0.4092  0.7100
 5817TIP3    H238867   4.040   1.492  12.329 -0.8407 -1.6263 -0.4136
 5818TIP3   OH238868   0.168   2.467   0.708 -0.5251  0.3445  0.0446
 5818TIP3    H138869   0.079   2.489   0.680 -1.5592 -2.6196  0.5991
 5818TIP3    H238870   0.163   2.464   0.804 -0.1087 -0.6661  0.0538
 5819TIP3   OH238871   4.001   3.280   5.460 -0.4077 -0.1747 -0.0036
 5819TIP3    H138872   4.036   3.332   5.532  0.4126 -1.2817  0.4329
 5819TIP3    H238873   3.932   3.334   5.422 -0.9737  0.3737  1.7180
 5820TIP3   OH238874   5.643   2.904   3.865 -0.5030  0.6917 -0.0525
 5820TIP3    H138875   5.673   2.911   3.955  0.9304  1.8883 -0.5965
 5820TIP3    H238876   5.649   2.810   3.845  1.8078  0.7220  0.2545
 5821TIP3   OH238877   5.714   2.093   1.869  0.0054 -0.1012 -0.2909
 5821TIP3    H138878   5.762   2.011   1.864  1.0204  0.5287 -1.3938
 5821TIP3    H238879   5.642   2.083   1.807  0.6178  0.1198 -1.0647
 5822TIP3   OH238880   5.896   1.476  13.047 -0.0774  0.4944  0.1736
 5822TIP3    H138881   5.892   1.524  12.964  0.4307 -3.0324 -2.1215
 5822TIP3    H238882   5.804   1.464  13.072 -0.2245  1.8591  0.3787
 5823TIP3   OH238883   0.200   1.836   2.343 -0.0806 -0.3989  0.8583
 5823TIP3    H138884   0.225   1.755   2.300 -2.6982 -0.4290 -0.8704
 5823TIP3    H238885   0.198   1.901   2.272  1.5004  1.0908  2.1188
 5824TIP3   OH238886   0.077   3.851   3.345  0.1346  0.0946 -0.3799
 5824TIP3    H138887   0.111   3.937   3.369 -0.5743  0.3210 -0.1619
 5824TIP3    H238888   0.016   3.829   3.416 -0.8192  0.0764 -1.1878
 5825TIP3   OH238889   1.820   5.498  12.328  0.1166  0.7851  0.2600
 5825TIP3    H138890   1.875   5.571  12.356  1.8297 -0.3375 -0.0940
 5825TIP3    H238891   1.857   5.470  12.244 -1.0576  0.0383 -0.0391
 5826TIP3   OH238892   6.207   4.702  10.556 -0.3030  0.1396 -0.7331
 5826TIP3    H138893   6.282   4.726  10.502  0.8412  2.1949  1.5471
 5826TIP3    H238894   6.227   4.613  10.587  0.4106  0.0590 -1.4015
 5827TIP3   OH238895   2.615   6.697  11.517  0.3923  0.0172  0.0285
 5827TIP3    H138896   2.650   6.784  11.497 -1.1332  0.6237 -0.1238
 5827TIP3    H238897   2.616   6.652  11.432  3.6333 -1.1172  0.5223
 5828TIP3   OH238898   1.189   0.830  14.628  0.7798 -0.0202 -0.0149
 5828TIP3    H138899   1.201   0.820  14.533 -0.1179 -0.2299 -0.1072
 5828TIP3    H238900   1.180   0.741  14.661 -0.9872  0.1158 -0.0249
 5829TIP3   OH238901   3.191   2.397   1.148  0.1615  0.3445  0.0086
 5829TIP3    H138902   3.203   2.472   1.088  1.3620  0.2386  0.0834
 5829TIP3    H238903   3.099   2.375   1.140  0.1927  0.6242 -1.4732
 5830TIP3   OH238904   0.045   6.730   0.631  0.7340  0.2512  0.0655
 5830TIP3    H138905   0.107   6.794   0.595 -0.2168  1.7446  0.9772
 5830TIP3    H238906   0.028   6.760   0.720  0.0743 -1.1607  0.4457
 5831TIP3   OH238907   6.237   0.779  12.045  0.4898 -0.3153  0.1793
 5831TIP3    H138908   6.316   0.765  12.097 -0.1389  0.1210  1.2858
 5831TIP3    H238909   6.217   0.693  12.008  1.7892 -0.3031 -0.5817
 5832TIP3   OH238910   3.689   2.831  12.254  0.2846  0.3976  0.8147
 5832TIP3    H138911   3.691   2.757  12.314  1.4244 -0.3317 -0.0794
 5832TIP3    H238912   3.735   2.901  12.300 -1.0274  0.6612  1.7692
 5833TIP3   OH238913   0.241   6.097  16.511  0.2494 -0.4089  0.1134
 5833TIP3    H138914   0.223   6.097  16.417 -0.6772  0.6227  0.2644
 5833TIP3    H238915   0.168   6.048  16.550 -0.8484  1.4255  0.4930
 5834TIP3   OH238916   4.709   4.362  13.400 -0.1096  0.0872  0.3585
 5834TIP3    H138917   4.722   4.375  13.494  1.9458  0.6979  0.0500
 5834TIP3    H238918   4.795   4.380  13.361 -0.9738  0.1426 -1.6732
 5835TIP3   OH238919   2.316   3.661  12.817 -0.0047  0.4185  1.2288
 5835TIP3    H138920   2.290   3.674  12.908 -0.6944  0.5497  1.0219
 5835TIP3    H238921   2.364   3.741  12.794  2.5049 -0.6946  2.2418
 5836TIP3   OH238922   6.435   3.485  12.035 -0.0615 -0.1396 -0.3895
 5836TIP3    H138923   6.487   3.466  11.957  0.2429  1.9990 -0.7804
 5836TIP3    H238924   6.467   3.423  12.101  0.8740 -0.8612 -1.4779
 5837TIP3   OH238925   6.356   5.849  11.251  0.3051  0.0421  0.6839
 5837TIP3    H138926   6.449   5.826  11.243  0.8555  2.1278  0.6246
 5837TIP3    H238927   6.334   5.828  11.342  1.3323  1.1561  1.2117
 5838TIP3   OH238928   0.972   0.397  15.168 -0.7074 -0.2151  0.4612
 5838TIP3    H138929   0.926   0.396  15.085  0.7540 -0.0499 -0.3802
 5838TIP3    H238930   1.018   0.313  15.171  1.5825  0.9303 -0.2967
 5839TIP3   OH238931   4.951   5.706  15.415  0.7629  0.5404 -0.0935
 5839TIP3    H138932   4.977   5.798  15.411 -2.3082  1.4866 -1.2744
 5839TIP3    H238933   4.935   5.681  15.324  2.3820 -1.4988  0.1155
 5840TIP3   OH238934   3.844   3.347  11.420  0.1556 -0.9168 -0.2924
 5840TIP3    H138935   3.836   3.442  11.422  0.8785 -0.7522 -2.7471
 5840TIP3    H238936   3.806   3.319  11.504  1.2139  1.5813  1.1640
 5841TIP3   OH238937   5.665   4.537   2.049  0.0074 -0.4995  0.0348
 5841TIP3    H138938   5.573   4.523   2.071 -0.2232 -0.5581 -0.9567
 5841TIP3    H238939   5.680   4.484   1.971  0.0438  1.9352 -1.7210
 5842TIP3   OH238940   1.169   2.602  12.624  0.4367 -0.0682 -0.4471
 5842TIP3    H138941   1.120   2.684  12.615  0.8916  0.1701 -0.7742
 5842TIP3    H238942   1.194   2.579  12.535 -0.4213 -1.0249 -0.4593
 5843TIP3   OH238943   6.761   5.162  12.023 -0.5040  0.1123 -0.0359
 5843TIP3    H138944   6.826   5.191  12.088  0.7588 -0.5134 -0.9799
 5843TIP3    H238945   6.721   5.085  12.063  0.4183 -0.3975 -0.0493
 5844TIP3   OH238946   5.480   4.598  13.480 -0.2838  0.3269  0.2273
 5844TIP3    H138947   5.396   4.616  13.439  0.1310  0.5188 -0.5612
 5844TIP3    H238948   5.464   4.523  13.537 -0.2241 -1.9190 -2.5163
 5845TIP3   OH238949   1.445   6.028  15.627 -0.6067 -0.3528 -0.1800
 5845TIP3    H138950   1.410   5.946  15.663  2.2801 -1.5131  0.2623
 5845TIP3    H238951   1.476   6.004  15.540  2.8735 -0.6347  0.9852
 5846TIP3   OH238952   5.570   5.879   3.737  0.2350 -0.0256  0.3062
 5846TIP3    H138953   5.639   5.830   3.692  0.5908 -0.4404  1.2937
 5846TIP3    H238954   5.598   5.884   3.828 -0.3312  1.0751  0.4431
 5847TIP3   OH238955   4.310   5.368  11.074 -0.4948  0.2142  0.3210
 5847TIP3    H138956   4.318   5.409  10.988  0.2279 -1.0542 -0.2348
 5847TIP3    H238957   4.385   5.308  11.080 -1.0524 -0.4118  1.4513
 5848TIP3   OH238958   1.591   5.880  16.930  0.4557  0.0649  0.5516
 5848TIP3    H138959   1.581   5.894  17.025 -0.1932 -0.0879  0.5107
 5848TIP3    H238960   1.551   5.957  16.890  0.7688  0.1496  0.3978
 5849TIP3   OH238961   0.766   1.783   4.013  0.0709 -0.3099  0.3356
 5849TIP3    H138962   0.728   1.828   4.088  1.1823 -2.6819  2.4656
 5849TIP3    H238963   0.859   1.806   4.014  0.1290 -0.4953 -0.2017
 5850TIP3   OH238964   3.157   1.029  16.345  0.1728 -0.6333  0.9609
 5850TIP3    H138965   3.123   0.957  16.292 -1.2006  0.8056 -0.2197
 5850TIP3    H238966   3.203   0.986  16.417 -1.3880 -2.6941  0.8227
 5851TIP3   OH238967   5.092   4.245  12.683 -0.6798 -0.0303  0.1874
 5851TIP3    H138968   5.174   4.288  12.657 -1.7179  2.0851  0.2323
 5851TIP3    H238969   5.105   4.223  12.776 -0.0082 -0.1285  0.0759
 5852TIP3   OH238970   1.820   3.314  10.584 -0.4991  0.2704  0.4126
 5852TIP3    H138971   1.856   3.401  10.566 -2.1972  1.0676  0.6418
 5852TIP3    H238972   1.859   3.258  10.517  1.0301  1.0740  0.5734
 5853TIP3   OH238973   6.788   4.466  13.297  0.5556  0.7170  0.0912
 5853TIP3    H138974   6.833   4.481  13.214  2.5860 -0.1221  0.9477
 5853TIP3    H238975   6.772   4.553  13.333  0.0447  1.0697 -0.9670
 5854TIP3   OH238976   2.875   6.549   0.176  0.3858 -0.1651  0.0364
 5854TIP3    H138977   2.949   6.593   0.134 -0.5601  0.3345 -1.1831
 5854TIP3    H238978   2.867   6.466   0.129  0.1529 -0.2134  0.1603
 5855TIP3   OH238979   3.770   0.692  14.507  0.1709 -0.2999  0.0476
 5855TIP3    H138980   3.837   0.644  14.555  0.6880  0.7395  0.3909
 5855TIP3    H238981   3.801   0.783  14.505 -0.1115 -0.2030 -1.7662
 5856TIP3   OH238982   5.486   2.546  12.928  0.2922 -0.3417 -0.5610
 5856TIP3    H138983   5.403   2.534  12.881 -1.0403 -1.0598  1.7999
 5856TIP3    H238984   5.498   2.641  12.932 -0.4468 -0.2293 -0.8719
 5857TIP3   OH238985   6.130   3.903  13.439  0.1071  0.1440 -0.2221
 5857TIP3    H138986   6.178   3.820  13.430  0.1801  0.2923 -1.4505
 5857TIP3    H238987   6.189   3.959  13.490  0.0472 -0.5569  0.6395
 5858TIP3   OH238988   5.037   6.776  14.290  0.0406  0.0978 -0.0071
 5858TIP3    H138989   4.964   6.778  14.228  0.1007  1.7479 -0.0586
 5858TIP3    H238990   5.020   6.848  14.350  1.1652 -0.0644  0.5396
 5859TIP3   OH238991   3.964   2.884  16.190 -0.2646  0.2455 -0.2110
 5859TIP3    H138992   3.912   2.809  16.220 -2.4255  1.7536  0.0679
 5859TIP3    H238993   3.984   2.933  16.270 -1.3658  1.4318 -0.6279
 5860TIP3   OH238994   2.190   4.327  16.207  0.7229  0.0455  0.3891
 5860TIP3    H138995   2.120   4.308  16.144 -0.1931 -0.0559  1.4164
 5860TIP3    H238996   2.253   4.256  16.193  0.3665 -0.1726 -0.1767
 5861TIP3   OH238997   1.975   6.783  10.569 -0.3617  0.0815 -0.5790
 5861TIP3    H138998   1.921   6.800  10.647  1.5733 -0.7181  1.0379
 5861TIP3    H238999   1.984   6.688  10.567  0.1074  0.1404 -1.4456
 5862TIP3   OH239000   4.764   1.695   0.334  0.1126 -0.2368 -0.1771
 5862TIP3    H139001   4.796   1.766   0.278  0.2000  0.5306  0.8226
 5862TIP3    H239002   4.833   1.682   0.398 -1.2275  1.0288  1.6467
 5863TIP3   OH239003   3.287   0.384  15.974 -0.1683  0.1890  0.4378
 5863TIP3    H139004   3.331   0.299  15.975 -0.3488  0.0916  0.1374
 5863TIP3    H239005   3.354   0.445  15.941 -0.2224  0.0604  0.0881
 5864TIP3   OH239006   4.962   5.676  15.152 -0.3548 -0.3588 -0.1973
 5864TIP3    H139007   4.927   5.588  15.140  0.1631 -0.5846 -0.1116
 5864TIP3    H239008   4.907   5.732  15.098 -1.1715 -0.6199  0.3498
 5865TIP3   OH239009   4.395   5.506   2.970  0.1975 -0.0245  0.1459
 5865TIP3    H139010   4.385   5.510   3.065  0.5873 -0.3739  0.2052
 5865TIP3    H239011   4.306   5.520   2.936 -0.4599 -2.4952  0.6382
 5866TIP3   OH239012   3.503   3.678   5.875 -0.0293  0.2462 -0.8215
 5866TIP3    H139013   3.461   3.593   5.890  1.5547 -0.4478 -0.1672
 5866TIP3    H239014   3.505   3.688   5.780  1.8566 -1.5671 -1.0274
 5867TIP3   OH239015   1.311   5.036   1.053  0.2110 -0.0858  0.1511
 5867TIP3    H139016   1.403   5.024   1.076  0.2462 -1.6561 -0.6837
 5867TIP3    H239017   1.311   5.110   0.992  0.5782  1.5324  2.0095
 5868TIP3   OH239018   3.640   6.410  15.274 -0.2574 -0.9618  0.3016
 5868TIP3    H139019   3.711   6.363  15.231  1.1267 -0.1380  1.6259
 5868TIP3    H239020   3.655   6.502  15.252 -0.9775 -0.7835  0.5189
 5869TIP3   OH239021   6.725   1.467  12.271 -0.0680  0.2477 -0.2718
 5869TIP3    H139022   6.712   1.488  12.363 -0.6897 -0.9557 -0.0665
 5869TIP3    H239023   6.788   1.532  12.240  1.1899 -0.1357  1.3308
 5870TIP3   OH239024   3.874   2.023   2.700  0.1587  0.3329  0.1929
 5870TIP3    H139025   3.809   2.094   2.707 -0.6300 -0.4472  1.1994
 5870TIP3    H239026   3.897   2.020   2.608 -2.7909 -0.6861 -0.6264
 5871TIP3   OH239027   2.487   3.859   0.906 -0.0169 -0.2774 -0.3132
 5871TIP3    H139028   2.515   3.907   0.827  1.4173 -0.3336  0.1282
 5871TIP3    H239029   2.546   3.784   0.910  0.1778 -0.0671  1.0251
 5872TIP3   OH239030   6.166   4.515   2.663 -0.2793 -0.2646  0.3167
 5872TIP3    H139031   6.242   4.571   2.677 -1.1776  0.6351  1.9212
 5872TIP3    H239032   6.160   4.463   2.743  1.2746 -3.7321 -1.5779
 5873TIP3   OH239033   5.656   1.771   5.747  0.1437  0.1937  0.5814
 5873TIP3    H139034   5.582   1.719   5.717  0.5798  0.4696 -1.0403
 5873TIP3    H239035   5.684   1.821   5.671  1.8328  0.2965  1.2144
 5874TIP3   OH239036   4.979   3.775  15.506 -0.1010 -0.0449  0.4276
 5874TIP3    H139037   4.970   3.842  15.574 -0.7454  0.9918 -0.6564
 5874TIP3    H239038   5.003   3.823  15.427 -2.2768 -0.8434 -0.7964
 5875TIP3   OH239039   1.449   0.871   5.311 -0.4110 -0.7348 -0.0462
 5875TIP3    H139040   1.516   0.939   5.301  0.7656 -1.6637  1.2670
 5875TIP3    H239041   1.367   0.919   5.309  0.3826  0.7361  0.6836
 5876TIP3   OH239042   0.651   1.939  11.025 -0.0532  0.3022  0.4874
 5876TIP3    H139043   0.654   1.936  10.929  1.3590 -0.1164  0.5287
 5876TIP3    H239044   0.584   2.005  11.044  0.1272  0.8861 -0.7842
 5877TIP3   OH239045   4.948   2.715  12.465 -0.6437  0.0828  0.4809
 5877TIP3    H139046   4.907   2.628  12.459 -0.4830  0.0539 -0.4411
 5877TIP3    H239047   4.940   2.739  12.557 -0.4249 -1.0421  0.8113
 5878TIP3   OH239048   2.424   0.408  15.189  0.5491 -0.4746 -0.0001
 5878TIP3    H139049   2.444   0.381  15.099 -1.1402 -0.4066 -0.4268
 5878TIP3    H239050   2.506   0.395  15.236  1.3086 -1.0897 -1.4119
 5879TIP3   OH239051   4.311   1.374   2.402  0.4720 -0.4320  0.1929
 5879TIP3    H139052   4.300   1.294   2.453 -0.7498 -0.1488  0.4105
 5879TIP3    H239053   4.258   1.359   2.323  2.0665 -0.7339 -0.8668
 5880TIP3   OH239054   3.271   4.286  16.813  0.4638 -0.1887  0.4328
 5880TIP3    H139055   3.307   4.231  16.883  2.9015  0.6399 -0.0880
 5880TIP3    H239056   3.252   4.370  16.855  2.5718  0.5368  0.0470
 5881TIP3   OH239057   3.936   2.430   1.677  0.0452 -0.0295 -0.2311
 5881TIP3    H139058   3.985   2.481   1.612  1.4624  0.9515  1.5103
 5881TIP3    H239059   3.967   2.340   1.665 -1.0503 -0.2060 -2.0607
 5882TIP3   OH239060   1.605   4.733   5.914  0.2377  0.2619  0.3888
 5882TIP3    H139061   1.652   4.756   5.834 -0.8216  0.5433 -0.1634
 5882TIP3    H239062   1.542   4.666   5.887  0.5688 -0.3960  1.1952
 5883TIP3   OH239063   5.898   5.143   3.897 -0.3581  0.1133 -0.0121
 5883TIP3    H139064   5.890   5.103   3.810 -1.0443  0.1669  0.0256
 5883TIP3    H239065   5.856   5.081   3.956  0.1493  0.0558  0.2975
 5884TIP3   OH239066   4.278   4.926  13.854 -0.1067  0.1863  0.1162
 5884TIP3    H139067   4.222   4.870  13.801  1.6002 -0.5594 -1.0180
 5884TIP3    H239068   4.362   4.880  13.858  0.6208  1.4991  1.2537
 5885TIP3   OH239069   6.548   4.046  10.477 -0.6173 -0.3619  0.0673
 5885TIP3    H139070   6.501   4.081  10.401  0.1765  0.6980  0.0368
 5885TIP3    H239071   6.637   4.032  10.445 -0.0518  0.9123  1.0079
 5886TIP3   OH239072   2.453   4.866   3.643 -0.0337  0.4705  0.0489
 5886TIP3    H139073   2.414   4.915   3.715 -0.9181  1.1911 -0.8819
 5886TIP3    H239074   2.440   4.922   3.566  0.4832 -0.4695 -0.7514
 5887TIP3   OH239075   3.179   2.422  14.062  0.1706 -0.6818  0.0015
 5887TIP3    H139076   3.133   2.499  14.027 -1.9557 -1.3531  1.1118
 5887TIP3    H239077   3.255   2.457  14.107 -0.3134  0.7107 -0.2162
 5888TIP3   OH239078   0.729   0.196  11.322 -0.2083  0.4687 -0.6492
 5888TIP3    H139079   0.757   0.120  11.373 -2.3812  0.8008  1.2198
 5888TIP3    H239080   0.809   0.247  11.309  0.8814 -0.9797  0.1237
 5889TIP3   OH239081   4.360   5.395  13.717 -0.0814  0.1135 -0.0075
 5889TIP3    H139082   4.302   5.331  13.758 -1.9303  0.7580 -1.4520
 5889TIP3    H239083   4.435   5.344  13.687 -0.8501 -1.1351  0.1327
 5890TIP3   OH239084   5.806   3.404  13.052 -0.5855  0.2691 -0.1131
 5890TIP3    H139085   5.858   3.374  13.127  0.2566 -2.7963 -1.7479
 5890TIP3    H239086   5.871   3.423  12.985 -1.4125  1.3029 -0.6555
 5891TIP3   OH239087   1.629   6.404  16.597 -0.5516 -0.0275  0.3423
 5891TIP3    H139088   1.586   6.390  16.513 -0.1097 -1.2464  0.2866
 5891TIP3    H239089   1.559   6.397  16.662 -0.6723 -0.5908  0.1606
 5892TIP3   OH239090   0.268   5.842   3.095 -0.1728  0.1881 -0.1180
 5892TIP3    H139091   0.327   5.861   3.021 -0.2123  1.1952  0.0990
 5892TIP3    H239092   0.199   5.908   3.088  0.4581  1.0594  1.5154
 5893TIP3   OH239093   0.882   5.506  17.082  0.6176  0.3449  0.2575
 5893TIP3    H139094   0.884   5.560  17.003 -0.7751 -1.0940 -0.8266
 5893TIP3    H239095   0.958   5.449  17.074 -0.3419 -0.8420 -0.8806
 5894TIP3   OH239096   2.805   3.031   5.412 -0.6402 -0.0564  0.5489
 5894TIP3    H139097   2.721   2.992   5.387 -0.3776 -0.5134  0.3667
 5894TIP3    H239098   2.782   3.112   5.458 -1.2125 -0.7691  1.5478
 5895TIP3   OH239099   1.379   6.381  13.900 -0.6013 -0.0511  0.1992
 5895TIP3    H139100   1.327   6.302  13.917 -1.7669  0.4346 -1.0035
 5895TIP3    H239101   1.459   6.348  13.858 -1.9045 -0.5080 -2.0758
 5896TIP3   OH239102   3.079   5.986   0.718  0.0726 -0.0731  0.3874
 5896TIP3    H139103   3.077   6.062   0.776  3.1031 -0.4007  1.0824
 5896TIP3    H239104   2.987   5.971   0.694 -0.7283  3.1063  1.0822
 5897TIP3   OH239105   5.405   0.147  11.382  0.2990  0.0172 -0.0020
 5897TIP3    H139106   5.345   0.084  11.420 -2.5620  1.5348 -1.6396
 5897TIP3    H239107   5.382   0.231  11.423  1.1970  0.6616 -0.7577
 5898TIP3   OH239108   6.787   0.902   0.477  0.4092  0.3200 -0.4112
 5898TIP3    H139109   6.831   0.969   0.530 -0.5659  1.6989 -1.2608
 5898TIP3    H239110   6.822   0.819   0.508 -0.5439  0.9807  2.8328
 5899TIP3   OH239111   3.848   0.848  16.032 -0.4006 -0.4218  0.3263
 5899TIP3    H139112   3.941   0.847  16.006 -0.5821  0.6502 -0.4222
 5899TIP3    H239113   3.845   0.902  16.111 -0.5169  0.4313 -0.2486
 5900TIP3   OH239114   2.605   4.187   0.393  0.3578  0.1961  0.1959
 5900TIP3    H139115   2.577   4.207   0.304 -0.4093 -0.1201  0.3595
 5900TIP3    H239116   2.533   4.137   0.431  0.8604 -0.0577  0.8535
 5901TIP3   OH239117   5.149   3.301   4.216 -0.0378 -0.7304 -0.2337
 5901TIP3    H139118   5.058   3.324   4.196 -0.1558  1.0931  2.0009
 5901TIP3    H239119   5.146   3.208   4.237 -2.1801 -0.0742  3.2610
 5902TIP3   OH239120   2.370   2.491   0.556 -0.1218  0.2204 -0.1981
 5902TIP3    H139121   2.405   2.546   0.626 -1.8886 -0.0950  1.0010
 5902TIP3    H239122   2.313   2.549   0.505 -3.2617 -0.6313  2.0002
 5903TIP3   OH239123   4.711   2.645   4.225 -0.5861  0.0473 -0.1494
 5903TIP3    H139124   4.777   2.714   4.213  0.0240 -0.6765 -1.2235
 5903TIP3    H239125   4.705   2.604   4.139 -1.9961 -0.3190  0.1061
 5904TIP3   OH239126   1.222   3.444  11.018  0.1307  0.0209  0.3009
 5904TIP3    H139127   1.317   3.454  11.021  0.1720 -0.5262  1.9795
 5904TIP3    H239128   1.208   3.350  11.006 -0.2200  0.2291 -1.0641
 5905TIP3   OH239129   1.414   5.348   4.944  0.8571  0.8974 -0.0739
 5905TIP3    H139130   1.485   5.316   4.889  0.1214  1.5621 -1.4500
 5905TIP3    H239131   1.395   5.275   5.003  1.2150 -0.1093 -1.1668
 5906TIP3   OH239132   1.482   2.402  16.620  0.0066 -0.4548  0.2705
 5906TIP3    H139133   1.495   2.340  16.548  0.7384 -1.2286  1.0563
 5906TIP3    H239134   1.397   2.378  16.658 -1.4303  1.2801 -1.5833
 5907TIP3   OH239135   6.671   6.228  14.764 -0.0878 -0.1048 -0.2940
 5907TIP3    H139136   6.701   6.251  14.676  1.4035  0.0813  0.2253
 5907TIP3    H239137   6.601   6.165  14.751 -0.2973  0.3841 -1.6265
 5908TIP3   OH239138   0.576   1.038  15.053  0.4004  0.0431  0.2235
 5908TIP3    H139139   0.568   0.980  14.977  0.8015 -0.7623  0.7832
 5908TIP3    H239140   0.511   1.107  15.038 -1.9377 -1.9111  0.7728
 5909TIP3   OH239141   3.615   4.917   5.004  0.0852  0.2057  0.2953
 5909TIP3    H139142   3.533   4.883   4.967  1.0023 -0.9394 -0.8001
 5909TIP3    H239143   3.648   4.977   4.938  1.3109 -1.2015 -0.4373
 5910TIP3   OH239144   6.808   4.520  15.446  0.2052  0.0521  0.2414
 5910TIP3    H139145   6.767   4.545  15.528  0.6703  1.6125  0.0298
 5910TIP3    H239146   6.834   4.429  15.459 -0.7418 -0.0850  1.3911
 5911TIP3   OH239147   2.272   5.902  16.318  0.3651 -0.5638  0.0591
 5911TIP3    H139148   2.234   5.860  16.395 -0.5832 -2.5684 -1.4438
 5911TIP3    H239149   2.260   5.839  16.247  2.1872  0.7632 -1.5293
 5912TIP3   OH239150   2.881   3.563   5.735  0.2897  0.0281 -0.3399
 5912TIP3    H139151   2.919   3.527   5.655 -1.0671 -1.5227 -0.3393
 5912TIP3    H239152   2.923   3.515   5.806  1.4260  1.3419 -0.0798
 5913TIP3   OH239153   1.853   2.340  14.550 -0.6791 -0.2730 -0.1278
 5913TIP3    H139154   1.833   2.418  14.499 -0.6679 -0.1429  0.0660
 5913TIP3    H239155   1.775   2.326  14.604  0.6746  1.7606  2.5778
 5914TIP3   OH239156   4.144   0.992   1.801  0.6161 -0.2287  0.2503
 5914TIP3    H139157   4.206   1.025   1.736 -1.0573  2.1337 -0.2969
 5914TIP3    H239158   4.196   0.980   1.880  1.6653  2.7122  0.1181
 5915TIP3   OH239159   4.566   5.324  15.061 -0.6722 -0.2270  0.1326
 5915TIP3    H139160   4.592   5.238  15.095  1.7457  0.3687  0.0168
 5915TIP3    H239161   4.492   5.305  15.003  1.8866 -2.8697 -2.7019
 5916TIP3   OH239162   0.299   0.037   0.265 -0.5300 -0.5861 -0.1366
 5916TIP3    H139163   0.304   0.113   0.206 -2.4375 -0.2143  0.1120
 5916TIP3    H239164   0.260  -0.032   0.211  3.2965 -2.2590 -1.0846
 5917TIP3   OH239165   1.826   4.042  11.043 -0.5682  0.0238 -0.2362
 5917TIP3    H139166   1.890   3.992  11.094 -2.8525 -0.5984  2.2411
 5917TIP3    H239167   1.747   4.043  11.097 -1.8972  2.9939 -1.9421
 5918TIP3   OH239168   3.185   5.755  12.860 -0.3757  0.1524 -0.2872
 5918TIP3    H139169   3.234   5.674  12.875  1.2490  0.6453 -2.5257
 5918TIP3    H239170   3.112   5.728  12.804  0.8554  0.3643 -2.0656
 5919TIP3   OH239171   5.107   2.042  13.819 -0.3604 -0.7202  0.6177
 5919TIP3    H139172   5.014   2.058  13.833 -0.4659 -2.3700  2.1937
 5919TIP3    H239173   5.146   2.130  13.816 -1.8170 -0.0292  0.9739
 5920TIP3   OH239174   6.444   4.720  15.135  0.2550  0.2078  1.1814
 5920TIP3    H139175   6.494   4.767  15.069  0.4904 -0.9201  0.5222
 5920TIP3    H239176   6.494   4.731  15.216  1.6027 -0.8801  0.5394
 5921TIP3   OH239177   5.442   5.829  12.986 -0.4958  0.1794  0.5288
 5921TIP3    H139178   5.466   5.830  13.079 -2.4906  1.2805  1.0723
 5921TIP3    H239179   5.482   5.909  12.951 -0.0083 -0.0728  0.4979
 5922TIP3   OH239180   6.628   0.933  15.745  0.3154 -0.1661 -0.2693
 5922TIP3    H139181   6.687   1.001  15.778 -0.3761  0.0175  0.6175
 5922TIP3    H239182   6.548   0.980  15.722  0.0355 -0.5945 -0.1861
 5923TIP3   OH239183   1.515   4.716   5.127  0.0132 -0.0910  0.0831
 5923TIP3    H139184   1.438   4.660   5.133 -0.0636  0.1207  1.4397
 5923TIP3    H239185   1.510   4.754   5.040 -2.1315  0.8733  0.5535
 5924TIP3   OH239186   6.257   6.673   5.630 -0.1600 -0.1914  0.0824
 5924TIP3    H139187   6.332   6.728   5.651 -1.0804  0.8291  0.7864
 5924TIP3    H239188   6.275   6.590   5.675  0.0504  0.4170  1.1559
 5925TIP3   OH239189   6.348   2.813  11.066 -0.7487  0.3989 -0.0803
 5925TIP3    H139190   6.430   2.847  11.029  0.1836 -1.5227  0.0813
 5925TIP3    H239191   6.317   2.749  11.001 -0.4926 -1.0895  1.1976
 5926TIP3   OH239192   5.811   2.258   4.318  0.6704 -0.0878  0.2736
 5926TIP3    H139193   5.729   2.210   4.313 -0.1031  1.0991  1.1523
 5926TIP3    H239194   5.848   2.253   4.230 -1.6726  1.6389 -0.8999
 5927TIP3   OH239195   3.246   4.085  15.951 -0.3693  0.1070 -0.4328
 5927TIP3    H139196   3.290   4.004  15.978 -0.7638  0.0997  0.2079
 5927TIP3    H239197   3.200   4.115  16.030 -0.7308  0.6222 -0.8333
 5928TIP3   OH239198   5.548   6.791  15.117  0.0269  0.0435  0.5733
 5928TIP3    H139199   5.473   6.785  15.057  0.3090  1.5874  0.0322
 5928TIP3    H239200   5.573   6.699  15.133 -1.0883 -0.4452 -0.3641
 5929TIP3   OH239201   2.076   2.566  11.126  0.2009  0.0613  0.0644
 5929TIP3    H139202   2.045   2.475  11.127 -1.1158  0.4561 -1.4191
 5929TIP3    H239203   2.152   2.564  11.068  0.4151 -0.1425  0.3439
 5930TIP3   OH239204   2.881   4.451  11.435  0.4659 -0.1183  0.4459
 5930TIP3    H139205   2.956   4.417  11.484  0.6251 -2.8626 -1.4643
 5930TIP3    H239206   2.852   4.377  11.382 -2.2930  1.4843 -0.4781
 5931TIP3   OH239207   4.685   3.517   1.089  0.3787 -0.0917  0.1904
 5931TIP3    H139208   4.638   3.464   1.153  2.4699 -1.7854  0.4252
 5931TIP3    H239209   4.751   3.564   1.140  0.8470  0.0037 -0.4869
 5932TIP3   OH239210   5.795   3.525  13.497  0.2194  0.1041  0.1229
 5932TIP3    H139211   5.855   3.569  13.557  0.5173 -1.3165  0.9041
 5932TIP3    H239212   5.730   3.484  13.554 -0.9905  0.8524 -0.6736
 5933TIP3   OH239213   0.280   1.177   5.666 -0.6157  0.3870  0.1041
 5933TIP3    H139214   0.253   1.195   5.756 -0.2781  0.3825  0.2082
 5933TIP3    H239215   0.204   1.203   5.613 -1.6891 -1.6794  0.5287
 5934TIP3   OH239216   3.283   2.261  11.915 -0.0011  0.1498  0.0073
 5934TIP3    H139217   3.368   2.284  11.878 -0.8395 -0.6874 -2.7100
 5934TIP3    H239218   3.242   2.345  11.936  0.5450  0.6984 -1.0667
 5935TIP3   OH239219   0.837   2.679  13.119  0.2963 -0.6393 -0.0553
 5935TIP3    H139220   0.835   2.583  13.123 -0.0674 -0.7960 -2.6230
 5935TIP3    H239221   0.899   2.699  13.049 -1.7033  0.8811 -1.5074
 5936TIP3   OH239222   3.135   1.730   0.656  0.6825  0.2473  0.2836
 5936TIP3    H139223   3.073   1.658   0.643  0.7539  0.5154 -1.9794
 5936TIP3    H239224   3.221   1.687   0.655  0.6696  0.2233  0.1553
 5937TIP3   OH239225   0.701   5.865  15.366  0.1589  0.5281 -0.0850
 5937TIP3    H139226   0.766   5.930  15.339  0.2652  0.5113  0.1282
 5937TIP3    H239227   0.687   5.812  15.288  0.3241  0.5978 -0.1621
 5938TIP3   OH239228   2.646   3.813   0.595 -0.4642 -0.3057 -0.0627
 5938TIP3    H139229   2.553   3.790   0.588 -0.4953 -0.1180 -0.3237
 5938TIP3    H239230   2.670   3.793   0.685 -1.3917  1.9387  0.7576
 5939TIP3   OH239231   3.509   0.425   1.469 -0.0115  0.1254 -0.7781
 5939TIP3    H139232   3.520   0.367   1.394 -0.3339 -0.8668 -0.0728
 5939TIP3    H239233   3.495   0.511   1.430  0.7024 -0.2195 -1.8354
 5940TIP3   OH239234   5.959   5.200   3.537 -0.0511  0.1161  0.3934
 5940TIP3    H139235   6.039   5.184   3.487  0.3749  0.8427  0.8323
 5940TIP3    H239236   5.933   5.113   3.568  0.6001 -0.1206  0.2908
 5941TIP3   OH239237   2.479   0.240   1.236 -0.3992  0.6762 -0.0294
 5941TIP3    H139238   2.432   0.277   1.311  2.6155  0.7932  1.9859
 5941TIP3    H239239   2.545   0.306   1.213  1.5268 -1.0891  0.0989
 5942TIP3   OH239240   0.865   4.870  12.572 -0.0461  0.2151 -0.1203
 5942TIP3    H139241   0.890   4.812  12.643 -0.5305  0.8120  0.5526
 5942TIP3    H239242   0.821   4.944  12.615  2.1230  1.9888 -0.7906
 5943TIP3   OH239243   5.696   0.105  11.946  0.0890 -0.1706  0.1355
 5943TIP3    H139244   5.687   0.013  11.919 -0.2081  0.1643 -0.9375
 5943TIP3    H239245   5.770   0.104  12.007 -1.6529 -1.5856  2.4153
 5944TIP3   OH239246   4.694   2.046   2.880 -0.4484  0.1766 -0.5676
 5944TIP3    H139247   4.696   2.117   2.943 -0.7362  0.7489 -1.1959
 5944TIP3    H239248   4.602   2.018   2.878 -0.1560 -0.9133  0.4410
 5945TIP3   OH239249   3.748   0.665  15.000  0.3640 -0.1108 -0.1127
 5945TIP3    H139250   3.683   0.672  14.930 -0.8171  0.3358  0.9766
 5945TIP3    H239251   3.827   0.705  14.964 -1.6075  5.0842  0.4384
 5946TIP3   OH239252   0.742   3.551  12.952  0.0352 -0.1980  0.7241
 5946TIP3    H139253   0.742   3.456  12.946  0.8094 -0.2940  2.0232
 5946TIP3    H239254   0.808   3.579  12.888  0.0073 -0.5510  0.5423
 5947TIP3   OH239255   0.782   3.137  13.206  0.3390  0.6562  0.0426
 5947TIP3    H139256   0.712   3.083  13.242 -0.0995  1.8063  0.9796
 5947TIP3    H239257   0.844   3.148  13.278  1.0378  0.4033 -0.5085
 5948TIP3   OH239258   1.284   4.159  10.991  0.2358  0.2034 -0.3730
 5948TIP3    H139259   1.270   4.148  11.085 -0.6286 -1.1599 -0.6391
 5948TIP3    H239260   1.367   4.113  10.974 -0.4761 -1.0413 -0.5444
 5949TIP3   OH239261   6.595   1.570  15.932  0.0724 -0.3628 -0.2123
 5949TIP3    H139262   6.609   1.494  15.988  1.9667 -0.1093 -0.2985
 5949TIP3    H239263   6.639   1.642  15.977  0.3692  0.1580 -1.3011
 5950TIP3   OH239264   2.226   2.129  11.950 -0.0850 -0.1751  0.0241
 5950TIP3    H139265   2.209   2.177  12.031  0.7325  0.7377 -0.3290
 5950TIP3    H239266   2.321   2.121  11.947 -0.0885  0.0956 -1.0132
 5951TIP3   OH239267   6.637   6.805  17.063 -0.1158  0.2807  0.3290
 5951TIP3    H139268   6.732   6.810  17.058 -0.1695  0.3792 -0.8538
 5951TIP3    H239269   6.614   6.738  16.998 -0.6687 -1.8610  2.5918
 5952TIP3   OH239270   5.265   0.248   2.191  0.3784 -0.3745  0.2193
 5952TIP3    H139271   5.187   0.193   2.182  0.1957 -0.6626  2.7930
 5952TIP3    H239272   5.312   0.237   2.108 -3.5119  1.8753 -2.6379
 5953TIP3   OH239273   1.147   1.616  11.276  0.6666  0.4093  0.3182
 5953TIP3    H139274   1.222   1.583  11.325  0.0182 -1.0358  0.3984
 5953TIP3    H239275   1.179   1.627  11.187  0.6565 -1.4998  0.0474
 5954TIP3   OH239276   0.381   6.241  15.909  0.4094  0.3513  0.1126
 5954TIP3    H139277   0.426   6.280  15.834  1.8997  2.2237  1.8328
 5954TIP3    H239278   0.438   6.169  15.936 -0.1703 -0.3773 -0.5491
 5955TIP3   OH239279   5.024   5.149   5.740  0.2048 -0.3605  0.2184
 5955TIP3    H139280   5.066   5.230   5.767 -0.5906 -0.1505  0.8720
 5955TIP3    H239281   5.086   5.080   5.765  1.0312  0.0545 -0.6438
 5956TIP3   OH239282   0.401   2.774   4.435  0.1485 -0.3525  0.0497
 5956TIP3    H139283   0.440   2.778   4.522  2.3932  2.3986 -0.9221
 5956TIP3    H239284   0.321   2.827   4.443  0.2933 -0.1911  0.4638
 5957TIP3   OH239285   2.712   3.034   6.771 -0.0570  0.2368  0.1928
 5957TIP3    H139286   2.728   2.972   6.699 -0.2220  0.1958  0.1908
 5957TIP3    H239287   2.624   3.012   6.801  0.0705  0.1543  0.5070
 5958TIP3   OH239288   5.307   5.201  16.462 -0.4514  0.6687 -0.2823
 5958TIP3    H139289   5.308   5.207  16.366  1.0840  0.3343 -0.3188
 5958TIP3    H239290   5.396   5.225  16.488  0.0785 -2.1117  0.8386
 5959TIP3   OH239291   0.957   2.411   4.621 -0.0246 -0.0814 -0.5730
 5959TIP3    H139292   0.892   2.341   4.628 -0.0136 -0.1929 -1.4816
 5959TIP3    H239293   0.921   2.482   4.674 -0.1595 -0.6749  0.1494
 5960TIP3   OH239294   0.368   6.530  13.652  0.4469  0.0268 -0.2579
 5960TIP3    H139295   0.386   6.539  13.559 -0.3037 -0.0750 -0.4192
 5960TIP3    H239296   0.390   6.439  13.673 -0.2828 -0.2249 -0.5516
 5961TIP3   OH239297   2.986   6.230   0.777  0.5130  0.1475 -0.2099
 5961TIP3    H139298   2.929   6.268   0.709 -0.5435 -1.9108 -0.5541
 5961TIP3    H239299   3.029   6.306   0.817 -3.3377  2.0351  0.8702
 5962TIP3   OH239300   6.635   2.061   5.838 -0.0144  0.2945 -0.2427
 5962TIP3    H139301   6.661   2.149   5.810  0.1025  0.4038  0.2029
 5962TIP3    H239302   6.540   2.065   5.846 -0.0351  0.3025 -0.4864
 5963TIP3   OH239303   4.432   3.407  15.243 -0.7706  0.6488  0.1650
 5963TIP3    H139304   4.409   3.495  15.274 -1.2389  0.7248 -0.3770
 5963TIP3    H239305   4.515   3.419  15.196 -0.4045  0.6509  0.8118
 5964TIP3   OH239306   2.267   1.457  12.371  0.0015  0.0357  0.3816
 5964TIP3    H139307   2.292   1.532  12.424 -0.2134 -0.4950  1.2437
 5964TIP3    H239308   2.238   1.495  12.288 -0.5201  0.9299  0.9614
 5965TIP3   OH239309   0.305   1.176  12.885 -0.5035  0.2949 -0.0276
 5965TIP3    H139310   0.244   1.169  12.959 -0.2228  1.5700  0.3563
 5965TIP3    H239311   0.324   1.086  12.861 -2.7488 -0.1614 -0.3462
 5966TIP3   OH239312   5.117   3.323  13.444  0.3464 -0.4464 -0.0986
 5966TIP3    H139313   5.061   3.360  13.513 -1.3241 -1.1949 -0.9939
 5966TIP3    H239314   5.195   3.379  13.444 -0.8705  1.3597  0.4506
 5967TIP3   OH239315   4.252   6.748   3.094 -0.6191 -0.3938  0.6873
 5967TIP3    H139316   4.235   6.841   3.105  0.3128 -0.1476  0.1889
 5967TIP3    H239317   4.183   6.718   3.034  0.3436  0.4762 -0.9411
 5968TIP3   OH239318   3.591   3.892   3.064 -0.3635  0.3101 -0.0299
 5968TIP3    H139319   3.653   3.901   3.137 -0.9441  1.8142  0.3214
 5968TIP3    H239320   3.633   3.940   2.992  0.5153 -1.7233 -0.9477
 5969TIP3   OH239321   5.731   0.036   4.432  0.7388 -0.0566  0.2898
 5969TIP3    H139322   5.819   0.067   4.451  0.6479 -0.5458  1.5551
 5969TIP3    H239323   5.723   0.046   4.337  2.4883 -0.8555  0.0090
 5970TIP3   OH239324   0.780   3.277  12.125 -0.3133  0.0638  0.4140
 5970TIP3    H139325   0.791   3.372  12.111  0.0715 -0.2706 -1.8390
 5970TIP3    H239326   0.722   3.249  12.055 -2.4872 -1.0281  2.5171
 5971TIP3   OH239327   2.207   5.348   1.067  0.1960  0.6337  0.4602
 5971TIP3    H139328   2.256   5.429   1.051 -0.4500  0.5985 -2.0143
 5971TIP3    H239329   2.263   5.278   1.035 -0.4570  0.3727 -0.1372
 5972TIP3   OH239330   0.775   6.262   2.534 -1.0318 -0.2159  0.1212
 5972TIP3    H139331   0.854   6.286   2.582 -2.1265  0.9017  1.4651
 5972TIP3    H239332   0.751   6.177   2.570 -2.2865  0.9533  2.3075
 5973TIP3   OH239333   1.503   5.204   4.635  0.2723 -0.0825 -0.2215
 5973TIP3    H139334   1.422   5.252   4.620 -0.5678 -1.5818 -0.7234
 5973TIP3    H239335   1.475   5.115   4.658  1.7656 -0.4929  0.1626
 5974TIP3   OH239336   0.822   6.694  16.206  0.1666  0.9489  0.2542
 5974TIP3    H139337   0.854   6.618  16.255 -1.2901  0.4983  0.5639
 5974TIP3    H239338   0.775   6.747  16.271 -1.5212  0.5023 -0.5306
 5975TIP3   OH239339   6.015   2.775  12.446  0.0139 -0.1496  0.0395
 5975TIP3    H139340   5.921   2.788  12.443 -0.2646 -2.1647 -1.5188
 5975TIP3    H239341   6.027   2.680  12.450  1.9779  0.0424 -0.0157
 5976TIP3   OH239342   5.779   0.239   1.915 -0.7232 -0.4149  0.0648
 5976TIP3    H139343   5.814   0.221   1.828 -0.4902 -1.0333  0.2827
 5976TIP3    H239344   5.855   0.272   1.964 -1.1431  1.2366 -0.3336
 5977TIP3   OH239345   6.344   4.680   1.698 -0.6430  0.1919  0.2633
 5977TIP3    H139346   6.264   4.706   1.744 -1.7108 -2.0298 -0.2039
 5977TIP3    H239347   6.321   4.685   1.605 -0.4525 -1.0248  0.1395
 5978TIP3   OH239348   0.016   1.386   5.798 -0.0753  0.6763 -0.4580
 5978TIP3    H139349   0.012   1.306   5.850 -2.0268  1.1169  0.1610
 5978TIP3    H239350   0.080   1.441   5.843 -0.8373  0.5686  0.8089
 5979TIP3   OH239351   2.560   1.288   5.292  0.3437 -0.4341  0.0949
 5979TIP3    H139352   2.613   1.333   5.358 -0.2057  0.4299 -0.0476
 5979TIP3    H239353   2.551   1.351   5.221 -1.8276 -0.1084  0.5872
 5980TIP3   OH239354   6.775   4.834   3.735 -0.4080 -0.1715  0.0774
 5980TIP3    H139355   6.693   4.871   3.767 -1.3292 -0.9233 -1.3352
 5980TIP3    H239356   6.793   4.882   3.654  2.2771  2.2404  1.8592
 5981TIP3   OH239357   0.322   4.126  12.659 -0.0705 -0.4148 -0.2352
 5981TIP3    H139358   0.395   4.136  12.720 -0.7749  0.1444  0.5357
 5981TIP3    H239359   0.291   4.215  12.644  0.4439 -0.4783 -1.8801
 5982TIP3   OH239360   4.543   6.319  12.199  0.4099  0.3162  0.2011
 5982TIP3    H139361   4.595   6.366  12.265  3.0831  1.6027 -2.5558
 5982TIP3    H239362   4.473   6.380  12.175 -0.1824  0.1008  1.3309
 5983TIP3   OH239363   5.835   5.230   5.997 -1.1333 -0.3119  0.0559
 5983TIP3    H139364   5.860   5.305   6.052  0.1794 -0.4893 -0.2551
 5983TIP3    H239365   5.825   5.266   5.909 -2.2102 -0.2146  0.2026
 5984TIP3   OH239366   1.623   0.630   5.630 -0.5465  0.0748 -0.2763
 5984TIP3    H139367   1.685   0.698   5.657 -0.3735 -0.6385  1.2114
 5984TIP3    H239368   1.547   0.678   5.598  0.6711  0.9756 -2.0428
 5985TIP3   OH239369   1.524   4.660  16.589 -0.0533  0.2466  0.4165
 5985TIP3    H139370   1.566   4.746  16.581  1.3399 -0.5494 -1.5796
 5985TIP3    H239371   1.595   4.598  16.578 -1.2963 -1.1653  0.0405
 5986TIP3   OH239372   3.159   0.088   1.277 -0.7723  0.2883  0.3190
 5986TIP3    H139373   3.134   0.030   1.348  3.1536  2.2460  3.7585
 5986TIP3    H239374   3.201   0.031   1.213 -1.3899 -1.1814  1.1747
 5987TIP3   OH239375   6.709   0.684  15.967 -0.2090  0.3385 -0.0184
 5987TIP3    H139376   6.798   0.708  15.941  0.5229  0.1226  2.0684
 5987TIP3    H239377   6.681   0.620  15.902  0.3069  1.9609 -1.9436
 5988TIP3   OH239378   1.490   5.627   2.932 -0.0664 -0.2725 -0.2410
 5988TIP3    H139379   1.535   5.605   2.850 -2.1239  1.3113 -1.8884
 5988TIP3    H239380   1.481   5.722   2.930 -1.1997 -0.3099  1.2757
 5989TIP3   OH239381   2.129   2.968  13.982 -0.4841  0.1233  0.4351
 5989TIP3    H139382   2.151   2.939  13.894  1.4253 -1.3770  1.3247
 5989TIP3    H239383   2.112   2.887  14.031 -0.5768  0.8543  1.6573
 5990TIP3   OH239384   3.907   5.632  12.831 -0.0949 -0.2384  0.6264
 5990TIP3    H139385   3.863   5.677  12.902 -0.9703 -1.8104  1.1343
 5990TIP3    H239386   3.837   5.587  12.784  0.5468  0.2471 -0.8462
 5991TIP3   OH239387   0.692   3.968  15.181  0.2374 -0.2228 -0.3299
 5991TIP3    H139388   0.725   4.058  15.182 -0.4978  0.0842 -1.2156
 5991TIP3    H239389   0.719   3.934  15.096 -0.4538 -0.4493 -0.4681
 5992TIP3   OH239390   2.012   3.505   3.705  0.0851 -0.9399  0.0860
 5992TIP3    H139391   1.940   3.452   3.671 -2.6017  3.7936 -2.8217
 5992TIP3    H239392   1.976   3.546   3.784  0.1748  0.1107 -0.3974
 5993TIP3   OH239393   2.502   3.435   3.100  0.4695 -0.3243  1.2550
 5993TIP3    H139394   2.483   3.502   3.166 -0.0617 -0.2438  1.0281
 5993TIP3    H239395   2.535   3.360   3.149  1.2348  0.1636  1.4977
 5994TIP3   OH239396   4.841   4.892   1.441 -0.2583 -0.5198 -0.0917
 5994TIP3    H139397   4.886   4.948   1.505 -0.8230 -0.0466 -0.1016
 5994TIP3    H239398   4.900   4.818   1.429  0.3337 -0.1036  0.1985
 5995TIP3   OH239399   0.117   5.390  16.635 -0.2356  0.5130  0.2056
 5995TIP3    H139400   0.045   5.451  16.619 -2.0931 -1.6551 -0.2845
 5995TIP3    H239401   0.088   5.338  16.710  1.2864  0.2270  0.6309
 5996TIP3   OH239402   3.738   4.365  16.289  0.2797  0.1638  0.3582
 5996TIP3    H139403   3.763   4.374  16.381  1.3642  1.9489 -0.0612
 5996TIP3    H239404   3.820   4.341  16.245  0.2864  1.4742 -0.4081
 5997TIP3   OH239405   3.291   4.289  14.096 -0.1657  0.6874  0.0168
 5997TIP3    H139406   3.229   4.288  14.170 -0.7491 -0.6638 -0.4600
 5997TIP3    H239407   3.356   4.355  14.120  0.7863 -1.0827  2.6781
 5998TIP3   OH239408   3.508   4.862   4.627  0.1834 -0.7769  0.1170
 5998TIP3    H139409   3.500   4.772   4.598 -1.8083 -0.3792 -0.7165
 5998TIP3    H239410   3.456   4.866   4.708  0.0406 -0.3190  0.0065
 5999TIP3   OH239411   1.373   5.787  15.723  0.2601 -0.0021 -0.3692
 5999TIP3    H139412   1.284   5.751  15.728 -0.4325  1.5731 -0.5881
 5999TIP3    H239413   1.430   5.711  15.728 -1.1382 -1.4114 -3.3493
 6000TIP3   OH239414   4.131   0.397  14.155  0.7829 -0.0294  0.1331
 6000TIP3    H139415   4.101   0.483  14.126  0.3194  0.0510  0.8479
 6000TIP3    H239416   4.216   0.386  14.111  0.1768  0.1475 -1.1297
 6001TIP3   OH239417   3.030   2.438  11.166  0.4079 -0.0002  0.5245
 6001TIP3    H139418   2.969   2.506  11.197 -0.5576 -1.0324  0.9604
 6001TIP3    H239419   3.012   2.431  11.072 -0.2491 -0.3807  0.6699
 6002TIP3   OH239420   4.643   4.676   3.657 -0.4635 -0.0022  0.3743
 6002TIP3    H139421   4.692   4.604   3.617  0.2368  1.2694 -1.1753
 6002TIP3    H239422   4.552   4.644   3.661  0.1103 -1.6050  1.3647
 6003TIP3   OH239423   3.179   2.231  16.322  0.4106 -0.2435  0.7254
 6003TIP3    H139424   3.199   2.318  16.358  0.5452  0.5896 -1.2506
 6003TIP3    H239425   3.261   2.182  16.329  1.1044  0.6932 -0.5677
 6004TIP3   OH239426   2.790   2.184   0.688  0.0864 -0.4402 -0.3506
 6004TIP3    H139427   2.711   2.216   0.645  0.2201 -0.8012 -0.8696
 6004TIP3    H239428   2.777   2.205   0.780 -0.5762 -0.4135 -0.4445
 6005TIP3   OH239429   2.875   1.445   4.392 -0.5335  0.5014  0.1732
 6005TIP3    H139430   2.797   1.409   4.350 -1.3453 -0.4979  2.3887
 6005TIP3    H239431   2.845   1.528   4.430 -0.7781 -0.2261  1.6488
 6006TIP3   OH239432   2.642   0.302  14.328  0.0310  0.3589 -0.1563
 6006TIP3    H139433   2.693   0.232  14.370  0.4722  0.7092 -0.0943
 6006TIP3    H239434   2.661   0.292  14.235 -0.5814 -0.1295 -0.2354
 6007TIP3   OH239435   1.390   1.418   0.933 -0.1259 -0.1424  0.1101
 6007TIP3    H139436   1.457   1.354   0.957 -0.3673 -1.1822 -1.7911
 6007TIP3    H239437   1.383   1.475   1.009  1.4071 -1.2787  1.1635
 6008TIP3   OH239438   4.989   1.669   4.452  0.1128  0.0971 -0.5116
 6008TIP3    H139439   5.081   1.667   4.481  0.2194 -1.1418 -0.8783
 6008TIP3    H239440   4.961   1.758   4.469  1.0836  0.2253  0.5804
 6009TIP3   OH239441   0.567   5.607   2.011  0.1064 -0.0810  0.4214
 6009TIP3    H139442   0.504   5.633   2.077  0.7337  1.2826  0.5290
 6009TIP3    H239443   0.641   5.666   2.024  0.5439 -0.2587 -1.0237
 6010TIP3   OH239444   4.848   4.976  14.583 -0.3610  0.2071 -0.3258
 6010TIP3    H139445   4.943   4.977  14.586 -0.3778  0.2283  0.6216
 6010TIP3    H239446   4.822   5.065  14.605 -0.6015  0.1971 -0.5622
 6011TIP3   OH239447   0.482   6.361  12.135  0.1292 -0.3241 -0.2108
 6011TIP3    H139448   0.449   6.299  12.069 -0.3269  0.2395 -0.5228
 6011TIP3    H239449   0.407   6.378  12.191  0.0067  0.5943 -0.6356
 6012TIP3   OH239450   1.141   5.415   2.107  0.2527  0.8584  0.3073
 6012TIP3    H139451   1.186   5.365   2.038  2.0804  1.5274  0.9710
 6012TIP3    H239452   1.066   5.360   2.130  1.1479 -0.6922 -0.2925
 6013TIP3   OH239453   1.600   3.578   2.718 -0.0515  0.3030 -0.1209
 6013TIP3    H139454   1.695   3.565   2.722 -0.2028 -0.8181  0.3483
 6013TIP3    H239455   1.586   3.627   2.638  0.8290 -0.6408 -0.8894
 6014TIP3   OH239456   3.704   1.788  15.071 -0.3690 -0.4897  0.4710
 6014TIP3    H139457   3.629   1.738  15.039 -1.4167  0.5060  1.2989
 6014TIP3    H239458   3.700   1.871  15.023  0.4585 -0.5735  0.2333
 6015TIP3   OH239459   6.333   4.721   2.653  0.5526 -0.0494 -0.1245
 6015TIP3    H139460   6.367   4.796   2.703  0.2945 -0.2031  0.2864
 6015TIP3    H239461   6.335   4.751   2.562  3.1287 -0.5433 -0.3169
 6016TIP3   OH239462   3.037   6.495   1.443 -0.1954  0.0584  0.2332
 6016TIP3    H139463   3.115   6.544   1.471  0.1621 -0.5881  0.3885
 6016TIP3    H239464   2.994   6.553   1.380  0.7824  0.1342 -0.3784
 6017TIP3   OH239465   4.251   5.610  14.009  0.6197  0.2612 -0.6157
 6017TIP3    H139466   4.214   5.665  13.941  0.7843 -0.9800 -1.7412
 6017TIP3    H239467   4.176   5.570  14.052  0.4962  1.3888  0.2606
 6018TIP3   OH239468   3.413   1.141  16.719 -0.7529  0.2384 -0.5190
 6018TIP3    H139469   3.358   1.132  16.796 -1.3265 -0.3620 -0.9900
 6018TIP3    H239470   3.452   1.228  16.728 -1.8448  0.7160 -0.2094
 6019TIP3   OH239471   5.989   4.713   2.683 -0.8286 -0.1748  0.0336
 6019TIP3    H139472   6.034   4.636   2.650 -0.4082  0.4095 -0.7809
 6019TIP3    H239473   5.905   4.714   2.637 -0.3628  0.4771 -0.8298
 6020TIP3   OH239474   3.718   5.428  17.068 -0.4397  0.8529 -0.0906
 6020TIP3    H139475   3.734   5.370  17.142  1.3906  0.4422 -0.7562
 6020TIP3    H239476   3.770   5.506  17.088 -0.6870  1.1322 -0.5176
 6021TIP3   OH239477   3.799   0.382  16.098  0.2467 -0.0972 -0.1283
 6021TIP3    H139478   3.810   0.291  16.127 -0.2822  0.6911  2.9082
 6021TIP3    H239479   3.880   0.425  16.125 -0.5002  0.8091  0.7152
 6022TIP3   OH239480   2.151   2.519   4.831 -0.4101  0.1378 -0.3016
 6022TIP3    H139481   2.120   2.466   4.757 -0.4834  0.8666 -0.7954
 6022TIP3    H239482   2.232   2.476   4.859  1.1282  1.3846 -2.5653
 6023TIP3   OH239483   1.825   6.133  15.008 -0.0358  0.7169  0.1133
 6023TIP3    H139484   1.820   6.041  15.034 -3.8652  0.8015  0.2452
 6023TIP3    H239485   1.864   6.131  14.920 -1.5799 -1.2794 -0.6140
 6024TIP3   OH239486   6.112   2.977   0.901 -0.3314 -0.5696  0.0397
 6024TIP3    H139487   6.034   2.976   0.957 -0.9083  0.6816 -0.7049
 6024TIP3    H239488   6.120   2.886   0.871 -0.9842 -0.9012  0.8006
 6025TIP3   OH239489   1.868   2.616   1.644  0.3018 -0.4208 -0.3340
 6025TIP3    H139490   1.862   2.558   1.720  1.8775  1.0503  1.0063
 6025TIP3    H239491   1.805   2.580   1.582 -1.5994 -1.2998  1.9170
 6026TIP3   OH239492   4.320   5.647  15.684 -0.0200  0.1463 -0.1432
 6026TIP3    H139493   4.225   5.639  15.673  0.2436 -1.3058 -1.7366
 6026TIP3    H239494   4.339   5.738  15.661 -0.7208 -0.2861 -2.7600
 6027TIP3   OH239495   2.979   4.602  15.465 -0.3590 -0.1731  0.2003
 6027TIP3    H139496   3.050   4.594  15.401  1.4752  0.4283  2.0153
 6027TIP3    H239497   3.019   4.571  15.547 -2.3460 -0.1720  1.2193
 6028TIP3   OH239498   3.806   1.964   2.970 -0.2536 -0.4309 -0.7673
 6028TIP3    H139499   3.726   2.008   2.996 -1.1833 -1.9826 -0.8960
 6028TIP3    H239500   3.801   1.959   2.874 -1.2005 -2.5937 -0.6679
 6029TIP3   OH239501   3.103   6.165  15.536 -0.2908  0.0645  0.2928
 6029TIP3    H139502   3.183   6.129  15.499  0.3683  0.1076  1.6163
 6029TIP3    H239503   3.049   6.088  15.554  0.1918 -0.1075  1.0411
 6030TIP3   OH239504   0.889   0.439  13.441  0.4351  1.0352 -0.6200
 6030TIP3    H139505   0.807   0.487  13.452  0.7805  1.5683 -0.2837
 6030TIP3    H239506   0.883   0.365  13.501  0.3109  1.2306 -0.3887
 6031TIP3   OH239507   3.731   6.315   3.653 -0.0618 -0.4481 -0.3268
 6031TIP3    H139508   3.769   6.403   3.649  0.4393 -0.5957  0.8738
 6031TIP3    H239509   3.640   6.329   3.682 -0.5475 -0.2043 -1.8814
 6032TIP3   OH239510   6.717   3.335   0.439  0.0349 -0.1389  0.1178
 6032TIP3    H139511   6.801   3.379   0.431  0.0437 -0.1206  0.3027
 6032TIP3    H239512   6.662   3.397   0.487 -0.4028  0.2884 -0.8948
 6033TIP3   OH239513   0.333   0.846   1.807 -0.6824  0.3709 -0.0292
 6033TIP3    H139514   0.332   0.932   1.848 -0.9789  0.6647 -0.6446
 6033TIP3    H239515   0.366   0.787   1.875 -1.5293  0.7800  0.7594
 6034TIP3   OH239516   5.486   3.389   5.355  0.1208  0.0203  0.1766
 6034TIP3    H139517   5.555   3.351   5.301  1.3668  1.3236  0.7682
 6034TIP3    H239518   5.406   3.343   5.329  0.4354  1.1941 -3.4238
 6035TIP3   OH239519   2.025   0.380   0.059  0.1234  0.4042 -0.7383
 6035TIP3    H139520   2.090   0.310   0.058 -0.3862 -0.1026  0.2279
 6035TIP3    H239521   2.012   0.399   0.152 -0.4606  1.1083 -0.9547
 6036TIP3   OH239522   5.822   3.888  14.215  0.0172 -0.0769  0.3101
 6036TIP3    H139523   5.909   3.909  14.182 -0.4284  1.5309  0.0814
 6036TIP3    H239524   5.763   3.907  14.141 -0.4419 -2.6796 -0.1147
 6037TIP3   OH239525   6.189   3.564   4.208 -0.2479 -0.4997  0.0683
 6037TIP3    H139526   6.166   3.620   4.134 -1.6634  1.5687  1.9288
 6037TIP3    H239527   6.105   3.528   4.237 -0.2166  1.0955  2.3872
 6038TIP3   OH239528   5.639   3.748   2.374  0.0153  0.1473  0.6189
 6038TIP3    H139529   5.726   3.710   2.386  0.2723  0.4943 -0.0458
 6038TIP3    H239530   5.626   3.747   2.279 -0.8101 -0.1167  0.7305
 6039TIP3   OH239531   4.444   5.599  11.159  0.2628 -0.1351  0.3061
 6039TIP3    H139532   4.379   5.658  11.120 -1.2551 -1.2467  1.0202
 6039TIP3    H239533   4.401   5.513  11.159  1.9499 -1.0294  0.3591
 6040TIP3   OH239534   3.544   1.145   4.900 -0.7044  0.0208 -0.3512
 6040TIP3    H139535   3.636   1.157   4.876 -0.9201 -0.4451 -1.4742
 6040TIP3    H239536   3.511   1.234   4.915  0.1654  0.1305  1.0442
 6041TIP3   OH239537   3.195   0.963   1.539 -0.1032 -0.2426 -0.0820
 6041TIP3    H139538   3.113   0.977   1.492 -0.2771  1.1194  0.5866
 6041TIP3    H239539   3.197   1.032   1.606  1.2125 -0.7353  0.4221
 6042TIP3   OH239540   5.098   2.519  10.610  0.0476 -0.1145  0.8107
 6042TIP3    H139541   5.005   2.542  10.614 -0.1047 -0.8775  2.1946
 6042TIP3    H239542   5.111   2.489  10.520 -0.7456  1.1540  0.2321
 6043TIP3   OH239543   6.269   1.147   1.049 -0.0674 -0.3276 -0.3953
 6043TIP3    H139544   6.275   1.136   0.954  0.6408  1.2882 -0.5721
 6043TIP3    H239545   6.177   1.164   1.066 -0.1172 -0.1353 -0.8476
 6044TIP3   OH239546   2.252   4.202  12.834 -0.2397 -0.5610  0.3558
 6044TIP3    H139547   2.248   4.289  12.874  1.1470 -0.5644  0.5696
 6044TIP3    H239548   2.271   4.143  12.907 -2.2173 -1.2148  0.3832
 6045TIP3   OH239549   2.513   2.583   0.146  0.4917 -0.3455  0.0677
 6045TIP3    H139550   2.590   2.620   0.102 -0.5860  1.4707 -0.4150
 6045TIP3    H239551   2.443   2.646   0.129 -0.7452 -1.1595  1.7887
 6046TIP3   OH239552   4.360   1.482  11.408  0.2478 -0.0148 -0.2460
 6046TIP3    H139553   4.401   1.401  11.440 -1.9090 -1.1359 -0.1414
 6046TIP3    H239554   4.337   1.530  11.488  2.2921  1.1944 -0.3069
 6047TIP3   OH239555   3.617   6.783   3.254 -0.5115  0.0821  0.6605
 6047TIP3    H139556   3.607   6.855   3.316 -2.9781  0.7182 -0.3475
 6047TIP3    H239557   3.603   6.704   3.307  1.5332  0.3179  1.6393
 6048TIP3   OH239558   0.027   0.228   2.240 -0.5629 -0.0300  0.2335
 6048TIP3    H139559  -0.047   0.267   2.286  0.1489  0.9654  0.5648
 6048TIP3    H239560   0.022   0.264   2.151 -2.0717 -2.1285 -0.6098
 6049TIP3   OH239561   0.671   1.368  13.764 -0.3784 -0.4284 -0.1116
 6049TIP3    H139562   0.580   1.397  13.766 -0.5569 -0.8894  3.0307
 6049TIP3    H239563   0.673   1.302  13.695 -1.9849  0.7211 -1.3676
 6050TIP3   OH239564   0.560   2.136  14.393  0.1056  0.1538 -0.0549
 6050TIP3    H139565   0.637   2.099  14.350  1.0719  1.9996 -0.0047
 6050TIP3    H239566   0.524   2.063  14.443  2.2903 -0.5954  0.5570
 6051TIP3   OH239567   2.905   5.277  13.143  0.0752 -0.1960  0.6038
 6051TIP3    H139568   2.952   5.357  13.167  1.7606 -1.4724  1.7982
 6051TIP3    H239569   2.831   5.274  13.203  0.7915 -0.2064  1.5135
 6052TIP3   OH239570   5.740   2.799  12.437 -0.5135  0.3997 -0.0815
 6052TIP3    H139571   5.706   2.807  12.526 -0.7726  2.2135 -0.3061
 6052TIP3    H239572   5.686   2.859  12.385  0.0070 -0.1913 -1.3476
 6053TIP3   OH239573   0.828   3.994  16.188 -0.3020  0.4090 -0.0337
 6053TIP3    H139574   0.733   3.985  16.197 -0.2708  2.0635  4.2590
 6053TIP3    H239575   0.843   4.088  16.181  1.0399  0.1847 -0.4271
 6054TIP3   OH239576   0.950   5.276  16.138  0.4317 -0.2241 -0.2599
 6054TIP3    H139577   0.907   5.265  16.223  2.1292  0.5228  0.7346
 6054TIP3    H239578   0.878   5.288  16.077 -0.8167  0.4855  1.2630
 6055TIP3   OH239579   4.689   1.850   2.385 -0.0521 -0.4528 -0.6206
 6055TIP3    H139580   4.695   1.857   2.289  0.6926  1.4935 -0.4962
 6055TIP3    H239581   4.662   1.938   2.413  3.1669  0.1132  1.1529
 6056TIP3   OH239582   5.257   0.267  12.209  0.2237 -0.1883  0.0764
 6056TIP3    H139583   5.223   0.265  12.298  1.5642 -0.4312  0.6150
 6056TIP3    H239584   5.309   0.187  12.202  0.9832  0.3493 -0.5570
 6057TIP3   OH239585   4.793   2.190   3.782  0.3494  0.5100 -0.1004
 6057TIP3    H139586   4.701   2.194   3.807 -0.0539 -0.8807 -1.2010
 6057TIP3    H239587   4.840   2.175   3.864 -0.5959 -0.5829  0.2611
 6058TIP3   OH239588   4.817   1.727  14.233 -0.2987  0.3292  0.0647
 6058TIP3    H139589   4.830   1.754  14.324  0.8820  1.8200 -0.5008
 6058TIP3    H239590   4.833   1.632  14.234 -0.9488  0.2061  1.5067
 6059TIP3   OH239591   4.362   2.026   5.348  0.3759  0.9330  0.3416
 6059TIP3    H139592   4.383   1.936   5.374 -1.0000  0.9894  1.7966
 6059TIP3    H239593   4.398   2.034   5.260  0.3777 -1.1061  0.0972
 6060TIP3   OH239594   2.959   6.504   2.318 -0.5171  0.2425 -0.7026
 6060TIP3    H139595   2.944   6.499   2.412  0.4777  2.5839 -0.3645
 6060TIP3    H239596   2.871   6.511   2.280 -0.9025 -0.2961  0.0692
 6061TIP3   OH239597   5.908   0.854   2.426  0.0911 -0.3287 -0.9448
 6061TIP3    H139598   5.947   0.912   2.360  0.5040  0.4974  0.0064
 6061TIP3    H239599   5.933   0.766   2.399  1.9094  0.1201 -0.8344
 6062TIP3   OH239600   0.161   0.161  12.323 -0.0017 -0.0127 -0.0990
 6062TIP3    H139601   0.232   0.120  12.372  0.7196  0.3742 -0.7847
 6062TIP3    H239602   0.096   0.091  12.311  0.9572 -0.8113 -0.7778
 6063TIP3   OH239603   6.137   2.855  11.240 -0.4558  0.3109  0.9182
 6063TIP3    H139604   6.193   2.870  11.164 -0.4352 -1.9449  0.4138
 6063TIP3    H239605   6.189   2.883  11.315  1.3124 -1.4692  0.4426
 6064TIP3   OH239606   4.483   1.638   4.341 -0.0651 -0.2300 -0.0362
 6064TIP3    H139607   4.514   1.568   4.399  1.4092 -0.0873 -0.6270
 6064TIP3    H239608   4.552   1.704   4.344 -0.8541  0.6374 -0.4937
 6065TIP3   OH239609   5.647   1.173  11.513 -0.0863  0.2752  0.1554
 6065TIP3    H139610   5.592   1.251  11.506 -0.2312  0.1374 -0.2635
 6065TIP3    H239611   5.654   1.141  11.423 -0.1448 -0.2734  0.3464
 6066TIP3   OH239612   5.176   2.678  14.910  0.4753 -0.1405  0.3993
 6066TIP3    H139613   5.264   2.705  14.881 -0.0428  0.1043 -1.0334
 6066TIP3    H239614   5.136   2.758  14.943  0.9945 -0.3781  1.6546
 6067TIP3   OH239615   5.525   0.666   3.800  0.5538  0.5587 -0.2417
 6067TIP3    H139616   5.538   0.589   3.745 -0.9221  1.0366 -1.3242
 6067TIP3    H239617   5.492   0.631   3.883 -2.6605  0.0426 -1.5659
 6068TIP3   OH239618   4.774   1.040  12.475 -0.5930 -0.1556 -0.6874
 6068TIP3    H139619   4.841   1.011  12.537 -0.2919 -0.0315 -0.9522
 6068TIP3    H239620   4.824   1.074  12.400 -0.9050 -2.1657 -1.9008
 6069TIP3   OH239621   4.664   3.179  12.925 -0.4533 -0.1420 -0.5656
 6069TIP3    H139622   4.707   3.131  12.996  0.0314 -0.1311 -0.8513
 6069TIP3    H239623   4.683   3.271  12.945 -0.6539 -0.1165 -0.4914
 6070TIP3   OH239624   2.985   4.436  14.005  0.1483 -0.5759  0.4952
 6070TIP3    H139625   2.982   4.523  13.965 -0.2437 -1.1432 -0.7534
 6070TIP3    H239626   2.895   4.404  14.000  0.3097 -1.0970  0.8452
 6071TIP3   OH239627   0.797   3.127   2.987 -0.1722 -0.6288  0.2276
 6071TIP3    H139628   0.779   3.093   2.899 -1.5131 -0.7971  0.5445
 6071TIP3    H239629   0.717   3.174   3.011 -0.1228 -1.2209  1.6511
 6072TIP3   OH239630   6.714   0.978   5.224 -0.1191  0.1021 -0.3698
 6072TIP3    H139631   6.756   0.915   5.282  0.0208  1.5579  1.1704
 6072TIP3    H239632   6.749   1.063   5.250 -1.6589  1.0290 -1.1448
 6073TIP3   OH239633   5.538   0.536   0.456 -0.3117  0.3720 -0.4161
 6073TIP3    H139634   5.534   0.462   0.517 -1.9327  0.4311 -0.4250
 6073TIP3    H239635   5.609   0.513   0.396  0.3547 -0.3602  0.6107
 6074TIP3   OH239636   1.625   3.219   0.649 -0.1174 -0.0410 -0.4077
 6074TIP3    H139637   1.582   3.140   0.683 -1.6110  0.1938 -1.6334
 6074TIP3    H239638   1.553   3.272   0.615  0.9794  1.3528 -0.6031
 6075TIP3   OH239639   5.763   4.417  12.925 -0.2156 -0.6737  0.1536
 6075TIP3    H139640   5.845   4.447  12.962  0.7296 -0.9071 -1.6363
 6075TIP3    H239641   5.789   4.361  12.852 -1.9562 -0.2589 -0.8345
 6076TIP3   OH239642   1.790   5.476   1.419  0.3844 -0.0366 -0.4756
 6076TIP3    H139643   1.702   5.513   1.419 -0.0449 -0.8990  1.5047
 6076TIP3    H239644   1.835   5.521   1.491  1.8351  0.9335 -1.9367
 6077TIP3   OH239645   2.080   6.485  13.676  0.7534 -0.9040 -0.1075
 6077TIP3    H139646   2.066   6.508  13.767  0.8781 -1.0570 -0.0489
 6077TIP3    H239647   2.101   6.391  13.678 -0.4563 -1.1920 -0.4062
 6078TIP3   OH239648   1.307   4.863   3.583 -0.1456 -0.6560  0.1359
 6078TIP3    H139649   1.284   4.849   3.675 -1.8232 -0.3818 -0.2042
 6078TIP3    H239650   1.222   4.874   3.539  0.6856  0.8734 -1.1678
 6079TIP3   OH239651   2.280   4.505   3.960  0.4343  0.6638  0.6585
 6079TIP3    H139652   2.273   4.565   3.885 -0.6790 -0.9215 -0.5712
 6079TIP3    H239653   2.195   4.513   4.003  0.0619 -0.4317  0.1481
 6080TIP3   OH239654   1.002   1.722  17.039 -0.0412  0.4214  0.3339
 6080TIP3    H139655   1.011   1.678  17.124 -0.5624 -0.0025  0.1787
 6080TIP3    H239656   0.930   1.675  16.996  1.0991 -0.2448 -0.8922
 6081TIP3   OH239657   0.288   1.064  14.773 -0.0626  0.6496  0.0832
 6081TIP3    H139658   0.320   1.003  14.839  1.8503  0.0438 -1.3278
 6081TIP3    H239659   0.274   1.146  14.821  0.1399 -0.0866  1.4477
 6082TIP3   OH239660   0.254   0.410  16.387  0.0648 -0.3430 -0.1114
 6082TIP3    H139661   0.306   0.383  16.312  0.5886 -1.7854  0.7123
 6082TIP3    H239662   0.304   0.482  16.426  0.3429 -0.3011 -0.5349
 6083TIP3   OH239663   3.540   1.351  15.394  0.5488 -0.2323 -0.4746
 6083TIP3    H139664   3.446   1.337  15.406  0.5819  0.5705  0.9990
 6083TIP3    H239665   3.548   1.390  15.307 -0.5036 -0.0715 -0.5077
 6084TIP3   OH239666   3.985   2.960   1.238  0.1400  0.3127 -0.3060
 6084TIP3    H139667   3.939   2.948   1.155 -0.4303  1.7211 -0.2171
 6084TIP3    H239668   3.926   2.922   1.303  1.1762 -2.0264 -0.6200
 6085TIP3   OH239669   5.731   4.174   5.891  0.0232  0.3224  0.0325
 6085TIP3    H139670   5.823   4.161   5.866  0.6308 -2.6463  2.9951
 6085TIP3    H239671   5.685   4.099   5.855 -0.4472 -0.1702  1.5628
 6086TIP3   OH239672   0.413   2.230  15.261 -0.3362  0.0146 -0.9380
 6086TIP3    H139673   0.441   2.188  15.179  0.5316 -0.9701 -0.1762
 6086TIP3    H239674   0.387   2.157  15.317 -2.0496  0.7538 -0.7134
 6087TIP3   OH239675   4.819   5.069  15.588  0.3725  0.3593  0.1398
 6087TIP3    H139676   4.884   5.102  15.650 -0.1430 -0.6181  1.2386
 6087TIP3    H239677   4.800   4.980  15.619 -0.5100  0.1509 -0.9471
 6088TIP3   OH239678   0.342   2.380  13.052 -0.2233 -0.6474 -0.3159
 6088TIP3    H139679   0.417   2.431  13.022  1.3166 -2.5883  0.0440
 6088TIP3    H239680   0.313   2.424  13.131 -0.3101  0.8779 -1.1677
 6089TIP3   OH239681   5.089   0.254  11.841 -0.4367  0.4737  0.0102
 6089TIP3    H139682   5.044   0.170  11.831 -1.7190  1.3833 -2.9301
 6089TIP3    H239683   5.032   0.318  11.797  1.3196  2.5964  0.6151
 6090TIP3   OH239684   3.305   2.372   3.421 -0.1180  0.2601 -0.5281
 6090TIP3    H139685   3.321   2.448   3.476 -0.5784 -0.9578  1.3818
 6090TIP3    H239686   3.217   2.385   3.385 -0.0217  0.8073 -0.5785
 6091TIP3   OH239687   1.768   1.481  12.521 -0.0436  0.1164 -0.1331
 6091TIP3    H139688   1.801   1.565  12.553 -0.0533  0.2736 -0.5359
 6091TIP3    H239689   1.812   1.416  12.576  1.9879  0.2443 -1.5062
 6092TIP3   OH239690   1.716   5.443  15.119  0.3406 -0.1627  0.2659
 6092TIP3    H139691   1.647   5.507  15.099 -0.4915 -1.5233 -1.4275
 6092TIP3    H239692   1.676   5.385  15.184  0.8359  0.5421  1.2326
 6093TIP3   OH239693   5.513   4.922  13.315  0.7095 -0.1140  0.2658
 6093TIP3    H139694   5.559   4.885  13.241 -0.8173 -0.3755 -0.6025
 6093TIP3    H239695   5.433   4.959  13.277 -0.7763 -1.4536  1.9192
 6094TIP3   OH239696   0.209   6.671   2.579 -0.1509 -0.3171 -0.2983
 6094TIP3    H139697   0.240   6.706   2.495  1.0300  0.5726  0.4868
 6094TIP3    H239698   0.198   6.577   2.563 -1.7300  0.0804 -1.9574
 6095TIP3   OH239699   3.585   1.144  11.693 -0.1015  0.4591 -0.2535
 6095TIP3    H139700   3.621   1.218  11.644 -0.4463  0.2689 -0.8000
 6095TIP3    H239701   3.592   1.070  11.633 -1.9520  0.5300 -0.6322
 6096TIP3   OH239702   6.527   4.088   1.293  0.0725  0.3608 -0.9515
 6096TIP3    H139703   6.613   4.097   1.334  0.0793 -0.2895 -0.8113
 6096TIP3    H239704   6.492   4.006   1.329 -0.4853  0.4775 -1.2235
 6097TIP3   OH239705   4.621   2.611  13.581 -0.4075 -0.0286  0.5631
 6097TIP3    H139706   4.638   2.590  13.490 -1.4965  0.8951  0.1185
 6097TIP3    H239707   4.560   2.543  13.610 -0.2992 -0.1500  0.5028
 6098TIP3   OH239708   3.147   5.968  13.523 -0.8633  0.3332  0.0868
 6098TIP3    H139709   3.181   5.886  13.489 -1.3716 -0.5402  1.5580
 6098TIP3    H239710   3.221   6.028  13.520 -0.3590 -0.3027 -0.5967
 6099TIP3   OH239711   3.177   6.267  11.218  0.4026  0.1988 -0.0852
 6099TIP3    H139712   3.249   6.220  11.260 -0.0498 -1.4790 -1.0849
 6099TIP3    H239713   3.170   6.228  11.131 -1.7873  0.2159  0.0244
 6100TIP3   OH239714   0.448   1.240  11.587  0.1576  0.4771 -0.3522
 6100TIP3    H139715   0.417   1.326  11.556 -0.0555 -0.7315 -3.9205
 6100TIP3    H239716   0.527   1.223  11.535 -0.5706 -2.0297 -0.7672
 6101TIP3   OH239717   4.265   2.132  14.500  0.1780 -0.7986  0.0595
 6101TIP3    H139718   4.182   2.153  14.542  0.7905  2.3115 -0.0502
 6101TIP3    H239719   4.332   2.151  14.566  0.9152 -1.5090 -0.4448
 6102TIP3   OH239720   5.594   0.741  13.385  0.1085 -0.3531  0.3766
 6102TIP3    H139721   5.689   0.752  13.396  0.0834 -0.6540  0.9111
 6102TIP3    H239722   5.575   0.783  13.301  0.7878 -0.6764  0.0469
 6103TIP3   OH239723   6.577   0.157  13.686 -0.1065  0.8163  0.1580
 6103TIP3    H139724   6.520   0.233  13.674 -3.6474 -1.8217 -1.8672
 6103TIP3    H239725   6.580   0.144  13.781 -0.9881  2.3835  0.4304
 6104TIP3   OH239726   2.098   3.857  15.319  0.1786  0.2819 -0.0357
 6104TIP3    H139727   2.004   3.868  15.333 -0.2312 -0.5929 -1.7625
 6104TIP3    H239728   2.106   3.838  15.225  2.0487 -0.0060  0.1401
 6105TIP3   OH239729   6.190   5.369  15.312  0.0411 -0.7017 -0.2767
 6105TIP3    H139730   6.106   5.415  15.310  0.2571 -0.2520  0.3870
 6105TIP3    H239731   6.213   5.367  15.405  2.2220  1.9095 -0.6102
 6106TIP3   OH239732   2.544   3.097  15.216 -0.2043  0.1077  0.3776
 6106TIP3    H139733   2.510   3.028  15.273  2.6261 -1.0162  0.8547
 6106TIP3    H239734   2.541   3.059  15.128  0.5192 -0.2946  0.5230
 6107TIP3   OH239735   4.188   1.812  14.620  0.2171  0.3183 -0.0026
 6107TIP3    H139736   4.177   1.807  14.715  0.2855 -0.1439 -0.0175
 6107TIP3    H239737   4.116   1.866  14.590  0.1362  0.3818  0.3024
 6108TIP3   OH239738   4.964   5.155  11.720 -0.4687 -0.2479  0.9422
 6108TIP3    H139739   5.017   5.077  11.701 -0.9513 -0.5842  0.9563
 6108TIP3    H239740   5.024   5.228  11.708 -0.3182 -0.5431 -0.2678
 6109TIP3   OH239741   2.125   6.432   2.276 -0.0922  0.6163 -0.0158
 6109TIP3    H139742   2.150   6.457   2.365  0.7861  0.3986 -0.1913
 6109TIP3    H239743   2.206   6.437   2.226 -0.2713 -0.7341 -0.4769
 6110TIP3   OH239744   1.884   3.692  11.032  0.0025  0.7015 -0.1440
 6110TIP3    H139745   1.976   3.677  11.055  0.6254  2.9586 -0.8566
 6110TIP3    H239746   1.859   3.770  11.083 -1.1952  0.7252 -0.7182
 6111TIP3   OH239747   5.739   1.071  15.452  0.1274  0.0788 -0.4036
 6111TIP3    H139748   5.666   1.021  15.416  1.5112 -0.8484 -2.0709
 6111TIP3    H239749   5.742   1.046  15.544 -1.4765 -0.0489 -0.3595
 6112TIP3   OH239750   6.748   3.204   3.628  0.1032  0.2769 -0.5622
 6112TIP3    H139751   6.737   3.116   3.664  1.7995  1.4213  3.1998
 6112TIP3    H239752   6.840   3.208   3.602  0.8348  1.6739  1.9289
 6113TIP3   OH239753   6.801   6.030   0.010  0.0446  0.3582 -0.2518
 6113TIP3    H139754   6.750   6.070  -0.060 -0.4260  0.0519 -0.0872
 6113TIP3    H239755   6.736   5.988   0.066  0.4211  0.5736  0.3515
 6114TIP3   OH239756   3.681   4.942  15.470  0.0839  0.9202  0.0788
 6114TIP3    H139757   3.682   5.034  15.493 -0.7134  0.7057  1.0718
 6114TIP3    H239758   3.672   4.896  15.554  0.2677 -0.0465 -0.4121
 6115TIP3   OH239759   1.684   3.614  15.041 -0.7974 -0.4253  0.3878
 6115TIP3    H139760   1.731   3.663  14.973  1.1624 -1.5143  0.8739
 6115TIP3    H239761   1.640   3.681  15.092  1.6106  0.9096  0.9027
 6116TIP3   OH239762   5.802   6.192  10.365  0.0923 -0.5740  0.3803
 6116TIP3    H139763   5.765   6.261  10.419  0.1654 -0.1628 -0.0932
 6116TIP3    H239764   5.810   6.230  10.278 -0.6954 -1.4576 -0.1029
 6117TIP3   OH239765   6.467   3.371  14.337 -0.1230 -0.1237  0.2009
 6117TIP3    H139766   6.380   3.369  14.296  0.0252 -0.8720 -0.0885
 6117TIP3    H239767   6.474   3.459  14.374 -0.5599  0.3247 -0.7478
 6118TIP3   OH239768   5.940   2.251   4.056  0.5601  0.5294  0.6779
 6118TIP3    H139769   5.864   2.288   4.012 -0.5372 -3.6804 -1.4788
 6118TIP3    H239770   6.015   2.284   4.007 -0.1049  1.6947  0.4018
 6119TIP3   OH239771   6.606   4.595  14.218 -0.3451  0.0114  0.3922
 6119TIP3    H139772   6.534   4.655  14.238 -0.2256  0.8462 -1.4292
 6119TIP3    H239773   6.667   4.648  14.166  0.1096 -1.5057 -0.6714
 6120TIP3   OH239774   2.835   3.661   1.111  0.0769  0.2375  0.5573
 6120TIP3    H139775   2.884   3.581   1.131  0.4303  0.5427  0.9336
 6120TIP3    H239776   2.803   3.692   1.196  0.2027  0.6607  0.4566
 6121TIP3   OH239777   6.350   2.925  13.010 -0.5748  0.1085 -0.0106
 6121TIP3    H139778   6.322   2.834  13.014  0.0362 -0.0908 -0.0253
 6121TIP3    H239779   6.354   2.944  12.916  0.3166 -0.1954 -0.0520
 6122TIP3   OH239780   4.929   5.975  14.417  0.0574 -0.4748  0.5141
 6122TIP3    H139781   4.954   6.067  14.412 -0.6866 -0.2419  0.9409
 6122TIP3    H239782   4.850   5.974  14.471 -0.1820 -1.3151  0.1715
 6123TIP3   OH239783   2.992   0.697   1.822  0.4249  0.0534  0.2322
 6123TIP3    H139784   3.062   0.733   1.875  0.3984  1.4238 -0.6248
 6123TIP3    H239785   2.923   0.674   1.885  1.5393 -1.1613  1.0656
 6124TIP3   OH239786   1.462   3.475   3.953  0.2265 -0.2214 -0.3147
 6124TIP3    H139787   1.401   3.513   4.016 -2.2452 -3.0394 -0.7726
 6124TIP3    H239788   1.457   3.532   3.876 -1.5681 -0.1255 -0.1641
 6125TIP3   OH239789   0.926   2.624   1.594 -0.2078  0.1085 -0.0556
 6125TIP3    H139790   0.948   2.531   1.598  2.4485  0.6178 -0.9166
 6125TIP3    H239791   0.854   2.629   1.531  1.8970 -1.1060 -2.7503
 6126TIP3   OH239792   4.032   0.059  11.337 -0.2011  0.2522 -0.5331
 6126TIP3    H139793   4.042   0.151  11.365  1.7412  0.0741 -0.5237
 6126TIP3    H239794   4.012   0.012  11.418  3.0748  0.0925  0.3284
 6127TIP3   OH239795   3.033   2.819  15.026 -0.3531  0.0863  0.1063
 6127TIP3    H139796   3.005   2.800  15.116  0.7695 -0.0435  0.4399
 6127TIP3    H239797   3.120   2.780  15.019 -0.1484  0.6845 -0.8279
 6128TIP3   OH239798   4.404   0.183  12.762 -0.0201 -0.4608  0.5473
 6128TIP3    H139799   4.381   0.151  12.849 -0.7630 -1.9282 -0.1376
 6128TIP3    H239800   4.496   0.157  12.750 -0.0349 -0.6018  0.7455
 6129TIP3   OH239801   4.205   1.766   3.494  0.5192 -0.2970 -0.0220
 6129TIP3    H139802   4.279   1.706   3.508 -0.0671 -0.8256  0.9102
 6129TIP3    H239803   4.158   1.765   3.577 -1.0985 -0.7405 -0.9148
 6130TIP3   OH239804   4.310   3.924   4.022 -0.0622  0.1493 -0.0010
 6130TIP3    H139805   4.278   3.842   4.060 -0.1246  0.8944  1.6486
 6130TIP3    H239806   4.315   3.984   4.097  0.1792  1.5887 -1.1428
 6131TIP3   OH239807   3.394   1.257  14.938  0.2862 -0.5612  0.3500
 6131TIP3    H139808   3.488   1.272  14.931  0.2718 -0.0231  1.1800
 6131TIP3    H239809   3.363   1.328  14.995 -0.3406 -1.7895  1.5834
 6132TIP3   OH239810   1.794   3.410  16.020 -0.3785 -0.0402  0.4567
 6132TIP3    H139811   1.722   3.462  16.054  0.1920  1.7885 -0.9710
 6132TIP3    H239812   1.801   3.434  15.928 -0.4452 -3.1506 -0.4747
 6133TIP3   OH239813   2.940   4.646  14.943  0.2869  0.2207 -0.5533
 6133TIP3    H139814   2.927   4.688  14.858  2.5526  0.2277 -0.9628
 6133TIP3    H239815   2.942   4.718  15.006  1.7975  0.5799 -0.9572
 6134TIP3   OH239816   3.589   1.575   0.932  0.2059  0.3764 -0.3571
 6134TIP3    H139817   3.669   1.581   0.984  0.0347 -0.3567  0.0017
 6134TIP3    H239818   3.544   1.497   0.965  1.3343 -1.7213 -3.2741
 6135TIP3   OH239819   1.383   1.441  10.907 -0.5883  0.4528 -0.3614
 6135TIP3    H139820   1.443   1.509  10.937  1.0084 -0.6132 -0.9518
 6135TIP3    H239821   1.435   1.360  10.910 -2.2464 -0.6631 -0.1965
 6136TIP3   OH239822   4.043   1.917  13.167 -0.1598 -0.4170 -0.3213
 6136TIP3    H139823   4.060   2.002  13.125  1.2056  1.2512  3.1992
 6136TIP3    H239824   3.992   1.939  13.245  1.6862 -2.5441  1.6095
 6137TIP3   OH239825   3.277   5.644   4.560 -0.6108 -0.0887 -0.1756
 6137TIP3    H139826   3.267   5.693   4.642 -1.0697  0.3743 -0.5026
 6137TIP3    H239827   3.351   5.586   4.576 -0.0428  0.7174  0.2185
 6138TIP3   OH239828   6.356   2.119   4.951 -0.0365 -0.0692  0.2681
 6138TIP3    H139829   6.356   2.083   5.040 -1.2253 -2.2988 -0.5701
 6138TIP3    H239830   6.396   2.051   4.897 -0.9414  0.4828 -1.1591
 6139TIP3   OH239831   4.211   2.242   2.039  0.3772 -0.5850  0.6896
 6139TIP3    H139832   4.205   2.337   2.026 -1.3926 -0.7610  0.0693
 6139TIP3    H239833   4.183   2.229   2.130  1.0152 -0.4909  0.9057
 6140TIP3   OH239834   1.565   6.128   3.178 -0.0676  0.0213 -0.0943
 6140TIP3    H139835   1.656   6.147   3.202 -0.0255 -1.9474  1.5855
 6140TIP3    H239836   1.522   6.213   3.180  1.3830  0.7823  0.8010
 6141TIP3   OH239837   3.497   5.729   0.557 -0.2915 -0.5674 -0.1899
 6141TIP3    H139838   3.558   5.689   0.619  0.4614  0.3190 -0.3442
 6141TIP3    H239839   3.448   5.655   0.521  1.2903 -1.3962 -0.7350
 6142TIP3   OH239840   3.672   1.992   5.538  0.2116 -0.6246 -0.0876
 6142TIP3    H139841   3.738   1.928   5.511 -1.6105 -2.1245 -1.2448
 6142TIP3    H239842   3.653   2.042   5.458 -1.9924 -2.0880 -0.5649
 6143TIP3   OH239843   2.057   3.643   3.377 -0.0020  0.4416 -0.1240
 6143TIP3    H139844   2.135   3.592   3.399  0.2689  0.8457 -0.1295
 6143TIP3    H239845   1.984   3.589   3.406  0.3293  1.4456  3.0323
 6144TIP3   OH239846   0.865   6.419  11.312 -0.2467  0.0460  0.2988
 6144TIP3    H139847   0.842   6.468  11.391  0.4868  1.3507 -0.2653
 6144TIP3    H239848   0.852   6.328  11.336  2.7334  0.1605  2.9260
 6145TIP3   OH239849   3.053   3.169  10.340 -0.4569  0.1707  0.1193
 6145TIP3    H139850   3.017   3.177  10.428 -1.3895 -0.2694 -0.2150
 6145TIP3    H239851   2.981   3.192  10.282  1.0477  4.1009 -0.5592
 6146TIP3   OH239852   6.557   5.706   5.289 -0.1920 -0.3503 -0.5851
 6146TIP3    H139853   6.587   5.618   5.267 -0.2427 -0.2584 -1.0408
 6146TIP3    H239854   6.488   5.724   5.224 -0.0507  0.0980 -0.6120
 6147TIP3   OH239855   2.783   4.906   4.500 -0.4109 -0.0636 -0.3832
 6147TIP3    H139856   2.854   4.942   4.447 -1.4473  1.6321 -0.6946
 6147TIP3    H239857   2.823   4.888   4.585  0.3675  1.1050 -0.4809
 6148TIP3   OH239858   2.576   0.468   1.812 -0.2226  0.1844  0.5630
 6148TIP3    H139859   2.653   0.515   1.780  0.4416  0.0152  1.8460
 6148TIP3    H239860   2.505   0.495   1.754  0.4392  1.6987  0.4158
 6149TIP3   OH239861   4.368   3.497   4.157  0.2165  0.0794  0.2396
 6149TIP3    H139862   4.407   3.458   4.078  3.6706  0.4154  1.6356
 6149TIP3    H239863   4.311   3.428   4.191 -0.2491 -0.5944 -1.7272
 6150TIP3   OH239864   5.362   0.461  15.609  0.1243  0.0633 -0.0726
 6150TIP3    H139865   5.408   0.408  15.544 -0.6834  1.0147 -1.5029
 6150TIP3    H239866   5.293   0.404  15.642  1.3799 -0.8752  0.9766
 6151TIP3   OH239867   4.152   3.907   1.206 -0.4293 -0.2201 -0.1976
 6151TIP3    H139868   4.129   3.833   1.261 -0.6218  0.9808  1.4183
 6151TIP3    H239869   4.237   3.936   1.239 -1.4343  1.7293  0.8610
 6152TIP3   OH239870   1.828   1.166  15.395  0.1624  0.0810  0.5259
 6152TIP3    H139871   1.783   1.120  15.324  0.3335  2.1813 -1.0706
 6152TIP3    H239872   1.763   1.229  15.427  1.3052  1.9221 -0.5993
 6153TIP3   OH239873   5.180   5.664  14.408 -0.0152 -0.2580  0.7387
 6153TIP3    H139874   5.216   5.738  14.359 -0.0074 -0.1339  0.9322
 6153TIP3    H239875   5.093   5.650  14.370  0.4942 -1.0010 -0.2105
 6154TIP3   OH239876   2.899   3.581  13.542 -0.6356  0.1136  0.3263
 6154TIP3    H139877   2.878   3.530  13.620  2.0799 -0.4584  0.7579
 6154TIP3    H239878   2.935   3.518  13.481 -1.1843  0.8453 -0.7807
 6155TIP3   OH239879   0.567   3.356  15.471 -0.0031  0.2930 -0.1671
 6155TIP3    H139880   0.646   3.340  15.419 -0.5656 -0.4813 -0.8051
 6155TIP3    H239881   0.579   3.300  15.549  0.1132  0.2310 -0.2287
 6156TIP3   OH239882   4.696   5.425   4.041  0.1803  0.2632  0.2329
 6156TIP3    H139883   4.611   5.445   4.081  0.4783  1.7441  0.1846
 6156TIP3    H239884   4.719   5.338   4.076 -0.6102  0.5331  1.5097
 6157TIP3   OH239885   2.814   3.989   0.460 -0.3146  0.0559  0.4069
 6157TIP3    H139886   2.744   3.938   0.500  0.5289 -1.2598  0.2452
 6157TIP3    H239887   2.770   4.067   0.426 -1.4325  0.0304  1.7181
 6158TIP3   OH239888   5.114   0.332   3.295  0.2719  0.1949 -0.0935
 6158TIP3    H139889   5.096   0.338   3.201 -1.3974  1.5512  0.2763
 6158TIP3    H239890   5.180   0.399   3.311 -1.2548  1.7119  0.0781
 6159TIP3   OH239891   2.405   6.169  14.365 -0.0903  0.5258 -0.4665
 6159TIP3    H139892   2.332   6.186  14.304  0.7864 -0.2100 -1.7715
 6159TIP3    H239893   2.380   6.089  14.411 -0.4832  0.7492 -0.2848
 6160TIP3   OH239894   2.424   6.068   0.639 -0.4159 -0.0237 -0.4040
 6160TIP3    H139895   2.431   6.131   0.711  0.1602  2.0467 -2.1977
 6160TIP3    H239896   2.341   6.088   0.597 -0.4165 -0.7416 -0.7634
 6161TIP3   OH239897   4.258   0.947   0.936  0.1592 -0.0164 -1.1035
 6161TIP3    H139898   4.328   0.973   0.996 -0.8613 -0.0305  0.1602
 6161TIP3    H239899   4.200   1.023   0.934  0.1372 -0.0525 -2.0290
 6162TIP3   OH239900   5.359   3.762  15.579 -0.8907 -0.2517 -0.4905
 6162TIP3    H139901   5.329   3.802  15.661  1.0966 -0.7112  0.5208
 6162TIP3    H239902   5.399   3.833  15.531 -0.2446 -0.3730 -0.1396
 6163TIP3   OH239903   5.719   0.564  12.519 -0.1901  0.0116  0.4775
 6163TIP3    H139904   5.782   0.573  12.590  1.4524 -0.2537 -0.8800
 6163TIP3    H239905   5.672   0.483  12.538 -0.3153  0.3537  1.6546
 6164TIP3   OH239906   0.884   3.586  13.896 -0.3081 -0.1589  0.1123
 6164TIP3    H139907   0.914   3.675  13.916 -0.3206 -0.4171  1.3712
 6164TIP3    H239908   0.810   3.572  13.956 -0.5165 -0.8988 -0.3043
 6165TIP3   OH239909   6.577   4.601  12.393  0.0498  0.1535 -0.2420
 6165TIP3    H139910   6.530   4.657  12.332 -0.3759 -0.1414 -0.1905
 6165TIP3    H239911   6.578   4.515  12.350  0.3967  0.1191 -0.1669
 6166TIP3   OH239912   2.978   1.862   4.876  0.2512 -0.0480 -0.4453
 6166TIP3    H139913   3.026   1.821   4.948 -1.3522  0.0502  0.7223
 6166TIP3    H239914   2.891   1.821   4.878 -0.2052  0.7974 -1.5935
 6167TIP3   OH239915   1.928   4.835  13.223  0.5388  0.1613 -0.6541
 6167TIP3    H139916   1.989   4.871  13.158 -1.7176  3.9274 -1.0117
 6167TIP3    H239917   1.921   4.905  13.289 -0.4153 -1.8151  1.4600
 6168TIP3   OH239918   2.894   5.246  13.959  0.3331 -0.2753 -0.2641
 6168TIP3    H139919   2.801   5.267  13.973  0.1112 -1.8075  0.9272
 6168TIP3    H239920   2.896   5.151  13.949  1.6533 -0.1401 -1.6203
 6169TIP3   OH239921   4.876   6.630  12.321  0.6663 -0.5197 -0.4692
 6169TIP3    H139922   4.808   6.579  12.364 -0.9613  1.9553  0.0878
 6169TIP3    H239923   4.880   6.596  12.232 -3.1321  0.7749 -1.3169
 6170TIP3   OH239924   0.756   5.356  15.909  0.1862  0.2057 -0.8730
 6170TIP3    H139925   0.712   5.288  15.856 -0.7386  0.7942 -0.8763
 6170TIP3    H239926   0.832   5.381  15.857  0.8688 -1.2308 -0.6108
 6171TIP3   OH239927   6.137   6.809  16.327  0.5805  0.3040 -0.0565
 6171TIP3    H139928   6.183   6.726  16.313  0.6190  0.2022  0.6302
 6171TIP3    H239929   6.160   6.862  16.251 -1.0111 -0.9800 -1.5259
 6172TIP3   OH239930   4.608   2.467   1.028  0.5126 -0.0852  0.4425
 6172TIP3    H139931   4.669   2.512   0.969 -0.9500  0.1495 -0.9942
 6172TIP3    H239932   4.590   2.383   0.985  0.7384 -0.6591  1.4533
 6173TIP3   OH239933   0.689   4.883  11.026  0.5461 -0.3179 -0.2302
 6173TIP3    H139934   0.729   4.846  10.947 -1.8226 -1.0327 -1.1770
 6173TIP3    H239935   0.616   4.824  11.046  1.6464 -0.7831  3.1531
 6174TIP3   OH239936   4.992   1.298  14.489  0.1691  0.2753 -0.8680
 6174TIP3    H139937   5.029   1.227  14.437 -0.9216 -0.1765 -1.0515
 6174TIP3    H239938   5.043   1.298  14.569  0.1849 -0.7211 -0.8668
 6175TIP3   OH239939   3.893   3.021  10.998 -0.0998 -0.1102  0.1476
 6175TIP3    H139940   3.972   3.055  10.955 -0.2435  1.5100  1.0723
 6175TIP3    H239941   3.912   3.028  11.092 -1.5025  0.7444  0.3910
 6176TIP3   OH239942   5.485   6.347  11.820  0.3230 -0.2947  0.3422
 6176TIP3    H139943   5.510   6.290  11.748 -0.1886  0.0343 -0.1070
 6176TIP3    H239944   5.427   6.413  11.780  0.1765 -0.0012  1.0144
 6177TIP3   OH239945   0.862   0.873   4.348  0.4649 -0.0186 -0.2814
 6177TIP3    H139946   0.830   0.818   4.420 -0.6325  4.0563  2.6926
 6177TIP3    H239947   0.785   0.922   4.320  1.5782  0.7868 -2.0730
 6178TIP3   OH239948   0.595   3.171   6.111  0.4185 -0.2305 -0.5913
 6178TIP3    H139949   0.539   3.110   6.159 -0.3219 -0.7122 -2.0037
 6178TIP3    H239950   0.570   3.257   6.143 -1.3596 -0.4151 -1.3745
 6179TIP3   OH239951   0.531   1.876   2.361 -0.8667 -0.3437  0.4102
 6179TIP3    H139952   0.547   1.861   2.268 -0.9078  0.6709  0.2277
 6179TIP3    H239953   0.592   1.946   2.385 -2.8683  1.4769  0.4254
 6180TIP3   OH239954   3.918   3.966  13.750 -0.4219 -0.0048 -0.8963
 6180TIP3    H139955   3.963   3.908  13.811 -1.0288  0.5411  0.0962
 6180TIP3    H239956   3.859   3.908  13.701 -2.7350 -0.0096  1.6525
 6181TIP3   OH239957   6.364   2.492  16.013 -0.3305 -0.1126 -0.7486
 6181TIP3    H139958   6.403   2.579  16.015 -1.2907  0.3220  0.7260
 6181TIP3    H239959   6.407   2.444  16.083 -0.5696 -0.4781 -0.8475
 6182TIP3   OH239960   1.672   2.868   5.474 -0.1274  0.0694 -0.2118
 6182TIP3    H139961   1.584   2.843   5.447 -0.1952  1.2359 -1.1709
 6182TIP3    H239962   1.723   2.788   5.469 -1.4318 -0.9633  1.7844
 6183TIP3   OH239963   6.616   1.259   0.059 -0.4646  0.1963 -0.2157
 6183TIP3    H139964   6.617   1.245   0.153 -0.0419 -0.3070 -0.2922
 6183TIP3    H239965   6.657   1.345   0.047 -2.8707  1.5067  0.2379
 6184TIP3   OH239966   3.016   3.457   1.166  0.3011 -0.0427  0.3696
 6184TIP3    H139967   3.018   3.365   1.194  0.6961 -0.3762 -0.7292
 6184TIP3    H239968   3.062   3.458   1.083  0.0528  1.1137  0.2328
 6185TIP3   OH239969   5.772   5.293   0.117 -0.1344  0.2737  0.1165
 6185TIP3    H139970   5.709   5.265   0.183  0.5028  0.2427  0.7246
 6185TIP3    H239971   5.806   5.212   0.079 -1.9139  0.3023 -1.6457
 6186TIP3   OH239972   4.086   6.582  14.989  0.2905 -0.3827 -0.1838
 6186TIP3    H139973   4.181   6.585  14.990  0.3475 -1.0127  1.6589
 6186TIP3    H239974   4.062   6.567  15.081 -1.6270  0.8278 -0.4280
 6187TIP3   OH239975   2.781   3.777   3.999  0.3378  0.5746  0.5276
 6187TIP3    H139976   2.800   3.691   3.961 -2.3873  0.8961 -1.9467
 6187TIP3    H239977   2.711   3.761   4.062  0.2240  0.8872  0.4841
 6188TIP3   OH239978   4.553   5.688  14.054  0.3188  0.1799  0.5511
 6188TIP3    H139979   4.558   5.766  13.998  0.4376  1.0784  1.7636
 6188TIP3    H239980   4.477   5.641  14.022  0.2930  0.7522 -0.2659
 6189TIP3   OH239981   6.109   6.315  12.317 -0.3907  0.2378 -0.3532
 6189TIP3    H139982   6.065   6.283  12.238 -2.3889  1.5174  0.1672
 6189TIP3    H239983   6.044   6.369  12.361  1.2492  1.0138  1.2860
 6190TIP3   OH239984   5.205   1.848  16.622  0.6338  0.5644  0.8455
 6190TIP3    H139985   5.286   1.847  16.571  0.4816  0.1472  0.5984
 6190TIP3    H239986   5.145   1.903  16.572  0.6274  0.5192  0.8027
 6191TIP3   OH239987   5.412   4.384  14.608  0.2129 -0.2668  0.8061
 6191TIP3    H139988   5.415   4.478  14.594 -0.3407 -0.1376  1.5215
 6191TIP3    H239989   5.500   4.353  14.585  1.3077  0.8026  3.2367
 6192TIP3   OH239990   4.446   0.858  11.771  0.5932 -0.2282 -0.5146
 6192TIP3    H139991   4.369   0.873  11.715 -0.6381 -0.8951  0.9469
 6192TIP3    H239992   4.431   0.773  11.811 -0.0199  1.3386  2.9796
 6193TIP3   OH239993   3.520   2.763   1.991  0.3653  0.3189 -0.1526
 6193TIP3    H139994   3.468   2.685   1.975  0.5532  0.2564 -0.4733
 6193TIP3    H239995   3.500   2.788   2.081 -1.8613  1.5353 -0.9067
 6194TIP3   OH239996   4.472   2.392  16.060  0.1887  0.2595  0.2908
 6194TIP3    H139997   4.524   2.469  16.082  0.9647 -0.7440  2.2684
 6194TIP3    H239998   4.381   2.420  16.073  0.5262  0.3123  3.2270
 6195TIP3   OH239999   0.346   5.608  15.077  0.0296 -0.2419  0.3909
 6195TIP3    H140000   0.280   5.665  15.039 -1.2244 -1.0089  1.3233
 6195TIP3    H240001   0.306   5.521  15.077  2.9089 -1.8632 -3.6618
 6196TIP3   OH240002   0.352   4.180  11.027  0.2698  0.5694  0.2056
 6196TIP3    H140003   0.299   4.138  11.094 -0.4215 -1.0876 -1.2986
 6196TIP3    H240004   0.289   4.221  10.968  0.5881 -1.1736 -1.4408
 6197TIP3   OH240005   5.888   3.341   5.030  0.8783 -0.5272  0.1932
 6197TIP3    H140006   5.931   3.371   4.949  0.3113 -1.6124 -0.5373
 6197TIP3    H240007   5.897   3.415   5.090  2.0136  0.0071 -0.5930
 6198TIP3   OH240008   2.675   0.135  11.432  0.1072 -0.0482  0.3431
 6198TIP3    H140009   2.645   0.221  11.462 -1.2181  0.6805 -2.6711
 6198TIP3    H240010   2.762   0.151  11.397 -0.1035  0.0862 -0.1353
 6199TIP3   OH240011   0.670   3.332  13.800 -0.4128  0.0199 -0.2047
 6199TIP3    H140012   0.748   3.385  13.819 -0.4660 -0.0151  0.1042
 6199TIP3    H240013   0.685   3.300  13.711  0.2592 -0.5661  0.1112
 6200TIP3   OH240014   1.239   2.844   3.539  0.0645  0.4652 -0.6380
 6200TIP3    H140015   1.238   2.909   3.609 -0.8124  1.0889 -1.2115
 6200TIP3    H240016   1.217   2.762   3.581  0.2749  0.6986 -0.0632
 6201TIP3   OH240017   4.324   4.317  13.175  0.1164  0.3779 -0.4857
 6201TIP3    H140018   4.315   4.371  13.097 -0.0305  2.5945  0.9684
 6201TIP3    H240019   4.363   4.376  13.240 -1.9920 -0.6361  1.8356
 6202TIP3   OH240020   2.208   6.593   2.079 -0.7878  0.5035  0.3836
 6202TIP3    H140021   2.218   6.650   2.003  0.4620  0.7994  0.7472
 6202TIP3    H240022   2.134   6.631   2.127 -1.7812  0.1313 -0.8185
 6203TIP3   OH240023   0.918   3.099  15.210  0.1475 -0.3734 -0.4302
 6203TIP3    H140024   0.976   3.138  15.145 -1.6764  1.8772 -0.8091
 6203TIP3    H240025   0.875   3.027  15.164 -1.5490  1.5451 -1.9966
 6204TIP3   OH240026   6.468   0.424   2.116  0.1970 -1.1368  0.3463
 6204TIP3    H140027   6.524   0.375   2.176  1.3978  0.0757  0.2825
 6204TIP3    H240028   6.496   0.396   2.029  1.0743 -0.2008  0.3028
 6205TIP3   OH240029   3.334   6.455  15.604 -0.4995  0.2230  0.2914
 6205TIP3    H140030   3.424   6.487  15.605  0.8426 -3.1342  0.0922
 6205TIP3    H240031   3.308   6.455  15.696  0.2934 -0.2412  0.5252
 6206TIP3   OH240032   6.776   6.223  11.164 -0.5212 -0.0964  0.0509
 6206TIP3    H140033   6.855   6.175  11.138  1.2693  2.3116  0.6746
 6206TIP3    H240034   6.791   6.312  11.132 -3.0077  0.4481  0.2432
 6207TIP3   OH240035   6.591   5.428   1.269 -0.5323  0.4114  0.9373
 6207TIP3    H140036   6.571   5.335   1.264  0.6291  0.1308  1.1584
 6207TIP3    H240037   6.643   5.437   1.350 -1.8821  1.5031  1.7245
 6208TIP3   OH240038   0.528   4.257  13.548  0.4199 -0.2904 -0.7024
 6208TIP3    H140039   0.532   4.269  13.643 -1.1410  0.4204 -0.7006
 6208TIP3    H240040   0.537   4.162  13.536 -0.5477 -0.5162  0.2403
 6209TIP3   OH240041   0.346   5.536  11.438 -0.1161  0.4200 -0.0582
 6209TIP3    H140042   0.354   5.462  11.377  2.0132 -0.0384  0.6931
 6209TIP3    H240043   0.395   5.606  11.396 -0.6446  0.8574  0.0506
 6210TIP3   OH240044   3.225   4.497  13.790 -0.1618 -0.0410 -0.2061
 6210TIP3    H140045   3.167   4.566  13.822  0.2332 -0.4766  1.5843
 6210TIP3    H240046   3.178   4.416  13.811  0.5403 -0.3644  0.1371
 6211TIP3   OH240047   0.925   2.844   4.078 -0.7647  0.0455 -0.2498
 6211TIP3    H140048   1.001   2.864   4.024 -0.6369 -0.6275 -0.3355
 6211TIP3    H240049   0.937   2.752   4.103  0.4145  0.8888  2.8431
 6212TIP3   OH240050   1.143   4.981  11.591  0.0308 -0.0687 -0.1556
 6212TIP3    H140051   1.086   5.026  11.528  1.2299  0.6397 -0.7687
 6212TIP3    H240052   1.163   5.048  11.657 -0.2319 -0.4548  0.3216
 6213TIP3   OH240053   4.002   4.067  11.558  0.3116 -0.6311 -0.2269
 6213TIP3    H140054   4.065   4.051  11.488  0.7336 -1.6935  0.3603
 6213TIP3    H240055   4.049   4.042  11.638  0.3198  1.8490  0.6132
 6214TIP3   OH240056   0.387   0.646   4.955 -0.0106 -0.5275  0.0926
 6214TIP3    H140057   0.397   0.729   4.909 -0.4788 -0.3587  0.2885
 6214TIP3    H240058   0.318   0.662   5.019  2.5552  0.1129  2.9281
 6215TIP3   OH240059   6.302   5.799   5.204  0.4602  0.5963 -0.0349
 6215TIP3    H140060   6.240   5.760   5.265 -1.0502  2.1847 -0.4653
 6215TIP3    H240061   6.256   5.801   5.120  1.7986  0.1594 -0.8137
 6216TIP3   OH240062   0.591   0.861   2.479  0.9982  0.2140 -0.0252
 6216TIP3    H140063   0.539   0.899   2.407  1.5642 -1.4835 -1.3947
 6216TIP3    H240064   0.667   0.918   2.486  0.8721  0.4798 -0.7027
 6217TIP3   OH240065   0.709   4.763   3.923  0.0754  0.1225  0.0779
 6217TIP3    H140066   0.696   4.684   3.975  0.2993 -0.4185 -0.6574
 6217TIP3    H240067   0.677   4.739   3.835 -1.6564  1.4724  0.2819
 6218TIP3   OH240068   0.223   2.769   4.027 -1.0360 -0.0505 -0.2735
 6218TIP3    H140069   0.277   2.805   4.098 -1.4645 -1.2460  0.6938
 6218TIP3    H240070   0.286   2.743   3.960 -0.6645  1.7002 -0.6455
 6219TIP3   OH240071   2.389   2.281   1.061  0.2684 -0.2060 -0.2606
 6219TIP3    H140072   2.351   2.340   0.996 -0.2300 -0.4879 -0.2282
 6219TIP3    H240073   2.417   2.205   1.011  1.1967  0.1769 -0.3481
 6220TIP3   OH240074   0.260   3.505   5.958  0.2644 -0.3293 -0.2550
 6220TIP3    H140075   0.290   3.592   5.984  1.5054 -1.0245  0.7527
 6220TIP3    H240076   0.165   3.514   5.951  0.4770  1.4561 -1.6138
 6221TIP3   OH240077   2.240   3.059   3.211  0.3223 -0.5533 -0.2231
 6221TIP3    H140078   2.191   2.997   3.265  2.3774 -1.0553  1.2095
 6221TIP3    H240079   2.200   3.144   3.229 -0.3410 -1.0057  0.5014
 6222TIP3   OH240080   3.739   3.243   0.688 -0.2126  0.7125 -0.0492
 6222TIP3    H140081   3.801   3.233   0.759 -1.3718  0.6446  0.9954
 6222TIP3    H240082   3.657   3.207   0.723 -0.9665  1.2618 -1.1864
 6223TIP3   OH240083   2.669   2.724   5.970  0.5906 -0.2137  0.2008
 6223TIP3    H140084   2.655   2.694   5.880  0.4346  0.4066  0.0155
 6223TIP3    H240085   2.764   2.730   5.979  0.6822 -1.8065  0.5915
 6224TIP3   OH240086   4.014   2.121  16.303 -0.4282  0.1973  0.0481
 6224TIP3    H140087   4.006   2.198  16.359 -1.7257 -0.8526  1.4137
 6224TIP3    H240088   3.970   2.052  16.352  0.3314 -1.3213 -1.3166
 6225TIP3   OH240089   1.117   4.478  14.431 -0.7698 -0.1810 -0.3015
 6225TIP3    H140090   1.033   4.522  14.446 -0.2298  0.8651 -0.2869
 6225TIP3    H240091   1.180   4.549  14.422  0.3844 -0.9758  1.1470
 6226TIP3   OH240092   2.046   3.573   5.163  0.5295  0.1706 -0.2147
 6226TIP3    H140093   2.139   3.573   5.140  0.6663 -1.3615  0.2380
 6226TIP3    H240094   2.044   3.550   5.256 -0.3198 -0.2502 -0.3239
 6227TIP3   OH240095   2.436   1.264  13.740 -0.2172 -0.0467  0.3154
 6227TIP3    H140096   2.370   1.196  13.744  1.6240 -1.9570  0.0902
 6227TIP3    H240097   2.476   1.265  13.827  1.5013 -1.1529 -0.4155
 6228TIP3   OH240098   2.324   5.074  15.796  0.2700  0.4608  0.0991
 6228TIP3    H140099   2.326   4.983  15.828  0.3069 -0.1818 -1.6244
 6228TIP3    H240100   2.301   5.066  15.704 -1.3974  2.3363  0.2805
 6229TIP3   OH240101   4.357   2.601  12.834  0.5642  0.0758  0.2740
 6229TIP3    H140102   4.374   2.615  12.741  0.8177  0.4103  0.3707
 6229TIP3    H240103   4.376   2.508  12.848 -0.8519 -0.3379 -0.3087
 6230TIP3   OH240104   0.438   0.309   5.672 -0.7854  0.5208 -0.1916
 6230TIP3    H140105   0.476   0.396   5.679 -1.7037  0.8953  0.4018
 6230TIP3    H240106   0.438   0.276   5.762 -1.4561  0.3599 -0.2439
 6231TIP3   OH240107   2.210   1.629   1.428  0.3467  0.2796 -0.0040
 6231TIP3    H140108   2.288   1.655   1.476  0.1463  1.9107 -0.5111
 6231TIP3    H240109   2.202   1.693   1.357  0.2549 -1.6443 -1.8331
 6232TIP3   OH240110   4.717   1.677   5.731  0.2592  0.1316 -0.2558
 6232TIP3    H140111   4.676   1.669   5.817 -0.1203 -0.4835 -0.4833
 6232TIP3    H240112   4.711   1.770   5.710 -0.1680  0.1947  0.1322
 6233TIP3   OH240113   4.497   4.855  12.571 -0.5726  0.0970 -0.1963
 6233TIP3    H140114   4.564   4.920  12.550 -1.4484  0.9168 -0.4997
 6233TIP3    H240115   4.432   4.903  12.622 -0.8607 -0.7269  0.2312
 6234TIP3   OH240116   4.102   3.725  12.943 -0.0467  0.1989  0.3917
 6234TIP3    H140117   4.105   3.630  12.936  0.4538  0.1252  1.4955
 6234TIP3    H240118   4.173   3.748  13.003  0.3622  1.3384 -0.4833
 6235TIP3   OH240119   0.344   6.464  11.599 -0.4223 -0.0683  0.3621
 6235TIP3    H140120   0.292   6.542  11.617 -1.8157 -0.1123 -2.7685
 6235TIP3    H240121   0.422   6.496  11.555 -0.7729 -0.3716 -0.5052
 6236TIP3   OH240122   1.298   4.767   0.371  0.4826  0.2191 -0.4452
 6236TIP3    H140123   1.209   4.800   0.364  1.3878  3.1415  0.2456
 6236TIP3    H240124   1.288   4.676   0.398 -2.2642  0.0006 -1.9050
 6237TIP3   OH240125   5.797   6.249  14.078 -0.1312 -0.6716 -0.0474
 6237TIP3    H140126   5.832   6.187  14.014 -1.5359 -0.1051 -1.4316
 6237TIP3    H240127   5.824   6.214  14.163  2.9323 -0.7432 -0.9233
 6238TIP3   OH240128   4.165   0.295   1.540 -0.6790  0.6832  0.3994
 6238TIP3    H140129   4.090   0.293   1.480 -0.6727 -0.5571  0.4036
 6238TIP3    H240130   4.145   0.365   1.601 -0.9857  1.5535 -0.6647
 6239TIP3   OH240131   2.490   1.251  14.023  0.6510  0.8006  0.7239
 6239TIP3    H140132   2.431   1.213  14.088  1.2203 -1.6861 -0.1152
 6239TIP3    H240133   2.573   1.205  14.036  0.8355  0.3737 -1.5726
 6240TIP3   OH240134   1.856   3.694  12.093 -0.0179 -0.1161  0.0271
 6240TIP3    H140135   1.817   3.692  12.006 -0.2656 -0.6404  0.1521
 6240TIP3    H240136   1.806   3.760  12.141  0.7175  0.8654 -0.5036
 6241TIP3   OH240137   5.549   2.702  14.511 -0.2142  0.1586  0.5628
 6241TIP3    H140138   5.478   2.759  14.482  0.8955  1.4638  0.3038
 6241TIP3    H240139   5.553   2.716  14.606 -0.0482  0.4037  0.5216
 6242TIP3   OH240140   5.876   3.650  15.854  0.1317 -0.1322  0.0423
 6242TIP3    H140141   5.793   3.613  15.825 -0.3143  2.3770 -2.2327
 6242TIP3    H240142   5.859   3.678  15.944 -1.9169  1.3478 -0.7293
 6243TIP3   OH240143   2.590   5.500  11.819  0.2259  0.1754  0.4152
 6243TIP3    H140144   2.591   5.405  11.833  0.3693  0.0173 -0.5982
 6243TIP3    H240145   2.577   5.537  11.907 -1.7211 -0.8244  0.6204
 6244TIP3   OH240146   3.923   0.118   1.778  0.0084  0.0053  0.1262
 6244TIP3    H140147   3.939   0.105   1.684 -1.5351 -0.3112 -0.1337
 6244TIP3    H240148   3.993   0.176   1.807  0.7367 -0.2081 -1.1396
 6245TIP3   OH240149   2.460   3.343   6.104 -0.0321  0.5830 -0.0313
 6245TIP3    H140150   2.432   3.274   6.165  1.2394  1.1162  1.2270
 6245TIP3    H240151   2.526   3.301   6.050 -2.1394 -0.2924 -2.0890
 6246TIP3   OH240152   1.095   3.580  14.250  0.0855  0.4207  0.4494
 6246TIP3    H140153   1.026   3.644  14.270  0.7736  1.0911  0.7081
 6246TIP3    H240154   1.176   3.621  14.279  0.4242 -1.0874  1.8095
 6247TIP3   OH240155   2.528   6.573   4.952  0.2273  0.2807  0.1614
 6247TIP3    H140156   2.455   6.530   4.907 -1.4947  1.4041  1.7390
 6247TIP3    H240157   2.580   6.612   4.881 -0.3706 -0.9792 -1.0284
 6248TIP3   OH240158   4.483   4.021   4.940  0.5345  0.7534 -0.3997
 6248TIP3    H140159   4.433   3.946   4.973 -0.9974  1.4984 -0.9263
 6248TIP3    H240160   4.427   4.060   4.873  1.7030  1.8270 -0.7982
 6249TIP3   OH240161   5.524   1.634   6.322 -0.1491 -0.0617 -0.5220
 6249TIP3    H140162   5.568   1.570   6.378  0.2085  0.8682  0.2936
 6249TIP3    H240163   5.590   1.661   6.259 -0.3275 -0.5540 -0.9249
 6250TIP3   OH240164   4.584   5.296  16.650 -0.3436 -0.1135 -0.3413
 6250TIP3    H140165   4.563   5.216  16.698 -1.1918 -1.0754 -2.2471
 6250TIP3    H240166   4.663   5.275  16.601 -0.2419  0.4230 -0.4137
 6251TIP3   OH240167   3.432   3.040  16.661 -0.3502 -0.0201 -0.1131
 6251TIP3    H140168   3.464   2.977  16.726  0.9076 -0.6175 -1.2866
 6251TIP3    H240169   3.446   3.125  16.702  0.9521 -0.3623  0.1963
 6252TIP3   OH240170   1.275   0.988  13.516 -0.2479 -0.0803  0.2930
 6252TIP3    H140171   1.317   1.027  13.592 -0.7742 -0.4571  0.7925
 6252TIP3    H240172   1.221   1.058  13.479  1.6765  0.7736 -1.0663
 6253TIP3   OH240173   5.042   3.525  16.237 -0.2286 -0.3562 -0.8049
 6253TIP3    H140174   5.077   3.556  16.321 -0.8490 -1.4298 -0.1397
 6253TIP3    H240175   4.973   3.588  16.216 -1.8719 -1.4843  0.8256
 6254TIP3   OH240176   4.198   4.257  13.760 -0.0551  0.5010 -0.2552
 6254TIP3    H140177   4.272   4.198  13.770  0.0748  0.6202 -0.5124
 6254TIP3    H240178   4.237   4.345  13.761 -0.1847  0.5600 -0.4799
 6255TIP3   OH240179   5.897   4.592   1.865  0.6967 -0.0267  0.4058
 6255TIP3    H140180   5.845   4.637   1.931  0.1465 -0.0230 -0.0274
 6255TIP3    H240181   5.871   4.500   1.871 -0.6247  0.2228 -0.9462
 6256TIP3   OH240182   5.060   6.071  16.359  0.9100 -0.1933 -0.6653
 6256TIP3    H140183   5.022   6.132  16.422  1.8809 -0.5169  0.2503
 6256TIP3    H240184   5.013   6.090  16.277 -0.1303  0.4592  0.0549
 6257TIP3   OH240185   2.007   1.193  15.679  0.0025  0.1796 -0.0066
 6257TIP3    H140186   2.025   1.130  15.749 -0.7471 -0.1150 -0.0661
 6257TIP3    H240187   2.032   1.147  15.599  2.0321  0.9688  0.1358
 6258TIP3   OH240188   6.774   1.534   6.503  0.2662 -0.3588  0.3026
 6258TIP3    H140189   6.818   1.462   6.548  0.1025 -0.1689  0.7708
 6258TIP3    H240190   6.821   1.543   6.420 -0.1284 -1.4461 -0.0598
 6259TIP3   OH240191   4.969   4.728  13.736  0.1506 -0.2609  0.3050
 6259TIP3    H140192   5.042   4.713  13.676  1.1766  2.0938  0.8560
 6259TIP3    H240193   4.942   4.818  13.720 -1.3754 -0.4572  1.4803
 6260TIP3   OH240194   4.622   1.595   5.437  0.2311 -0.0079  0.6486
 6260TIP3    H140195   4.672   1.605   5.517 -2.0520 -0.2530  2.2174
 6260TIP3    H240196   4.586   1.506   5.442  2.2009 -1.0921 -2.0471
 6261TIP3   OH240197   3.743   5.421   4.497 -0.2079 -0.1128 -0.0150
 6261TIP3    H140198   3.780   5.494   4.448 -0.8309 -0.1798 -0.5919
 6261TIP3    H240199   3.649   5.439   4.499 -0.0300  1.1593  3.1893
 6262TIP3   OH240200   6.039   5.555   0.860  0.1866 -0.2141 -0.1258
 6262TIP3    H140201   6.106   5.496   0.892 -0.1811 -1.2680 -1.2033
 6262TIP3    H240202   6.087   5.630   0.824  0.7723 -0.7965 -0.5698
 6263TIP3   OH240203   5.607   4.667  15.518  0.3074  0.4174  0.8324
 6263TIP3    H140204   5.671   4.618  15.466 -0.5730  0.4646 -0.3256
 6263TIP3    H240205   5.660   4.729  15.568  1.4866 -1.6851  2.3791
 6264TIP3   OH240206   3.326   5.512  14.073  0.2012  0.0916  0.3037
 6264TIP3    H140207   3.398   5.473  14.023  0.3596 -0.0907  0.6742
 6264TIP3    H240208   3.253   5.451  14.060 -0.1883  0.7712 -0.8777
 6265TIP3   OH240209   1.456   2.039   2.287  0.7044  0.1728  0.0716
 6265TIP3    H140210   1.463   1.973   2.218 -0.1991  0.0261  0.1207
 6265TIP3    H240211   1.438   1.989   2.367  0.8446  0.4177  0.2587
 6266TIP3   OH240212   4.650   1.506  15.562 -0.3031  0.3841 -0.4257
 6266TIP3    H140213   4.604   1.576  15.516 -0.6421  0.2636 -0.2738
 6266TIP3    H240214   4.669   1.441  15.495 -0.8542  0.1785 -0.3877
 6267TIP3   OH240215   6.652   1.995  14.026  0.0553  0.4082 -0.0584
 6267TIP3    H140216   6.558   1.977  14.022 -0.7822  3.3206  2.4084
 6267TIP3    H240217   6.687   1.925  14.080 -1.3193  0.8741  1.5380
 6268TIP3   OH240218   4.724   6.199  15.278  0.3580  0.2503 -0.4373
 6268TIP3    H140219   4.674   6.119  15.292  1.9324 -1.1692 -2.2501
 6268TIP3    H240220   4.699   6.256  15.350 -3.5147 -0.4562 -1.0301
 6269TIP3   OH240221   1.284   0.755  13.329  0.3522  0.3071 -0.3238
 6269TIP3    H140222   1.277   0.841  13.369  0.4698  1.2326 -2.1598
 6269TIP3    H240223   1.240   0.765  13.244 -0.0122 -1.5636 -0.3875
 6270TIP3   OH240224   1.558   3.405  10.325 -0.0774 -0.0971  0.0212
 6270TIP3    H140225   1.521   3.446  10.247  1.0967  0.6649 -0.1596
 6270TIP3    H240226   1.500   3.331  10.343  0.0636 -0.7592 -2.0188
 6271TIP3   OH240227   2.709   0.732  15.839 -0.1942 -0.5236 -0.0875
 6271TIP3    H140228   2.622   0.771  15.838  0.8941  2.3781  2.4432
 6271TIP3    H240229   2.708   0.671  15.912  0.2175  0.5411  0.8363
 6272TIP3   OH240230   3.660   0.172  11.858 -0.3001 -0.2254  0.4768
 6272TIP3    H140231   3.697   0.087  11.882  0.4262 -1.4848 -4.2085
 6272TIP3    H240232   3.577   0.176  11.905 -0.1535 -3.3323  1.1872
 6273TIP3   OH240233   4.847   0.823  16.101  0.4716 -0.6870  0.4644
 6273TIP3    H140234   4.757   0.849  16.120 -0.0489 -1.3841 -0.8909
 6273TIP3    H240235   4.882   0.795  16.186  0.3756  2.2522  1.5818
 6274TIP3   OH240236   3.554   3.453  13.438  0.2523  0.0606  0.4519
 6274TIP3    H140237   3.465   3.487  13.430  1.2733  2.6946 -1.0634
 6274TIP3    H240238   3.564   3.394  13.363  0.4588  1.6294 -0.8181
 6275TIP3   OH240239   1.825   1.749   5.564  0.0270 -0.0445 -0.0121
 6275TIP3    H140240   1.772   1.706   5.498  0.2264  0.4606 -0.5057
 6275TIP3    H240241   1.764   1.769   5.635 -0.1234 -0.8714  0.0980
 6276TIP3   OH240242   4.063   4.961   1.689 -0.0743  0.1109  0.3783
 6276TIP3    H140243   4.141   4.946   1.635 -0.3259  0.7601 -0.1973
 6276TIP3    H240244   4.085   5.039   1.741 -1.3010  2.1030 -1.8445
 6277TIP3   OH240245   6.289   2.528  12.195  0.4747 -0.1904 -0.0022
 6277TIP3    H140246   6.302   2.498  12.105 -1.6254 -0.3551 -0.3039
 6277TIP3    H240247   6.245   2.612  12.186 -1.4539 -1.0533  0.8194
 6278TIP3   OH240248   1.611   2.385   6.615  0.4433 -0.1649  0.1410
 6278TIP3    H140249   1.606   2.431   6.531 -2.5981 -1.3758 -0.4638
 6278TIP3    H240250   1.591   2.452   6.680 -0.0721  0.1986 -0.3770
 6279TIP3   OH240251   6.114   4.872   2.883 -0.0939  0.0482 -0.4739
 6279TIP3    H140252   6.072   4.807   2.826  0.0522 -0.4890  0.0166
 6279TIP3    H240253   6.067   4.953   2.866 -1.7030 -0.6469  0.4457
 6280TIP3   OH240254   4.301   6.756   5.829  0.1881 -0.3932 -0.2398
 6280TIP3    H140255   4.394   6.773   5.814  0.4966 -1.0215  0.8583
 6280TIP3    H240256   4.277   6.811   5.903 -0.3050 -0.2864 -0.4717
 6281TIP3   OH240257   4.203   4.515   0.341  0.4281  0.7151  0.1953
 6281TIP3    H140258   4.241   4.512   0.429  0.8964 -0.9662 -0.0320
 6281TIP3    H240259   4.228   4.431   0.301 -0.3317  1.1731 -1.3104
 6282TIP3   OH240260   2.119   4.102  14.747  0.0948  0.1346 -0.2219
 6282TIP3    H140261   2.139   4.025  14.800 -0.6426  0.4154  0.4804
 6282TIP3    H240262   2.106   4.172  14.811 -0.7286  0.4959 -0.7737
 6283TIP3   OH240263   2.901   6.764  13.609 -0.0698 -0.5948  0.5540
 6283TIP3    H140264   2.818   6.803  13.636 -0.1153 -0.4509  0.2135
 6283TIP3    H240265   2.876   6.695  13.546  0.1581  0.7298 -1.0626
 6284TIP3   OH240266   5.925   6.466  13.959  0.3850  0.4804  0.2467
 6284TIP3    H140267   5.871   6.393  13.990 -0.4186  0.5499 -0.9013
 6284TIP3    H240268   6.012   6.450  13.996 -0.3188  0.1412  1.8016
 6285TIP3   OH240269   4.572   2.137   3.280 -0.0192  0.4700 -0.2726
 6285TIP3    H140270   4.522   2.219   3.271  0.9433  1.1674  0.5602
 6285TIP3    H240271   4.618   2.128   3.197  0.2687  1.0544 -0.1836
 6286TIP3   OH240272   0.313   6.335  11.140 -0.4706  0.4324  0.3143
 6286TIP3    H140273   0.282   6.323  11.229 -1.0181 -0.1316  0.0546
 6286TIP3    H240274   0.347   6.425  11.138  0.5517  0.1000  1.3783
 6287TIP3   OH240275   2.054   5.255   0.112 -0.5949 -0.2813  0.4007
 6287TIP3    H140276   2.096   5.275   0.195  1.7044  1.6298 -1.1001
 6287TIP3    H240277   2.050   5.159   0.109  0.2689 -0.4074  2.2031
 6288TIP3   OH240278   2.535   5.665   3.660  0.3925  0.2930 -0.0886
 6288TIP3    H140279   2.543   5.577   3.624  0.9139  0.1182  0.4471
 6288TIP3    H240280   2.450   5.666   3.703  0.6000 -0.1137  0.3392
 6289TIP3   OH240281   1.401   2.362  17.093  0.1681  0.9610 -0.2159
 6289TIP3    H140282   1.412   2.446  17.138  1.6097  1.2297 -1.0006
 6289TIP3    H240283   1.470   2.362  17.026  2.1541 -2.0654  1.6070
 6290TIP3   OH240284   1.900   3.115   2.713 -0.3077  0.0436 -0.5097
 6290TIP3    H140285   1.939   3.149   2.793  0.0977  0.5410 -0.9111
 6290TIP3    H240286   1.901   3.020   2.724 -1.2005  0.1331  0.5065
 6291TIP3   OH240287   6.204   3.196   5.185 -0.5198 -0.5014  0.3572
 6291TIP3    H140288   6.279   3.142   5.211 -1.3789 -1.5305  0.8402
 6291TIP3    H240289   6.197   3.184   5.091 -0.7325 -1.3122  0.4654
 6292TIP3   OH240290   5.325   0.095  10.776 -0.0917 -0.6870  0.0631
 6292TIP3    H140291   5.235   0.089  10.807 -2.0099  0.6619 -4.3778
 6292TIP3    H240292   5.348   0.188  10.788  0.7248 -0.9962  1.0500
 6293TIP3   OH240293   4.371   0.661   0.720 -0.2898 -0.5580 -0.5104
 6293TIP3    H140294   4.369   0.589   0.657  0.4597  0.5889 -1.9031
 6293TIP3    H240295   4.426   0.727   0.679 -1.0143  0.8520  0.6910
 6294TIP3   OH240296   3.639   1.232  14.556 -0.0887  0.2437  0.0183
 6294TIP3    H140297   3.587   1.310  14.544  0.8691  0.9994  0.5933
 6294TIP3    H240298   3.575   1.161  14.564 -0.9556  0.9178 -0.8010
 6295TIP3   OH240299   5.537   4.205   3.428 -0.0951 -0.0506 -0.6085
 6295TIP3    H140300   5.614   4.254   3.457 -1.0286  1.2147 -0.2023
 6295TIP3    H240301   5.479   4.204   3.504 -0.1472 -1.7616 -0.6209
 6296TIP3   OH240302   4.224   4.867  12.505 -0.2487 -0.0189 -0.1988
 6296TIP3    H140303   4.208   4.820  12.587  1.3776 -0.4851 -0.1161
 6296TIP3    H240304   4.315   4.848  12.484 -0.1772  1.4058 -1.2937
 6297TIP3   OH240305   6.464   1.657  16.757 -0.1632  0.3758 -0.0206
 6297TIP3    H140306   6.501   1.721  16.697 -0.7751 -0.1576 -0.9854
 6297TIP3    H240307   6.511   1.575  16.739 -1.7104 -0.2988 -1.2311
 6298TIP3   OH240308   6.137   4.856   1.264 -0.5312 -0.2150 -0.2587
 6298TIP3    H140309   6.128   4.824   1.174 -0.3748 -2.2232  0.4066
 6298TIP3    H240310   6.048   4.864   1.296 -0.5581 -2.1195  0.2513
 6299TIP3   OH240311   6.579   6.510  11.714  0.1605  0.0293  0.0437
 6299TIP3    H140312   6.627   6.483  11.635  0.2848  0.9443 -0.2130
 6299TIP3    H240313   6.632   6.581  11.750 -0.7447  0.7203  0.0350
 6300TIP3   OH240314   4.593   0.017  11.789  0.7913 -0.6191 -0.4623
 6300TIP3    H140315   4.535   0.092  11.777  1.7093  0.0501 -0.8258
 6300TIP3    H240316   4.598   0.004  11.884 -2.7560 -2.9592 -0.4233
 6301TIP3   OH240317   4.731   3.694  15.290 -0.4556  0.1099  0.1052
 6301TIP3    H140318   4.687   3.682  15.205 -1.3899 -1.8833  0.8112
 6301TIP3    H240319   4.810   3.744  15.269  0.8051 -2.6449 -2.4412
 6302TIP3   OH240320   3.757   4.833   0.690 -0.0565 -0.2377 -0.0728
 6302TIP3    H140321   3.811   4.873   0.621 -0.3758 -0.2919 -0.3614
 6302TIP3    H240322   3.734   4.906   0.748 -2.2332  0.4478 -1.6375
 6303TIP3   OH240323   3.030   0.520  14.272 -0.6974 -0.1972 -0.3274
 6303TIP3    H140324   2.950   0.522  14.219 -1.1591  1.9212  0.3506
 6303TIP3    H240325   3.085   0.589  14.234 -0.1854 -0.0400  0.6585
 6304TIP3   OH240326   2.551   5.955   5.016  0.3214  0.2007  0.4995
 6304TIP3    H140327   2.526   5.961   5.109  0.4549 -0.4353  0.5825
 6304TIP3    H240328   2.569   5.862   5.003 -1.0264  0.0474 -0.5122
 6305TIP3   OH240329   4.136   3.555  10.584 -0.1103  0.4667 -0.1701
 6305TIP3    H140330   4.220   3.510  10.587 -0.5107 -0.2736  0.1062
 6305TIP3    H240331   4.159   3.648  10.582  0.7069  0.3302  1.3042
 6306TIP3   OH240332   6.503   4.661  15.411 -0.3610 -0.0111 -0.5743
 6306TIP3    H140333   6.524   4.607  15.487 -1.3328 -0.6235 -0.7227
 6306TIP3    H240334   6.580   4.716  15.398 -0.1384  0.0132  0.7774
 6307TIP3   OH240335   6.579   2.426  15.059 -0.2096  0.3467  0.7496
 6307TIP3    H140336   6.589   2.358  15.125 -0.8842 -0.6613 -0.1532
 6307TIP3    H240337   6.655   2.417  15.002  0.4428  1.3035  1.4336
 6308TIP3   OH240338   4.883   4.822  13.275  0.1834  0.1366 -0.3223
 6308TIP3    H140339   4.968   4.832  13.230 -0.3723  1.7057 -1.0998
 6308TIP3    H240340   4.832   4.897  13.245 -2.4040 -2.0840 -1.8911
 6309TIP3   OH240341   5.925   6.176  11.820 -0.1612  0.5787 -0.3940
 6309TIP3    H140342   5.896   6.178  11.729  1.6871 -0.0893 -1.0580
 6309TIP3    H240343   5.847   6.198  11.872 -1.9611 -1.6816 -1.9603
 6310TIP3   OH240344   1.419   0.980  16.581  0.6653 -0.1968  0.0436
 6310TIP3    H140345   1.465   1.045  16.527 -0.7050  0.4184 -0.4350
 6310TIP3    H240346   1.442   0.896  16.541  0.3987  0.1882 -0.9728
 6311TIP3   OH240347   2.413   6.791   0.508  0.4552  0.0472 -0.4592
 6311TIP3    H140348   2.441   6.742   0.431  0.8226  0.4100 -0.5569
 6311TIP3    H240349   2.324   6.820   0.486  0.0414 -0.9970 -0.1965
 6312TIP3   OH240350   1.959   1.222  16.724 -0.0951 -0.3541  0.0923
 6312TIP3    H140351   2.006   1.140  16.715  0.9224  0.2746 -0.5136
 6312TIP3    H240352   1.939   1.249  16.634  0.0341  0.3094  0.2549
 6313TIP3   OH240353   4.765   0.692   0.386  0.1654 -0.5390  0.3347
 6313TIP3    H140354   4.728   0.631   0.321 -0.2811 -0.3167  0.3771
 6313TIP3    H240355   4.779   0.773   0.337 -0.2962 -0.3302  0.5430
 6314TIP3   OH240356   6.279   6.713  11.718  0.2108 -0.3200  0.0819
 6314TIP3    H140357   6.310   6.752  11.636  1.4635 -0.9601  0.2295
 6314TIP3    H240358   6.309   6.774  11.786  1.3734 -1.0351  0.2405
 6315TIP3   OH240359   0.566   5.430   1.510 -0.1696 -0.2722 -0.4133
 6315TIP3    H140360   0.635   5.490   1.482  1.6612 -1.1805  1.8192
 6315TIP3    H240361   0.485   5.481   1.502  1.0724  1.8074 -0.4768
 6316TIP3   OH240362   3.318   5.240  14.823 -0.0313 -0.3249  0.1176
 6316TIP3    H140363   3.260   5.315  14.811  0.6868  0.0358 -1.2337
 6316TIP3    H240364   3.287   5.175  14.759  0.7989 -0.2741 -0.3528
 6317TIP3   OH240365   2.315   2.270  15.884 -0.3329  0.0182  0.6778
 6317TIP3    H140366   2.247   2.335  15.899 -0.5708 -0.1482  0.3470
 6317TIP3    H240367   2.313   2.214  15.962  0.3377  0.8073  1.2710
 6318TIP3   OH240368   1.382   2.663   5.584 -0.7462 -0.1483 -0.2306
 6318TIP3    H140369   1.425   2.723   5.646 -1.0571 -0.2961  0.1315
 6318TIP3    H240370   1.372   2.581   5.633 -1.1244 -0.2233 -0.4297
 6319TIP3   OH240371   0.052   0.540   1.254 -0.3188  0.4445 -0.5332
 6319TIP3    H140372   0.088   0.469   1.308 -0.4678 -0.0121 -1.0326
 6319TIP3    H240373  -0.040   0.515   1.240 -0.0764  0.1616 -1.6573
 6320TIP3   OH240374   0.237   1.324  15.742 -0.5234 -0.1406  0.3653
 6320TIP3    H140375   0.168   1.388  15.757  0.1670  0.2409  2.3360
 6320TIP3    H240376   0.312   1.375  15.713 -0.3051 -0.1999  0.8176
 6321TIP3   OH240377   2.894   6.550  15.198 -0.3917 -0.3847  0.0557
 6321TIP3    H140378   2.928   6.537  15.287 -0.1651  0.3558  0.0789
 6321TIP3    H240379   2.957   6.608  15.156 -1.4077  0.6950 -0.0217
 6322TIP3   OH240380   5.235   6.320   0.185 -0.4700 -0.8123  0.0606
 6322TIP3    H140381   5.189   6.403   0.198  0.0252 -0.7832  1.8276
 6322TIP3    H240382   5.170   6.262   0.144 -1.1676  0.0885 -0.1277
 6323TIP3   OH240383   5.550   3.088   4.400 -0.1384  0.1278  0.0320
 6323TIP3    H140384   5.554   3.162   4.461 -0.4143  1.2021 -1.2060
 6323TIP3    H240385   5.616   3.027   4.432  0.3396  1.0640  0.8891
 6324TIP3   OH240386   6.441   0.051   5.729 -0.2695  0.4986 -0.1880
 6324TIP3    H140387   6.450   0.146   5.721 -0.4247  0.6453  1.2018
 6324TIP3    H240388   6.389   0.038   5.808 -0.3803 -0.7441 -0.4427
 6325TIP3   OH240389   3.943   4.032  15.955  0.1051  0.2171 -0.0716
 6325TIP3    H140390   3.993   4.105  15.992  0.9020  0.0759 -0.8341
 6325TIP3    H240391   3.961   4.036  15.861 -0.2574 -0.6477 -0.1872
 6326TIP3   OH240392   1.436   1.825   2.536  0.0723 -0.4414  0.0226
 6326TIP3    H140393   1.433   1.914   2.571  0.9354 -1.0823  1.8919
 6326TIP3    H240394   1.447   1.770   2.614  1.7064 -2.0011 -1.2435
 6327TIP3   OH240395   6.023   0.438  14.124  0.0017 -0.2117 -0.2918
 6327TIP3    H140396   6.099   0.477  14.081  0.9216 -0.5439  0.9515
 6327TIP3    H240397   6.041   0.344  14.125  1.0116 -0.1035  2.4525
 6328TIP3   OH240398   1.468   0.120  10.629 -0.0822  0.2519  0.1470
 6328TIP3    H140399   1.389   0.123  10.683 -1.3737 -0.4583 -1.6043
 6328TIP3    H240400   1.472   0.206  10.588  0.1000  0.3144  0.2960
 6329TIP3   OH240401   2.133   2.030   6.359 -0.4115  0.2646  0.1464
 6329TIP3    H140402   2.139   2.102   6.297  1.2030 -0.8748 -1.0864
 6329TIP3    H240403   2.096   1.958   6.309  0.2176 -0.4498  0.6826
 6330TIP3   OH240404   4.829   5.694   6.412  0.2330  0.4634 -0.2059
 6330TIP3    H140405   4.838   5.767   6.350  0.0721 -1.2646 -2.3950
 6330TIP3    H240406   4.738   5.698   6.440 -0.4295 -0.2026 -2.1171
 6331TIP3   OH240407   1.025   4.427   1.006 -0.6622 -0.1353 -0.4705
 6331TIP3    H140408   0.938   4.421   1.045 -0.3341  1.7691  0.6998
 6331TIP3    H240409   1.054   4.336   0.998 -2.7439 -0.8039 -0.9182
 6332TIP3   OH240410   4.695   2.938  15.733  0.4846  0.0908  0.1800
 6332TIP3    H140411   4.678   2.952  15.826  1.2193 -0.0679  0.3477
 6332TIP3    H240412   4.608   2.932  15.693  0.1485 -1.0249  1.0264
 6333TIP3   OH240413   6.254   0.157  11.866  0.2708 -0.5167 -0.5314
 6333TIP3    H140414   6.162   0.174  11.888  0.3617  2.6331 -2.0787
 6333TIP3    H240415   6.300   0.165  11.949 -0.5139  1.1332 -0.2194
 6334TIP3   OH240416   6.244   6.066  12.292  0.1477 -0.1695 -0.1271
 6334TIP3    H140417   6.219   6.064  12.199  2.7031 -0.0528 -0.8737
 6334TIP3    H240418   6.207   6.148  12.325  0.1278  0.3122 -1.3057
 6335TIP3   OH240419   0.660   0.386  13.881  0.4496  0.4053  0.2177
 6335TIP3    H140420   0.573   0.351  13.861  0.2805  1.7534 -1.6341
 6335TIP3    H240421   0.654   0.415  13.972 -0.5495 -0.8557  0.5843
 6336TIP3   OH240422   4.415   2.391  17.062 -0.0005 -0.6673  0.1910
 6336TIP3    H140423   4.381   2.477  17.086 -1.7445 -1.4981  0.8984
 6336TIP3    H240424   4.484   2.374  17.125  1.2317  0.7102 -0.7353
 6337TIP3   OH240425   2.963   4.669  11.553 -0.3757  0.1231  0.0303
 6337TIP3    H140426   3.037   4.694  11.497 -0.9398  2.6322  0.2664
 6337TIP3    H240427   2.907   4.616  11.497  0.1513  0.7184 -1.1020
 6338TIP3   OH240428   3.359   4.213   2.708  0.3541  0.3627 -0.0494
 6338TIP3    H140429   3.320   4.199   2.795 -1.1955  0.0811 -0.7508
 6338TIP3    H240430   3.453   4.202   2.722  0.2755  1.5713  1.8366
 6339TIP3   OH240431   3.691   2.675   0.946  0.2966  0.3181  0.2612
 6339TIP3    H140432   3.628   2.602   0.945 -1.5912  1.8106  2.0531
 6339TIP3    H240433   3.664   2.730   0.872 -0.3930  0.8295  0.8779
 6340TIP3   OH240434   4.226   3.788   3.608 -0.5049 -0.2381 -0.4150
 6340TIP3    H140435   4.254   3.858   3.666 -2.4013  0.6649 -0.4913
 6340TIP3    H240436   4.170   3.733   3.663 -2.0915  0.4701 -1.2357
 6341TIP3   OH240437   5.860   2.298  13.805 -0.1730 -0.3536 -0.3209
 6341TIP3    H140438   5.805   2.306  13.727 -0.4677 -0.0975 -0.0897
 6341TIP3    H240439   5.917   2.223  13.786 -0.4640 -0.4987 -0.6437
 6342TIP3   OH240440   4.257   2.448   0.937 -1.0914  0.1353 -0.4479
 6342TIP3    H140441   4.194   2.390   0.894  0.6597 -0.6312 -2.1230
 6342TIP3    H240442   4.307   2.391   0.996 -1.3164  0.5450  0.1508
 6343TIP3   OH240443   5.517   5.962  16.722  0.1915  0.0090 -0.5828
 6343TIP3    H140444   5.546   6.044  16.681 -1.9873  0.0463 -2.2455
 6343TIP3    H240445   5.505   5.985  16.815  3.7702  0.3256 -0.0520
 6344TIP3   OH240446   1.804   2.182  11.681  0.1274 -0.1733 -0.0464
 6344TIP3    H140447   1.781   2.263  11.727  1.3369  0.0479  0.1927
 6344TIP3    H240448   1.863   2.210  11.611 -1.5416 -0.5318 -1.6578
 6345TIP3   OH240449   6.176   6.530   0.613 -0.2227 -0.3699 -0.2731
 6345TIP3    H140450   6.253   6.542   0.669 -0.6646  2.7039 -0.1594
 6345TIP3    H240451   6.125   6.462   0.657  0.5274  0.3757  1.9006
 6346TIP3   OH240452   0.102   5.712   2.611 -0.1173  0.0487 -0.2585
 6346TIP3    H140453   0.057   5.778   2.664 -0.8053 -0.8351  0.2851
 6346TIP3    H240454   0.057   5.716   2.526 -0.3563  0.0800 -0.1341
 6347TIP3   OH240455   2.810   5.097   5.130 -0.2360 -0.3815 -0.0598
 6347TIP3    H140456   2.891   5.093   5.181  0.2368  0.8708 -0.6885
 6347TIP3    H240457   2.751   5.037   5.175  0.3062  0.3636  1.7117
 6348TIP3   OH240458   0.563   5.438   2.512  0.2408 -0.4460 -0.0807
 6348TIP3    H140459   0.656   5.414   2.508  0.2919 -0.4841  0.9201
 6348TIP3    H240460   0.539   5.457   2.422  1.8318  1.9183 -0.0906
 6349TIP3   OH240461   3.486   3.825  12.213  0.4428  0.9921 -0.0974
 6349TIP3    H140462   3.528   3.842  12.297  0.2121  2.2985 -0.2159
 6349TIP3    H240463   3.521   3.894  12.155  1.9066 -0.8751 -1.5620
 6350TIP3   OH240464   0.321   0.275   5.402  0.0871  0.6075  0.4062
 6350TIP3    H140465   0.227   0.257   5.409 -0.1687  1.2526 -0.9511
 6350TIP3    H240466   0.354   0.264   5.491 -1.0612 -0.7450  0.7109
 6351TIP3   OH240467   0.275   6.119   2.735 -0.0034  0.2717 -0.1708
 6351TIP3    H140468   0.260   6.075   2.652  0.3646  1.3062 -0.8115
 6351TIP3    H240469   0.330   6.194   2.712  1.4120 -0.2688  1.2258
 6352TIP3   OH240470   1.301   2.516   1.247 -0.0030  0.1633  0.0153
 6352TIP3    H140471   1.369   2.561   1.198  0.8618 -1.2192 -0.0971
 6352TIP3    H240472   1.343   2.491   1.329 -0.4466 -0.4847  0.0504
 6353TIP3   OH240473   2.329   5.310   3.670 -0.0985 -0.6409 -0.4058
 6353TIP3    H140474   2.251   5.307   3.724 -0.0752 -1.6212 -0.4186
 6353TIP3    H240475   2.322   5.393   3.622 -0.1291  0.2270  1.0543
 6354TIP3   OH240476   4.425   4.087   0.219  0.5872  0.7039  0.2822
 6354TIP3    H140477   4.475   4.082   0.301  0.1023  0.6920  0.5833
 6354TIP3    H240478   4.421   3.997   0.188  0.1405  0.5936  0.6392
 6355TIP3   OH240479   0.266   3.690   1.499  0.1441  0.4545  0.6148
 6355TIP3    H140480   0.338   3.657   1.553  0.9226  1.4227  0.2092
 6355TIP3    H240481   0.188   3.679   1.554  0.7215  0.1684  1.3990
 6356TIP3   OH240482   1.397   1.472  13.596  0.1633 -0.0427  0.0753
 6356TIP3    H140483   1.472   1.463  13.655 -0.3171 -0.1593  0.6652
 6356TIP3    H240484   1.399   1.564  13.569  0.6068 -0.0811 -0.0348
 6357TIP3   OH240485   4.218   1.823   4.206  0.0043 -0.4235 -0.8821
 6357TIP3    H140486   4.286   1.874   4.249 -0.9683 -0.3299  0.5914
 6357TIP3    H240487   4.247   1.732   4.216  0.6942 -0.3045 -1.6794
 6358TIP3   OH240488   3.096   4.612   3.658  0.3528 -0.0248  0.3152
 6358TIP3    H140489   3.143   4.643   3.736  0.2290  2.7319 -0.6113
 6358TIP3    H240490   3.159   4.555   3.613  1.4600  0.6312  0.9878
 6359TIP3   OH240491   4.498   6.774  15.935 -0.3703 -0.6732 -0.4818
 6359TIP3    H140492   4.535   6.752  15.850  0.6653 -1.2765  0.1074
 6359TIP3    H240493   4.407   6.744  15.931 -0.7531  0.5574 -1.8504
 6360TIP3   OH240494   1.381   4.164   3.462 -0.0331 -0.4152  0.0284
 6360TIP3    H140495   1.309   4.178   3.401 -0.3864 -0.8930  0.3360
 6360TIP3    H240496   1.339   4.134   3.543  0.5118 -0.7518  0.1909
 6361TIP3   OH240497   2.648   3.948   2.053  0.0911 -0.3482  0.3127
 6361TIP3    H140498   2.715   3.958   1.984  0.8167 -2.6680  0.6123
 6361TIP3    H240499   2.575   4.002   2.022  0.1448 -1.7439 -2.6277
 6362TIP3   OH240500   1.866   4.535  16.953 -0.6135 -0.7465 -0.1039
 6362TIP3    H140501   1.804   4.494  17.014 -0.6562 -0.3829  0.1026
 6362TIP3    H240502   1.879   4.623  16.989  0.8597 -1.1668  0.4555
 6363TIP3   OH240503   4.232   6.014  11.145 -0.1750 -0.1856 -0.3359
 6363TIP3    H140504   4.177   6.089  11.122 -1.2765 -0.9524 -0.2708
 6363TIP3    H240505   4.240   6.018  11.240 -1.5944 -1.0419 -0.1537
 6364TIP3   OH240506   2.022   4.390   4.574 -0.0361 -0.5365 -0.0326
 6364TIP3    H140507   2.089   4.436   4.625 -0.1535 -0.7468  0.3173
 6364TIP3    H240508   2.050   4.399   4.483 -0.8747  1.5921 -0.1396
 6365TIP3   OH240509   3.429   4.823  16.042 -0.4877 -0.4212  0.3882
 6365TIP3    H140510   3.431   4.918  16.051  0.3145 -0.4935  1.2073
 6365TIP3    H240511   3.453   4.806  15.951 -0.3431  0.1494  0.3173
 6366TIP3   OH240512   6.719   0.210  16.842  0.3545  0.1176  0.1763
 6366TIP3    H140513   6.712   0.231  16.936 -1.6931 -0.1979  0.1436
 6366TIP3    H240514   6.679   0.123  16.834 -1.4020  1.0017 -1.2518
 6367TIP3   OH240515   0.404   0.075  16.316  0.2878  0.0116 -0.3675
 6367TIP3    H140516   0.473   0.126  16.272  0.0898  0.5171 -0.1015
 6367TIP3    H240517   0.424  -0.016  16.294  0.6680  0.1986 -0.8275
 6368TIP3   OH240518   2.022   2.970   4.077 -0.0910  0.0707 -0.9581
 6368TIP3    H140519   2.045   2.902   4.139  1.5661  0.5694 -0.9611
 6368TIP3    H240520   2.074   2.950   3.999  0.5589  1.3803 -0.9006
 6369TIP3   OH240521   1.604   1.992   4.926 -0.3035  0.1308  0.4230
 6369TIP3    H140522   1.570   1.921   4.981 -0.5761 -1.0899 -1.2110
 6369TIP3    H240523   1.699   1.978   4.925 -0.4057 -0.6400 -0.3863
 6370TIP3   OH240524   2.001   5.475  10.775  0.2200 -0.0692 -0.1197
 6370TIP3    H140525   2.032   5.428  10.698  0.7223  0.0242  0.0206
 6370TIP3    H240526   2.000   5.567  10.748 -1.0456 -0.1760 -0.4894
 6371TIP3   OH240527   5.285   2.874   2.213  0.1407 -0.2001 -0.2996
 6371TIP3    H140528   5.337   2.826   2.277  0.6912 -0.2941 -0.8193
 6371TIP3    H240529   5.309   2.836   2.128 -0.4768  0.0228 -0.5804
 6372TIP3   OH240530   1.612   3.491   3.164  0.9354 -0.0187  0.2050
 6372TIP3    H140531   1.587   3.440   3.087  0.0027  0.9275 -0.1522
 6372TIP3    H240532   1.695   3.531   3.141  0.3891  0.7196 -0.5663
 6373TIP3   OH240533   0.280   3.756   2.678 -0.5969 -0.0847 -0.3295
 6373TIP3    H140534   0.317   3.784   2.594  0.4898 -0.5184 -0.0138
 6373TIP3    H240535   0.323   3.813   2.743 -0.1511 -0.8766  0.0852
 6374TIP3   OH240536   1.956   5.617  15.719 -0.6235  0.2539 -0.1311
 6374TIP3    H140537   1.943   5.530  15.757 -0.1853 -0.1085 -0.7938
 6374TIP3    H240538   1.868   5.652  15.708 -0.7785  0.1797  0.7759
 6375TIP3   OH240539   3.698   4.530   4.731 -0.0474 -0.3313  0.0899
 6375TIP3    H140540   3.639   4.512   4.658 -0.6179 -1.1988  0.7446
 6375TIP3    H240541   3.726   4.444   4.761  3.9292  0.0166 -2.0103
 6376TIP3   OH240542   1.834   5.557  14.693  0.1670 -0.3650  0.3248
 6376TIP3    H140543   1.875   5.509  14.620  0.0792 -2.9195  1.8530
 6376TIP3    H240544   1.744   5.570  14.665  0.6702  0.7228 -0.9247
 6377TIP3   OH240545   1.410   5.331   3.234 -0.5598 -0.1973 -0.4560
 6377TIP3    H140546   1.487   5.379   3.205 -1.4250  1.5609  0.0338
 6377TIP3    H240547   1.437   5.239   3.232  2.5777  0.4609  2.6958
 6378TIP3   OH240548   5.613   5.233  16.070 -0.0513  0.0353 -0.2573
 6378TIP3    H140549   5.634   5.304  16.009  0.2821  0.5929  0.4785
 6378TIP3    H240550   5.538   5.188  16.031  1.5657 -1.0907 -2.2445
 6379TIP3   OH240551   1.217   5.550   0.044  0.6427 -0.4329 -0.0338
 6379TIP3    H140552   1.154   5.494   0.090  1.9583 -0.9705  1.1805
 6379TIP3    H240553   1.257   5.493  -0.021 -0.9472  0.2307 -1.6764
 6380TIP3   OH240554   0.199   2.691  12.559 -0.0259  0.1260 -0.1772
 6380TIP3    H140555   0.276   2.655  12.603 -0.6691 -0.6257  0.3630
 6380TIP3    H240556   0.186   2.777  12.599  0.3970  0.1564 -0.1034
 6381TIP3   OH240557   0.264   2.268   1.244  0.1926 -0.0143 -0.0119
 6381TIP3    H140558   0.174   2.294   1.225  1.1182  1.4377 -3.2511
 6381TIP3    H240559   0.264   2.172   1.233 -1.0970 -0.1583  1.0082
 6382TIP3   OH240560   4.441   1.114   1.022 -0.4036 -0.1293 -0.0402
 6382TIP3    H140561   4.522   1.090   1.068 -0.7101  1.2249  1.2894
 6382TIP3    H240562   4.399   1.178   1.079 -1.6860  0.3318 -1.4341
 6383TIP3   OH240563   1.986   3.383   3.073 -0.2906  0.8824 -0.0786
 6383TIP3    H140564   2.039   3.364   3.151 -1.5207  1.5771  0.9574
 6383TIP3    H240565   1.954   3.473   3.087  0.0096  1.2788 -1.7141
 6384TIP3   OH240566   4.962   1.246   2.121 -0.0168  0.1653 -0.3195
 6384TIP3    H140567   4.934   1.156   2.140 -1.2434  0.5821 -0.0680
 6384TIP3    H240568   4.912   1.300   2.182 -1.4667  1.2489 -2.3369
 6385TIP3   OH240569   0.806   1.990  15.360 -0.6911 -0.0178  0.5290
 6385TIP3    H140570   0.740   1.947  15.307  1.4617 -2.7016 -0.1784
 6385TIP3    H240571   0.822   1.930  15.433  0.5362  0.8389  1.0023
 6386TIP3   OH240572   5.241   1.528  14.760  0.2411 -0.4859  0.3249
 6386TIP3    H140573   5.212   1.566  14.678  0.8291  1.8810  1.1381
 6386TIP3    H240574   5.176   1.555  14.824  1.2672  0.1702  1.1373
 6387TIP3   OH240575   2.651   4.263   1.886  0.0437 -0.0835 -0.2003
 6387TIP3    H140576   2.625   4.183   1.838  1.2740  0.5147 -1.9825
 6387TIP3    H240577   2.578   4.279   1.946 -1.4659 -1.0941 -1.6386
 6388TIP3   OH240578   5.304   3.831   4.568 -0.2341 -0.1638  0.1914
 6388TIP3    H140579   5.362   3.845   4.493 -0.8558 -0.9806 -0.4494
 6388TIP3    H240580   5.281   3.920   4.597 -0.7810  0.1634 -1.1959
 6389TIP3   OH240581   1.199   2.738   4.716 -0.4934 -0.4323 -0.3682
 6389TIP3    H140582   1.138   2.767   4.649 -1.0978  0.2575  0.4540
 6389TIP3    H240583   1.151   2.750   4.798  1.4003  2.0500  0.5121
 6390TIP3   OH240584   2.441   3.390  15.433  0.2813  0.3342  0.1537
 6390TIP3    H140585   2.407   3.370  15.520  0.6286  0.0699  0.2290
 6390TIP3    H240586   2.390   3.466  15.404  2.8563  3.1171  2.2819
 6391TIP3   OH240587   4.388   5.892   2.070  0.1165 -0.2366 -0.4254
 6391TIP3    H140588   4.443   5.894   2.149  0.4243 -0.7719 -0.6244
 6391TIP3    H240589   4.302   5.863   2.102  0.6974 -2.2615 -0.5305
 6392TIP3   OH240590   0.240   4.800  13.483 -0.0173 -0.2783  0.1950
 6392TIP3    H140591   0.266   4.882  13.441  2.0573 -1.0774 -0.1950
 6392TIP3    H240592   0.155   4.780  13.445  0.1327  0.9157 -0.8489
 6393TIP3   OH240593   1.262   3.661   3.022  0.9999  0.6009  0.0203
 6393TIP3    H140594   1.172   3.671   3.055 -0.1119 -3.0385 -1.3542
 6393TIP3    H240595   1.314   3.645   3.100 -0.3599 -1.2062  0.6475
 6394TIP3   OH240596   0.364   5.391  16.066  0.1572  0.1533  0.4604
 6394TIP3    H140597   0.422   5.316  16.052  1.7132  1.3379  0.2966
 6394TIP3    H240598   0.412   5.448  16.126 -0.1737  1.8370 -0.7893
 6395TIP3   OH240599   5.353   2.023   4.129  0.2638 -0.5082 -0.5160
 6395TIP3    H140600   5.358   2.056   4.039 -2.8845  3.0357  0.3530
 6395TIP3    H240601   5.436   2.050   4.169  1.2315 -1.1498 -2.0263
 6396TIP3   OH240602   6.282   2.982   4.198 -0.7298 -0.2789  0.1672
 6396TIP3    H140603   6.188   2.973   4.180 -0.2750 -0.8105 -2.1525
 6396TIP3    H240604   6.325   2.968   4.114  1.3526  2.0942  0.7212
 6397TIP3   OH240605   6.687   3.790   3.594 -0.0249 -0.8236 -0.0556
 6397TIP3    H140606   6.632   3.868   3.594  0.9875 -0.0876 -0.5841
 6397TIP3    H240607   6.742   3.799   3.672  0.1022 -1.0065 -0.1231
 6398TIP3   OH240608   2.251   4.925   3.275  0.5630 -0.2054  0.0073
 6398TIP3    H140609   2.218   4.839   3.304 -0.3199 -0.8898 -2.6884
 6398TIP3    H240610   2.286   4.965   3.354  1.0111 -3.0449  1.3868
 6399TIP3   OH240611   1.197   0.394  14.151  0.3605  0.2709  0.6304
 6399TIP3    H140612   1.232   0.351  14.073  0.1747 -0.0186  0.7065
 6399TIP3    H240613   1.130   0.454  14.117  1.6621  1.6301  0.3792
 6400TIP3   OH240614   2.182   3.282   1.394 -0.3125 -0.5647  0.1000
 6400TIP3    H140615   2.094   3.321   1.391  0.6883  1.8622  0.2030
 6400TIP3    H240616   2.197   3.251   1.305 -0.6105  0.6734 -0.4101
 6401TIP3   OH240617   6.773   1.287   3.168  0.0647  0.3733  0.0028
 6401TIP3    H140618   6.754   1.378   3.187 -2.3018 -0.4504  2.2241
 6401TIP3    H240619   6.696   1.255   3.120  0.9931 -0.4223 -1.0375
 6402TIP3   OH240620   1.437   2.431  13.868 -0.2832 -0.3902  0.0126
 6402TIP3    H140621   1.451   2.525  13.878 -1.6673 -0.0926 -0.5924
 6402TIP3    H240622   1.354   2.414  13.913  0.7649 -1.6493  1.5784
 6403TIP3   OH240623   2.591   3.859  16.075  0.1728  0.3840 -0.6117
 6403TIP3    H140624   2.581   3.947  16.037 -1.2967  0.3954 -0.2791
 6403TIP3    H240625   2.662   3.819  16.026  3.0663  2.8223  1.2489
 6404TIP3   OH240626   4.595   3.856  13.588 -1.1709  0.6135  0.6089
 6404TIP3    H140627   4.682   3.847  13.627 -0.7403  1.7439 -0.0424
 6404TIP3    H240628   4.542   3.789  13.632  0.4186 -1.2527 -0.1634
 6405TIP3   OH240629   0.614   6.277  14.836  0.2932 -0.1727 -0.6032
 6405TIP3    H140630   0.607   6.372  14.830  3.4689  0.2165  0.3081
 6405TIP3    H240631   0.677   6.252  14.768 -0.6926 -1.7071 -1.0244
 6406TIP3   OH240632   6.653   6.083   4.723  0.1754 -0.0578 -0.3804
 6406TIP3    H140633   6.588   6.021   4.757  0.2759  0.3199  0.5451
 6406TIP3    H240634   6.723   6.027   4.690 -1.0898 -0.5069 -2.4798
 6407TIP3   OH240635   0.854   6.769  11.073 -0.2831 -0.4999 -0.6616
 6407TIP3    H140636   0.919   6.831  11.107 -2.0577  1.8562 -1.2999
 6407TIP3    H240637   0.818   6.727  11.151 -1.4687  1.8848  0.1839
 6408TIP3   OH240638   5.511   2.383  16.634  0.3948  0.0276  0.4014
 6408TIP3    H140639   5.585   2.349  16.583  0.8993  2.7189 -0.8276
 6408TIP3    H240640   5.509   2.476  16.613 -4.0757 -0.0866 -0.5489
 6409TIP3   OH240641   4.800   6.524   2.394  0.3997 -0.5250 -0.2814
 6409TIP3    H140642   4.742   6.596   2.369  0.8206  0.8774  2.4286
 6409TIP3    H240643   4.884   6.545   2.353  1.4414  2.3880  2.8637
 6410TIP3   OH240644   3.698   1.314   5.819  0.0634 -0.1460 -0.1417
 6410TIP3    H140645   3.649   1.313   5.901 -0.7853  0.1436 -0.6340
 6410TIP3    H240646   3.731   1.404   5.813 -0.3308 -0.0130 -0.3736
 6411TIP3   OH240647   5.514   4.823  15.002  0.3583  0.2130 -0.5559
 6411TIP3    H140648   5.609   4.835  14.997  0.4556 -0.1626  0.1957
 6411TIP3    H240649   5.495   4.756  14.936  1.1447 -2.3627  1.6212
 6412TIP3   OH240650   0.510   0.548   1.068  0.1686 -0.2196 -0.6347
 6412TIP3    H140651   0.416   0.566   1.065  0.1441 -0.4792 -1.5472
 6412TIP3    H240652   0.522   0.470   1.014  1.2153  1.2097 -2.6192
 6413TIP3   OH240653   3.664   4.454   0.463 -0.2107 -0.0101 -0.3240
 6413TIP3    H140654   3.651   4.420   0.551 -1.6930  2.9755  0.7488
 6413TIP3    H240655   3.758   4.472   0.458 -0.2757  0.9115  1.1451
 6414TIP3   OH240656   0.313   2.108  13.426  0.0339  0.0049 -0.0259
 6414TIP3    H140657   0.398   2.144  13.403  0.6721 -2.1988 -1.5588
 6414TIP3    H240658   0.332   2.018  13.452 -1.9453 -1.3381 -2.7029
 6415TIP3   OH240659   3.079   1.067   6.080  0.2853  0.2745 -0.1115
 6415TIP3    H140660   3.168   1.099   6.066  0.9113 -0.6872  1.3966
 6415TIP3    H240661   3.087   1.005   6.153 -2.0946  2.4388  2.2155
 6416TIP3   OH240662   4.297   2.265  12.870 -0.7404  0.9064 -0.0961
 6416TIP3    H140663   4.249   2.243  12.791  0.3359 -0.3719 -0.4380
 6416TIP3    H240664   4.389   2.262  12.844 -0.2953 -0.6761  1.4160
 6417TIP3   OH240665   5.729   6.425  16.493 -0.4901 -0.0207  0.5379
 6417TIP3    H140666   5.664   6.479  16.537  1.4303  3.1676 -0.1947
 6417TIP3    H240667   5.792   6.403  16.561  0.2779  1.3128  0.2962
 6418TIP3   OH240668   3.980   0.836  11.391 -0.0756  0.2204  0.3016
 6418TIP3    H140669   3.896   0.866  11.356  0.5846  2.1139  0.2086
 6418TIP3    H240670   4.006   0.764  11.333 -1.2150  0.1805 -0.1908
 6419TIP3   OH240671   1.768   1.025   2.750  0.2158 -0.0818  0.7252
 6419TIP3    H140672   1.776   1.120   2.736 -1.3265 -0.2261 -1.7784
 6419TIP3    H240673   1.782   0.987   2.663 -1.3445 -1.9703  1.2283
 6420TIP3   OH240674   6.063   0.661   5.266 -0.0085  0.4199 -0.1425
 6420TIP3    H140675   6.093   0.705   5.186 -2.9740  1.1032 -1.0158
 6420TIP3    H240676   6.061   0.730   5.332  0.0250  0.4606 -0.1842
 6421TIP3   OH240677   5.034   4.308  10.554 -0.3171  0.9435  0.0291
 6421TIP3    H140678   4.954   4.352  10.523 -0.9856  1.3783  2.1515
 6421TIP3    H240679   5.098   4.379  10.563 -0.0384  0.7754 -0.6052
 6422TIP3   OH240680   4.294   4.900   3.794 -0.1478 -0.4875 -0.5848
 6422TIP3    H140681   4.319   4.852   3.872  0.2747  2.7343  1.4380
 6422TIP3    H240682   4.370   4.953   3.772 -0.6572 -0.4804 -2.5590
 6423TIP3   OH240683   4.659   2.607  13.962 -0.2929 -0.3493 -0.2330
 6423TIP3    H140684   4.672   2.616  14.057  1.4810  1.7034 -0.5978
 6423TIP3    H240685   4.580   2.658  13.943  0.0663  0.2968 -0.0135
 6424TIP3   OH240686   6.379   4.016  13.159  0.6095  0.0717 -0.1095
 6424TIP3    H140687   6.445   4.083  13.140  0.6979 -0.0191 -0.1281
 6424TIP3    H240688   6.345   3.991  13.073 -0.5128  1.1720  0.0043
 6425TIP3   OH240689   2.463   1.389   0.245 -0.4462 -0.2585  0.1724
 6425TIP3    H140690   2.408   1.384   0.167 -0.3071  0.6447  0.0001
 6425TIP3    H240691   2.474   1.483   0.260 -0.3510 -0.4230  1.1971
 6426TIP3   OH240692   2.529   1.983   6.343  0.3601 -0.1771 -0.0716
 6426TIP3    H140693   2.517   1.956   6.434 -2.7664  3.2461  0.7732
 6426TIP3    H240694   2.580   2.064   6.348 -1.3025  1.0086 -1.1041
 6427TIP3   OH240695   5.439   1.969  12.194 -0.0426  0.0334 -0.4707
 6427TIP3    H140696   5.474   2.058  12.198 -0.3931  0.1376  0.4130
 6427TIP3    H240697   5.516   1.915  12.177  0.4764  0.3211  0.8537
 6428TIP3   OH240698   4.325   1.584  14.596  0.0478 -0.3177  0.1824
 6428TIP3    H140699   4.345   1.560  14.506  1.4716  1.3671  0.0023
 6428TIP3    H240700   4.262   1.655  14.589 -0.6221 -0.8586  0.5683
 6429TIP3   OH240701   2.944   5.162  12.067 -0.2629 -0.1797 -0.2542
 6429TIP3    H140702   2.984   5.249  12.066 -1.2214  0.2975 -1.9274
 6429TIP3    H240703   2.997   5.111  12.006 -0.7321 -0.2395 -0.6226
 6430TIP3   OH240704   3.115   1.149   4.122  0.1218 -0.2786 -0.0152
 6430TIP3    H140705   3.055   1.074   4.119 -1.0440  0.6525 -0.8666
 6430TIP3    H240706   3.149   1.148   4.212 -0.6256 -1.2513  0.2811
 6431TIP3   OH240707   4.287   2.990   0.451  0.4333 -0.2223  0.1364
 6431TIP3    H140708   4.374   3.030   0.458  0.0516  0.5658  0.4447
 6431TIP3    H240709   4.304   2.896   0.459  1.5975 -0.3773 -2.9196
 6432TIP3   OH240710   3.862   0.750   3.445  0.3459  0.0431 -0.2614
 6432TIP3    H140711   3.812   0.729   3.525 -0.5978  1.4500 -0.4464
 6432TIP3    H240712   3.796   0.783   3.384  1.4586  1.7584 -0.5953
 6433TIP3   OH240713   5.321   4.179   1.218 -0.4472 -0.7436  0.1711
 6433TIP3    H140714   5.280   4.252   1.171 -0.8110  0.2198  1.9008
 6433TIP3    H240715   5.256   4.109   1.215 -0.8913 -0.3359  0.0985
 6434TIP3   OH240716   1.329   4.344   5.216 -0.2989  0.2075 -0.3388
 6434TIP3    H140717   1.418   4.325   5.246 -0.9947  0.0649  1.7988
 6434TIP3    H240718   1.285   4.258   5.216 -1.3006  0.6306  1.8610
 6435TIP3   OH240719   2.344   0.209   4.996 -0.3247 -0.2852 -0.0610
 6435TIP3    H140720   2.332   0.114   4.993 -2.5752 -0.0253 -0.8640
 6435TIP3    H240721   2.286   0.238   5.066  2.5007  0.3049  2.2299
 6436TIP3   OH240722   1.922   4.189  13.358  0.4202  0.0474 -0.2222
 6436TIP3    H140723   1.919   4.179  13.263  0.1602  1.8103 -0.4250
 6436TIP3    H240724   1.907   4.282  13.373  0.2984 -0.2274  1.5627
 6437TIP3   OH240725   0.249   0.572  14.008 -0.0518  0.2329  0.0357
 6437TIP3    H140726   0.204   0.641  14.056 -0.5063  0.2337 -0.3822
 6437TIP3    H240727   0.295   0.521  14.075 -2.1499 -0.8885  0.6921
 6438TIP3   OH240728   2.368   3.485   0.626  0.9052 -0.8208  0.0797
 6438TIP3    H140729   2.455   3.474   0.663  1.1847  0.2445 -0.2125
 6438TIP3    H240730   2.382   3.488   0.531  0.7312  0.6038  0.0765
 6439TIP3   OH240731   1.811   1.469  11.834  0.1857 -0.0381 -0.0134
 6439TIP3    H140732   1.845   1.553  11.865  0.6012 -0.4517  0.6894
 6439TIP3    H240733   1.860   1.452  11.754  0.2958  0.2599 -0.0131
 6440TIP3   OH240734   6.640   6.245  12.278  0.0153 -0.2175 -0.3975
 6440TIP3    H140735   6.554   6.281  12.255 -0.2342 -0.7560 -0.3082
 6440TIP3    H240736   6.675   6.211  12.196  0.4943  0.7181 -0.5948
 6441TIP3   OH240737   3.971   2.138   0.291 -0.0974  0.2326  0.1891
 6441TIP3    H140738   3.927   2.130   0.206  0.5383  2.6609 -0.4490
 6441TIP3    H240739   4.037   2.206   0.277  0.1690  0.5329  2.5846
 6442TIP3   OH240740   2.405   1.623  12.988  0.5306 -0.3334 -0.1591
 6442TIP3    H140741   2.437   1.645  13.076  1.0734 -1.6974  0.0090
 6442TIP3    H240742   2.422   1.529  12.979  2.9203  0.2387 -2.7211
 6443TIP3   OH240743   1.129   6.143  14.341 -0.0178 -0.5249 -0.0472
 6443TIP3    H140744   1.086   6.210  14.287  0.4706 -1.2308 -1.3518
 6443TIP3    H240745   1.202   6.112  14.288 -1.5585 -3.7199 -0.5245
 6444TIP3   OH240746   1.503   2.736  12.898  0.3359 -0.2542 -0.1607
 6444TIP3    H140747   1.576   2.792  12.924  0.3541 -0.2098 -0.3039
 6444TIP3    H240748   1.433   2.757  12.960  0.9107 -1.3444  0.9035
 6445TIP3   OH240749   5.087   6.054  16.062  0.1444 -0.0898  0.1724
 6445TIP3    H140750   5.078   5.959  16.059  0.5002 -0.1009 -1.4693
 6445TIP3    H240751   5.168   6.069  16.111  0.1511 -0.6337  0.3286
 6446TIP3   OH240752   5.562   5.419  10.348 -0.0240  0.4614 -0.4398
 6446TIP3    H140753   5.569   5.515  10.341 -1.2426  0.5250 -1.0694
 6446TIP3    H240754   5.468   5.402  10.344  0.2290 -0.8454 -1.7244
 6447TIP3   OH240755   1.502   1.662  14.942  0.2764  0.5496 -0.0757
 6447TIP3    H140756   1.528   1.754  14.931 -0.7109  0.8614  0.1371
 6447TIP3    H240757   1.420   1.654  14.894  0.1305 -0.1220  0.2733
 6448TIP3   OH240758   1.113   6.420  15.396 -1.0957  0.1067 -0.2076
 6448TIP3    H140759   1.185   6.374  15.440 -0.2962  0.9424 -0.6040
 6448TIP3    H240760   1.099   6.498  15.450 -1.3201  0.2311 -0.4463
 6449TIP3   OH240761   5.793   3.053  12.083 -0.2184 -0.2192 -0.1223
 6449TIP3    H140762   5.846   3.052  12.162  0.7770 -0.9239 -0.7702
 6449TIP3    H240763   5.783   3.146  12.061  1.3461 -0.0829 -0.3526
 6450TIP3   OH240764   2.757   1.797   0.745  0.1055 -0.0707  0.0112
 6450TIP3    H140765   2.786   1.792   0.836  1.1800 -0.3591 -0.3277
 6450TIP3    H240766   2.801   1.875   0.710 -1.2957  0.7696  0.0597
 6451TIP3   OH240767   2.204   3.806  16.148 -0.8012 -0.1987 -0.2874
 6451TIP3    H140768   2.114   3.824  16.121 -0.7448  0.5773  0.0140
 6451TIP3    H240769   2.198   3.790  16.242 -0.5684  0.2729 -0.1915
 6452TIP3   OH240770   4.235   2.172  13.795  0.2278 -0.3211 -0.0364
 6452TIP3    H140771   4.159   2.114  13.786  0.2883 -0.5763  1.0340
 6452TIP3    H240772   4.224   2.235  13.724 -1.8725  0.6399  1.0487
 6453TIP3   OH240773   0.662   3.091  16.240  0.0751  0.6588 -0.2068
 6453TIP3    H140774   0.568   3.108  16.238  0.3167  2.0408 -0.6054
 6453TIP3    H240775   0.687   3.112  16.330  0.1301  0.9962 -0.3025
 6454TIP3   OH240776   5.152   4.004  12.510 -0.7003  0.1087 -0.8003
 6454TIP3    H140777   5.175   4.090  12.546 -1.1289  0.3848 -1.1783
 6454TIP3    H240778   5.184   4.006  12.420 -0.5893 -0.1795 -0.7663
 6455TIP3   OH240779   4.213   2.894   3.310 -0.0227  0.4717 -0.1908
 6455TIP3    H140780   4.242   2.937   3.230  1.5068  0.3450  0.2515
 6455TIP3    H240781   4.259   2.810   3.310 -0.6607  0.1098  0.4136
 6456TIP3   OH240782   4.599   5.248  15.672  0.1318 -0.3463 -0.3252
 6456TIP3    H140783   4.668   5.314  15.680 -1.2393  1.3159 -1.6519
 6456TIP3    H240784   4.630   5.188  15.604  0.0656  0.6839 -1.2768
 6457TIP3   OH240785   4.748   0.967  15.013  0.8208 -0.2036  0.2957
 6457TIP3    H140786   4.808   1.036  14.984 -0.7569  0.6993 -0.9550
 6457TIP3    H240787   4.763   0.895  14.951 -0.2744  0.5196 -0.8514
 6458TIP3   OH240788   3.521   6.315  12.162 -0.1610 -0.0464  0.0293
 6458TIP3    H140789   3.539   6.279  12.076  1.0908 -0.8350  0.6071
 6458TIP3    H240790   3.556   6.404  12.158 -0.2036 -0.0427 -0.3068
 6459TIP3   OH240791   5.703   6.243  11.963  0.4490  0.6391  0.5207
 6459TIP3    H140792   5.632   6.299  11.932  0.4125  1.2224  1.6480
 6459TIP3    H240793   5.673   6.210  12.047  1.8549  1.5601  1.4125
 6460TIP3   OH240794   3.298   2.823  10.351 -0.4832 -0.1716 -0.2144
 6460TIP3    H140795   3.204   2.818  10.364 -0.5774 -2.4473 -1.3196
 6460TIP3    H240796   3.322   2.739  10.311  2.0979  0.1043  0.5496
 6461TIP3   OH240797   4.594   2.367   3.516  0.4707  0.4900  0.0579
 6461TIP3    H140798   4.552   2.391   3.434  0.3855  0.1717  0.0101
 6461TIP3    H240799   4.521   2.356   3.578  0.2565 -2.4351 -0.6004
 6462TIP3   OH240800   0.057   6.043  14.808  0.1792 -0.0860  0.0169
 6462TIP3    H140801  -0.032   6.078  14.812  0.1205 -0.1455 -0.6619
 6462TIP3    H240802   0.111   6.116  14.777  0.6371  0.4054  1.8459
 6463TIP3   OH240803   1.434   3.637   3.549 -0.4826 -0.2807 -0.1849
 6463TIP3    H140804   1.524   3.639   3.582 -0.3460 -2.7452 -0.2108
 6463TIP3    H240805   1.395   3.719   3.579  1.8440  1.0138 -0.4611
 6464TIP3   OH240806   6.667   4.860   3.192  0.5173  0.3455 -0.0039
 6464TIP3    H140807   6.722   4.790   3.158 -0.6131 -0.1053 -0.9801
 6464TIP3    H240808   6.681   4.933   3.132  1.8681  1.0693  1.1426
 6465TIP3   OH240809   2.141   1.083   0.368  0.3692 -0.2047 -0.1744
 6465TIP3    H140810   2.150   1.049   0.279  0.7847  1.0123 -0.6175
 6465TIP3    H240811   2.047   1.078   0.385  0.5898 -3.6689  0.6817
 6466TIP3   OH240812   2.265   3.292   3.848 -0.1307 -0.4123  0.7090
 6466TIP3    H140813   2.256   3.377   3.892  1.8046 -0.4672  1.2968
 6466TIP3    H240814   2.239   3.309   3.758  1.6233  1.2181  0.4358
 6467TIP3   OH240815   3.886   2.444   0.316  0.2622  0.2145  0.0497
 6467TIP3    H140816   3.922   2.502   0.250  0.4916  0.0598  0.0371
 6467TIP3    H240817   3.867   2.363   0.268  0.0441  0.2411  0.0888
 6468TIP3   OH240818   5.237   6.258  15.133  0.1149 -0.2267 -0.4574
 6468TIP3    H140819   5.290   6.194  15.085  0.0168  0.4165 -1.4510
 6468TIP3    H240820   5.151   6.216  15.141 -0.4902  0.4301 -2.6723
 6469TIP3   OH240821   1.873   5.165   2.316 -0.2775 -0.0761 -0.1579
 6469TIP3    H140822   1.861   5.209   2.400 -1.5392 -1.1013  0.2311
 6469TIP3    H240823   1.962   5.130   2.320 -0.1575  0.2863  0.5428
 6470TIP3   OH240824   0.709   4.993  16.029 -0.1209 -0.2643 -0.3383
 6470TIP3    H140825   0.649   4.924  16.000  0.0975 -1.9046  2.7720
 6470TIP3    H240826   0.791   4.975  15.984  0.0744 -2.4061  0.7784
 6471TIP3   OH240827   0.831   3.114   4.442 -0.0757  0.0291 -0.2167
 6471TIP3    H140828   0.842   3.104   4.537 -1.2164  2.4328  0.2405
 6471TIP3    H240829   0.912   3.156   4.413 -0.0061 -0.0846 -0.1875
 6472TIP3   OH240830   1.491   5.251   4.167 -0.7296 -0.2498  0.1415
 6472TIP3    H140831   1.521   5.261   4.076 -1.9861 -0.4259 -0.3131
 6472TIP3    H240832   1.485   5.341   4.199 -0.1089 -0.1932  0.1178
 6473TIP3   OH240833   0.120   0.436  13.611 -0.0128  0.5471  0.5211
 6473TIP3    H140834   0.117   0.375  13.685 -0.2475 -0.7150 -0.4985
 6473TIP3    H240835   0.132   0.522  13.652 -1.9452  0.1206  2.1492
 6474TIP3   OH240836   1.077   0.814  13.613 -0.3644  0.6693  0.5775
 6474TIP3    H140837   1.035   0.761  13.546 -0.9503  0.8371  0.8028
 6474TIP3    H240838   1.076   0.903  13.578  0.8540  0.5073  0.0836
 6475TIP3   OH240839   6.112   2.632  14.112 -0.4037  0.6532  0.2459
 6475TIP3    H140840   6.153   2.587  14.038 -0.8750 -0.4550  0.6357
 6475TIP3    H240841   6.138   2.724  14.101  1.4097  0.1552 -0.0308
 6476TIP3   OH240842   2.289   4.806  15.103 -0.5025  0.0753  0.6229
 6476TIP3    H140843   2.275   4.843  15.191 -1.5945 -0.1774  0.5683
 6476TIP3    H240844   2.379   4.830  15.081 -0.4862  0.8430  1.4760
 6477TIP3   OH240845   2.735   2.906   4.847  0.0645  0.1552 -0.0978
 6477TIP3    H140846   2.769   2.976   4.791 -2.1879  0.5302 -1.1280
 6477TIP3    H240847   2.730   2.945   4.934  0.8159  0.5656 -0.2349
 6478TIP3   OH240848   1.720   5.505  11.781  0.3277  0.0762  0.6023
 6478TIP3    H140849   1.771   5.528  11.859 -0.6894 -2.5345  2.1980
 6478TIP3    H240850   1.752   5.418  11.757 -1.9109 -0.7699  0.4302
 6479TIP3   OH240851   6.701   1.427  14.795  0.3188 -0.2626  0.3861
 6479TIP3    H140852   6.736   1.338  14.787  0.9350 -0.0995  1.1788
 6479TIP3    H240853   6.740   1.462  14.875 -1.0035  0.2328  0.8563
 6480TIP3   OH240854   0.160   6.084  11.903 -0.7366 -0.1674 -0.5029
 6480TIP3    H140855   0.148   6.149  11.834 -0.4204  0.2497 -0.1674
 6480TIP3    H240856   0.140   6.000  11.860 -1.5323  0.1799 -0.8292
 6481TIP3   OH240857   6.531   3.275   0.240 -0.2234  0.1748  0.1546
 6481TIP3    H140858   6.516   3.370   0.237 -1.8835  0.1153  2.7963
 6481TIP3    H240859   6.596   3.264   0.309  0.1244 -0.6106 -0.2892
 6482TIP3   OH240860   3.498   2.973  12.521  0.5731 -0.1301  0.5185
 6482TIP3    H140861   3.467   2.883  12.532 -0.9249  0.2315 -0.3984
 6482TIP3    H240862   3.417   3.025  12.515  1.3986  1.1086 -0.1941
 6483TIP3   OH240863   4.716   6.113  13.075  0.0929 -0.0664 -0.3784
 6483TIP3    H140864   4.657   6.040  13.055  0.1803 -0.8739  1.9785
 6483TIP3    H240865   4.802   6.073  13.084  0.1434  0.2749  0.9547
 6484TIP3   OH240866   6.327   6.325   4.762  0.2782  0.1236  0.1333
 6484TIP3    H140867   6.253   6.370   4.721  0.1303 -0.5426 -0.3597
 6484TIP3    H240868   6.334   6.364   4.849 -0.9456 -0.1247  0.3585
 6485TIP3   OH240869   6.344   4.570   2.007  0.4251  0.0559  0.0253
 6485TIP3    H140870   6.289   4.616   1.943  0.3156 -0.3485 -0.1697
 6485TIP3    H240871   6.284   4.509   2.051  0.4230  0.5708  0.7534
 6486TIP3   OH240872   0.595   5.468  12.538  0.0168  0.4834  0.7013
 6486TIP3    H140873   0.575   5.404  12.469  0.9121 -0.1057  0.9731
 6486TIP3    H240874   0.648   5.535  12.494 -0.6244  0.8637  0.4972
 6487TIP3   OH240875   3.041   0.063  16.482 -0.2101  0.3829  0.5685
 6487TIP3    H140876   2.957   0.085  16.442 -0.2665 -1.2106 -0.2779
 6487TIP3    H240877   3.104   0.120  16.438 -0.4669 -0.3960 -0.8805
 6488TIP3   OH240878   2.288   3.212  12.113 -0.1920  0.4829  0.5889
 6488TIP3    H140879   2.197   3.243  12.123 -0.3146  0.0160  0.9504
 6488TIP3    H240880   2.337   3.264  12.177 -0.2424  0.5684  0.5590
 6489TIP3   OH240881   6.239   2.608   5.361 -0.6789 -0.2318 -0.5080
 6489TIP3    H140882   6.171   2.667   5.395 -0.9655 -0.4543 -0.6918
 6489TIP3    H240883   6.197   2.562   5.288  0.1969  0.8741 -1.7593
 6490TIP3   OH240884   0.642   4.187  11.364 -0.4993  0.5732 -0.1043
 6490TIP3    H140885   0.557   4.217  11.397 -1.7474 -0.9848 -1.6906
 6490TIP3    H240886   0.645   4.094  11.385  0.4840  0.4446 -0.7303
 6491TIP3   OH240887   4.354   3.467   2.169  0.1403 -0.0876  0.1732
 6491TIP3    H140888   4.449   3.452   2.166  0.0404 -0.5400 -1.7539
 6491TIP3    H240889   4.336   3.482   2.262  2.7601  4.4802  0.2430
 6492TIP3   OH240890   3.166   5.539  16.066 -0.2553  0.2840 -0.3872
 6492TIP3    H140891   3.199   5.570  16.151 -0.0763 -0.5306 -0.1417
 6492TIP3    H240892   3.191   5.607  16.004 -0.4873  0.9448  0.2348
 6493TIP3   OH240893   3.447   0.743  11.342 -0.0660 -0.1804 -0.0491
 6493TIP3    H140894   3.390   0.667  11.355 -0.0358 -0.2708 -0.4238
 6493TIP3    H240895   3.391   0.808  11.300 -0.7149  0.8454  2.2307
 6494TIP3   OH240896   6.296   1.122  11.580  0.0418 -0.2046  0.3897
 6494TIP3    H140897   6.257   1.178  11.646  0.4232  0.1564  0.3122
 6494TIP3    H240898   6.230   1.053  11.565 -0.0347 -0.3053  1.1512
 6495TIP3   OH240899   5.554   3.553  13.237 -0.0107  0.2184  0.4318
 6495TIP3    H140900   5.640   3.576  13.272 -0.0377  0.2089  0.5045
 6495TIP3    H240901   5.572   3.509  13.154  0.0767 -0.2940  0.7199
 6496TIP3   OH240902   6.006   0.358  14.565  0.3685  0.2069  0.9185
 6496TIP3    H140903   5.931   0.381  14.620 -0.3400  0.1561  0.0020
 6496TIP3    H240904   5.987   0.269  14.534  0.0758  0.7212 -0.4729
 6497TIP3   OH240905   4.477   0.488  12.117  0.3869  0.1592 -0.1852
 6497TIP3    H140906   4.430   0.513  12.197  0.5013 -0.1681 -0.0116
 6497TIP3    H240907   4.494   0.394  12.128  1.4792  0.3580 -0.0330
 6498TIP3   OH240908   4.600   6.628  16.279 -0.2865  0.5065 -0.1166
 6498TIP3    H140909   4.543   6.655  16.351  1.0879 -0.7701  1.5355
 6498TIP3    H240910   4.666   6.697  16.274  0.3729 -0.0464  0.7612
 6499TIP3   OH240911   0.001   0.387   5.274  0.4526  0.3192  0.1068
 6499TIP3    H140912  -0.022   0.437   5.352 -0.1605  0.4053 -0.1293
 6499TIP3    H240913  -0.027   0.442   5.201  0.2329 -0.1444 -0.1598
 6500TIP3   OH240914   4.609   4.889  13.039 -0.0751  0.1465  0.1633
 6500TIP3    H140915   4.642   4.963  13.091 -1.0178  1.0229 -0.4557
 6500TIP3    H240916   4.684   4.863  12.985  0.9935 -0.9117  2.0415
 6501TIP3   OH240917   0.312   6.346   3.334 -0.0129  0.1351  0.2961
 6501TIP3    H140918   0.243   6.285   3.310 -1.5869  2.2786 -0.9699
 6501TIP3    H240919   0.376   6.340   3.263  0.3551 -0.7337  0.6883
 6502TIP3   OH240920   1.999   4.096  12.791 -0.0571  0.0970  0.3544
 6502TIP3    H140921   1.959   4.183  12.799  0.0833  0.3329 -1.2732
 6502TIP3    H240922   2.091   4.114  12.770  0.0058 -0.4429  0.1630
 6503TIP3   OH240923   4.502   6.185  16.241  0.5950 -0.0449  0.2881
 6503TIP3    H140924   4.568   6.238  16.285 -0.7056  1.9006  0.0140
 6503TIP3    H240925   4.464   6.131  16.310  0.7101  0.7068  0.9425
 6504TIP3   OH240926   5.701   6.784  11.270 -0.3531  0.0196  0.1694
 6504TIP3    H140927   5.669   6.868  11.238 -0.1657  0.1268  0.2625
 6504TIP3    H240928   5.754   6.806  11.347 -1.3148 -0.2838  0.9446
 6505TIP3   OH240929   5.976   3.332   3.778  0.1623  0.6377  0.9407
 6505TIP3    H140930   5.903   3.296   3.830  0.6190 -0.4686  0.8436
 6505TIP3    H240931   6.002   3.260   3.722  1.5121  0.9378  1.1631
 6506TIP3   OH240932   2.048   5.564  12.635  0.5623  0.2916 -0.6216
 6506TIP3    H140933   2.116   5.630  12.628  1.4798 -0.3695  1.4407
 6506TIP3    H240934   1.994   5.592  12.709 -2.1250  1.3334 -2.7723
 6507TIP3   OH240935   1.594   1.316   1.305 -0.3381 -0.3760 -0.2864
 6507TIP3    H140936   1.530   1.252   1.274  1.0411 -1.0729 -1.8657
 6507TIP3    H240937   1.576   1.395   1.253 -1.3056  0.1972  0.8597
 6508TIP3   OH240938   0.693   6.702   2.272  0.4580 -0.2838  0.4163
 6508TIP3    H140939   0.770   6.760   2.277  0.7233 -0.5556 -0.5159
 6508TIP3    H240940   0.727   6.615   2.293  0.4696 -0.4528 -0.2785
 6509TIP3   OH240941   6.298   1.074  12.469 -0.3219  0.2449 -0.2091
 6509TIP3    H140942   6.273   1.128  12.394  0.6388 -0.9853 -1.4575
 6509TIP3    H240943   6.325   1.138  12.535 -1.4148  1.3626 -0.7938
 6510TIP3   OH240944   6.572   4.913   4.509 -0.4220  0.0061 -0.5235
 6510TIP3    H140945   6.619   4.865   4.441  0.6547  1.8818 -1.1782
 6510TIP3    H240946   6.627   4.990   4.527 -1.2826  0.1990  1.6005
 6511TIP3   OH240947   6.731   3.487   5.237  0.0765  0.1668  0.4787
 6511TIP3    H140948   6.695   3.490   5.148 -0.8211 -0.1546  0.8130
 6511TIP3    H240949   6.695   3.406   5.274  0.1486  0.4792  1.2486
 6512TIP3   OH240950   3.716   1.781   4.907  0.0522  0.2165 -0.0964
 6512TIP3    H140951   3.749   1.692   4.919  0.6767  0.5318  0.5981
 6512TIP3    H240952   3.625   1.777   4.936  0.1048 -0.1686  0.0236
 6513TIP3   OH240953   4.519   5.061  16.799  0.2940  0.1863 -0.4218
 6513TIP3    H140954   4.578   5.001  16.755 -0.9230 -0.4126 -1.3097
 6513TIP3    H240955   4.434   5.045  16.758 -0.4407  1.1725  0.6503
 6514TIP3   OH240956   2.917   0.038  15.985  0.0064  0.7860 -0.1107
 6514TIP3    H140957   2.973   0.107  15.949 -1.1837  3.7857  3.2116
 6514TIP3    H240958   2.976  -0.015  16.038  0.4038  1.3382  0.0091
 6515TIP3   OH240959   2.480   0.458  11.030 -0.1155 -0.0599 -0.2683
 6515TIP3    H140960   2.528   0.522  11.083 -1.4430  1.0325 -0.3093
 6515TIP3    H240961   2.545   0.393  11.006  0.7981  0.0480  1.6892
 6516TIP3   OH240962   5.529   2.139  11.582  0.2833  0.7445 -0.5307
 6516TIP3    H140963   5.587   2.179  11.647 -1.1921  0.0195  1.3168
 6516TIP3    H240964   5.555   2.179  11.499  0.9599  3.2005  0.7632
 6517TIP3   OH240965   5.905   6.111   3.916  0.2071  0.0050  0.6858
 6517TIP3    H140966   5.930   6.155   3.998  0.0366  0.8730  0.2887
 6517TIP3    H240967   5.955   6.158   3.849 -1.3252  0.7781  0.0436
 6518TIP3   OH240968   4.212   5.629   2.174 -0.0097  0.1021 -0.5186
 6518TIP3    H140969   4.186   5.546   2.133  1.3111 -0.1472 -0.8982
 6518TIP3    H240970   4.304   5.617   2.196  0.2891  1.5670 -0.8575
 6519TIP3   OH240971   6.506   1.769   3.585  0.5251  0.0684  0.3387
 6519TIP3    H140972   6.479   1.787   3.495  2.1570 -1.4203 -0.5102
 6519TIP3    H240973   6.508   1.855   3.627  0.0625  0.8357 -1.1414
 6520TIP3   OH240974   2.326   0.611   6.572  0.0490  0.3396 -0.1379
 6520TIP3    H140975   2.395   0.558   6.533 -0.5034 -1.0022  0.6547
 6520TIP3    H240976   2.349   0.701   6.550  1.6908 -0.1345 -0.4344
 6521TIP3   OH240977   3.195   1.385   5.099 -0.4796 -0.3536  0.3282
 6521TIP3    H140978   3.228   1.345   5.019 -1.2878 -0.6924  0.1577
 6521TIP3    H240979   3.194   1.479   5.081 -0.2528 -0.3930  0.1054
 6522TIP3   OH240980   5.880   1.853   1.877  0.7008  0.1387 -0.4575
 6522TIP3    H140981   5.972   1.881   1.878  0.9607 -0.6746  0.4079
 6522TIP3    H240982   5.878   1.778   1.936 -0.8875  1.2396  0.9659
 6523TIP3   OH240983   6.718   0.237  15.108  0.0949  0.3696  0.5000
 6523TIP3    H140984   6.695   0.206  15.196  0.2503 -1.0704  0.0631
 6523TIP3    H240985   6.682   0.325  15.104 -2.4754 -0.5599  1.0065
 6524TIP3   OH240986   5.577   1.147  12.198  0.1819 -0.3376  0.2775
 6524TIP3    H140987   5.607   1.225  12.152  0.6549 -0.6298  0.0777
 6524TIP3    H240988   5.525   1.099  12.133  0.7604 -0.6972  0.0673
 6525TIP3   OH240989   2.051   3.353  13.303  0.6993  0.2572 -0.3721
 6525TIP3    H140990   2.040   3.387  13.392 -1.2911 -3.0046  0.7799
 6525TIP3    H240991   1.979   3.392  13.253  0.8556  0.8206 -0.1711
 6526TIP3   OH240992   3.487   6.136   5.343 -0.2947 -0.0977 -0.0722
 6526TIP3    H140993   3.452   6.058   5.388 -1.2599 -0.0934 -0.7847
 6526TIP3    H240994   3.535   6.183   5.411  0.5224 -1.4371  0.3123
 6527TIP3   OH240995   2.422   0.693   2.556  0.0669 -0.2480 -0.3054
 6527TIP3    H140996   2.484   0.760   2.583  0.9873 -0.7817 -1.0467
 6527TIP3    H240997   2.439   0.619   2.614  0.8888 -0.7880 -1.2205
 6528TIP3   OH240998   1.555   4.010  13.298 -0.6377 -0.2010  0.1827
 6528TIP3    H140999   1.570   4.020  13.204  1.1755 -1.9463  0.2092
 6528TIP3    H241000   1.547   4.099  13.331  2.1707  0.6550 -1.1425
 6529TIP3   OH241001   0.201   6.260   5.898  0.2332  0.0659 -0.2287
 6529TIP3    H141002   0.279   6.312   5.879 -0.1082  0.2564 -1.1667
 6529TIP3    H241003   0.129   6.323   5.896  0.0508 -0.1073  0.6391
 6530TIP3   OH241004   2.601   2.767  16.579  0.1093  0.0691  0.1115
 6530TIP3    H141005   2.612   2.841  16.519 -0.4471  0.0318 -0.0472
 6530TIP3    H241006   2.538   2.710  16.535  0.3336 -0.3723  0.3534
 6531TIP3   OH241007   4.883   3.932  15.955 -0.5385 -0.4344 -0.0341
 6531TIP3    H141008   4.794   3.920  15.922 -0.2069  0.6977 -1.4499
 6531TIP3    H241009   4.937   3.935  15.877  0.7402 -0.8812  0.7980
 6532TIP3   OH241010   5.696   5.279   2.675  0.0353  0.3191 -0.1262
 6532TIP3    H141011   5.754   5.205   2.657  1.7187  1.5304  0.0463
 6532TIP3    H241012   5.754   5.346   2.712 -1.5940  1.3961  0.5962
 6533TIP3   OH241013   6.015   2.163   2.064 -0.2886 -0.8147  0.1606
 6533TIP3    H141014   6.024   2.070   2.082 -1.0216 -0.8256  0.5409
 6533TIP3    H241015   5.925   2.173   2.032 -0.3654 -0.1798  0.5462
 6534TIP3   OH241016   4.530   3.005   4.871  0.1186 -0.3436  0.3335
 6534TIP3    H141017   4.525   2.981   4.779  0.0152  0.4409  0.1271
 6534TIP3    H241018   4.542   2.922   4.917  0.5716 -0.6972 -0.4132
 6535TIP3   OH241019   1.369   4.322  12.819  0.0966 -0.4839  0.1836
 6535TIP3    H141020   1.387   4.415  12.835 -0.5144 -0.1960 -0.7427
 6535TIP3    H241021   1.293   4.303  12.874 -0.2344 -0.2323 -0.1745
 6536TIP3   OH241022   5.291   2.995  12.564 -0.4170  0.0385 -0.7198
 6536TIP3    H141023   5.226   2.997  12.494  1.6768  1.6924 -2.7764
 6536TIP3    H241024   5.280   3.079  12.609  1.2082  1.0917 -2.1261
 6537TIP3   OH241025   5.296   3.967  12.296  0.1663  0.3936 -0.0454
 6537TIP3    H141026   5.356   4.018  12.241  1.2250 -0.8082 -0.0230
 6537TIP3    H241027   5.351   3.926  12.361 -0.5714 -1.3046 -0.4434
 6538TIP3   OH241028   5.822   5.458   5.468 -0.6277 -0.2244 -0.7029
 6538TIP3    H141029   5.814   5.468   5.562  0.5842 -0.2763 -0.5779
 6538TIP3    H241030   5.760   5.521   5.431  1.5624  2.6171  0.1140
 6539TIP3   OH241031   2.658   3.006  16.448 -0.3690  0.1233  0.2711
 6539TIP3    H141032   2.604   3.074  16.407  2.0496  0.4739 -2.7010
 6539TIP3    H241033   2.701   3.051  16.521 -0.4691  1.2173 -0.3114
 6540TIP3   OH241034   5.930   0.704   0.519 -0.3090 -0.4418  0.3622
 6540TIP3    H141035   5.881   0.725   0.598  0.9678  1.4885  0.7172
 6540TIP3    H241036   5.972   0.621   0.538 -0.1510 -0.0845  1.6683
 6541TIP3   OH241037   5.330   2.063   2.825 -0.1304  0.2921  0.3258
 6541TIP3    H141038   5.379   2.086   2.746 -2.2342 -2.5461 -2.0565
 6541TIP3    H241039   5.382   1.993   2.866 -0.7189 -0.6929 -0.5733
 6542TIP3   OH241040   0.217   0.855   0.671  0.0468  0.3247 -0.2513
 6542TIP3    H141041   0.299   0.814   0.644 -1.1685 -0.8141 -2.5975
 6542TIP3    H241042   0.152   0.785   0.663 -1.5159  1.7682 -0.7755
 6543TIP3   OH241043   0.143   0.076   4.265  0.0681  0.1283 -0.6795
 6543TIP3    H141044   0.154   0.099   4.358 -1.6362 -1.2829 -0.0724
 6543TIP3    H241045   0.180   0.150   4.218  1.2337  0.7621  1.1230
 6544TIP3   OH241046   6.377   6.069   3.350  0.3481  0.2973  0.1349
 6544TIP3    H141047   6.329   6.052   3.269 -0.4487 -2.0415  1.0108
 6544TIP3    H241048   6.458   6.019   3.341 -0.1289 -0.6870  1.0857
 6545TIP3   OH241049   0.649   0.173  16.915  0.9949 -0.7529 -0.2422
 6545TIP3    H141050   0.651   0.269  16.921 -0.5580 -0.7144 -0.0602
 6545TIP3    H241051   0.590   0.146  16.985 -1.4616 -1.5907 -2.4828
 6546TIP3   OH241052   1.420   1.334   1.728 -0.0853  0.7128  0.0944
 6546TIP3    H141053   1.432   1.410   1.671 -0.7107  0.8431  0.1245
 6546TIP3    H241054   1.480   1.268   1.694  0.1248  1.0615 -0.2201
 6547TIP3   OH241055   0.674   1.594   5.247 -0.3790  0.1251 -0.3405
 6547TIP3    H141056   0.601   1.570   5.304 -0.9125 -0.7540 -1.3531
 6547TIP3    H241057   0.698   1.513   5.204  0.5116  0.6256 -0.8097
 6548TIP3   OH241058   0.747   5.226  12.332 -1.0115 -0.2728  0.0714
 6548TIP3    H141059   0.717   5.243  12.243  0.1771 -0.4574 -0.3804
 6548TIP3    H241060   0.792   5.142  12.326  1.3631  0.9153  0.2557
 6549TIP3   OH241061   3.628   1.976  16.034  0.3951 -0.1787 -0.7680
 6549TIP3    H141062   3.674   2.000  15.954  0.5070  0.1681 -0.6011
 6549TIP3    H241063   3.540   1.953  16.005  0.1094  0.9934 -0.8637
 6550TIP3   OH241064   2.473   3.908  13.401  0.5039 -0.0129  0.5128
 6550TIP3    H141065   2.462   3.984  13.458  3.7956  0.8971  0.1229
 6550TIP3    H241066   2.484   3.835  13.461  1.0005  0.4502  0.9970
 6551TIP3   OH241067   0.338   2.341   3.348 -0.2785  0.3243  0.6125
 6551TIP3    H141068   0.408   2.358   3.411  0.7125  0.4782 -0.5100
 6551TIP3    H241069   0.288   2.422   3.345  0.8102  0.9838 -0.1980
 6552TIP3   OH241070   0.229   5.752  13.938 -0.9715 -0.5166  0.8820
 6552TIP3    H141071   0.299   5.749  14.004  0.5696 -2.0093 -0.7224
 6552TIP3    H241072   0.234   5.840  13.901 -0.9230 -0.1366  1.7713
 6553TIP3   OH241073   4.100   3.424   1.743  0.6609 -0.3726 -0.2706
 6553TIP3    H141074   4.057   3.448   1.825 -0.4330  1.2896 -1.2657
 6553TIP3    H241075   4.030   3.423   1.678  1.3672 -2.4545 -1.0885
 6554TIP3   OH241076   3.435   2.031  10.419 -0.2778  0.6533  0.0596
 6554TIP3    H141077   3.344   2.027  10.388 -0.3824  2.8930 -0.0605
 6554TIP3    H241078   3.487   2.039  10.339  0.1426 -1.2023  0.0849
 6555TIP3   OH241079   3.502   2.534   2.360  0.1154 -0.1921  0.0842
 6555TIP3    H141080   3.541   2.466   2.416 -0.0298 -0.5233 -0.2166
 6555TIP3    H241081   3.491   2.492   2.275  0.6171  0.4063 -0.2801
 6556TIP3   OH241082   5.847   3.706  16.501  0.4196 -0.5862  0.5453
 6556TIP3    H141083   5.894   3.705  16.585  0.6178 -0.8384  0.4334
 6556TIP3    H241084   5.767   3.755  16.519  0.4986 -0.5700  0.8648
 6557TIP3   OH241085   5.909   1.469   6.096 -0.4540  0.7002  0.3170
 6557TIP3    H141086   5.914   1.478   6.191 -1.4452 -1.3771  0.6084
 6557TIP3    H241087   5.993   1.431   6.071 -0.9258 -0.5902  0.6345
 6558TIP3   OH241088   1.021   6.681  15.471  0.3173 -0.2729  0.2331
 6558TIP3    H141089   0.949   6.676  15.534 -1.0212 -0.2532 -1.2328
 6558TIP3    H241090   1.012   6.768  15.432 -0.0541 -0.9770 -1.3040
 6559TIP3   OH241091   0.086   3.274   0.912 -0.6521  0.1871 -0.5228
 6559TIP3    H141092   0.114   3.248   0.824 -0.3294  0.7465 -0.5885
 6559TIP3    H241093   0.127   3.210   0.970  0.8680  1.0348 -0.6105
 6560TIP3   OH241094   2.807   1.343  14.057  0.0809 -0.2006  0.0761
 6560TIP3    H141095   2.753   1.412  14.019  2.0666  1.6884  0.4937
 6560TIP3    H241096   2.763   1.319  14.138 -2.0385 -1.4005 -1.3349
 6561TIP3   OH241097   1.806   1.046   3.464 -0.1703  0.0649  0.2910
 6561TIP3    H141098   1.867   1.104   3.510 -0.2509 -0.0200  0.5107
 6561TIP3    H241099   1.842   0.958   3.479 -0.7022 -0.0471  0.9913
 6562TIP3   OH241100   5.496   1.154   5.989  0.1081  0.2623 -0.1244
 6562TIP3    H141101   5.586   1.186   5.983  0.3887 -0.0693  1.7782
 6562TIP3    H241102   5.496   1.096   6.065 -1.8529  0.7705  0.3249
 6563TIP3   OH241103   4.176   1.214  11.566  0.2354 -0.5150  0.3692
 6563TIP3    H141104   4.129   1.171  11.494 -0.9143  0.7870  0.2955
 6563TIP3    H241105   4.264   1.228  11.532  0.2430 -1.5545 -0.0943
 6564TIP3   OH241106   6.478   0.760  11.812 -0.1623 -0.7380 -0.2505
 6564TIP3    H141107   6.421   0.730  11.883  0.9298 -2.3622 -0.0141
 6564TIP3    H241108   6.428   0.742  11.732 -0.4990 -0.9404  0.0028
 6565TIP3   OH241109   0.131   2.860   2.784 -0.1169 -0.4694 -0.3620
 6565TIP3    H141110   0.142   2.926   2.715  0.8501  0.7861  0.9448
 6565TIP3    H241111   0.036   2.850   2.793 -0.2802  0.7561 -0.5928
 6566TIP3   OH241112   4.080   4.851   3.276 -0.2583  0.3034 -0.0005
 6566TIP3    H141113   4.027   4.823   3.201 -2.4855  0.3147  1.4756
 6566TIP3    H241114   4.127   4.928   3.244 -1.4268  0.5308 -1.2961
 6567TIP3   OH241115   6.225   5.925  14.316  0.3008 -0.1557  0.6368
 6567TIP3    H141116   6.207   5.929  14.410  1.0122 -0.9623  0.8164
 6567TIP3    H241117   6.293   5.858  14.307  0.3027 -0.0271 -0.4446
 6568TIP3   OH241118   1.818   3.655  12.494 -0.3575 -0.3432  0.0403
 6568TIP3    H141119   1.868   3.623  12.569  0.6923 -2.9464 -1.6125
 6568TIP3    H241120   1.881   3.709  12.445  0.0388 -1.3336 -0.5904
 6569TIP3   OH241121   6.697   2.547   4.952 -0.1633  0.1146 -0.1980
 6569TIP3    H141122   6.602   2.537   4.960 -0.2311  0.2267 -0.8397
 6569TIP3    H241123   6.731   2.458   4.949 -0.5744 -0.0381 -3.6690
 6570TIP3   OH241124   2.738   2.345  14.605 -0.0036 -0.5353 -0.6233
 6570TIP3    H141125   2.707   2.430  14.574 -0.1557  0.0459  1.0480
 6570TIP3    H241126   2.666   2.312  14.660  1.6320  0.1673  2.1271
 6571TIP3   OH241127   1.781   2.452  11.709  0.1021  0.5003 -0.0901
 6571TIP3    H141128   1.795   2.514  11.637  0.1565  0.6195  0.0236
 6571TIP3    H241129   1.793   2.504  11.788 -0.2563  0.4385  0.0073
 6572TIP3   OH241130   1.986   5.039   5.085  0.4421 -0.1789  0.3227
 6572TIP3    H141131   1.899   5.015   5.119 -0.3090 -0.9961 -1.9858
 6572TIP3    H241132   1.990   5.134   5.097 -0.8691 -0.0957  0.3024
 6573TIP3   OH241133   2.349   6.400  10.929 -0.0099 -0.2588 -0.2317
 6573TIP3    H141134   2.386   6.369  11.012 -0.3263 -1.6626 -0.5921
 6573TIP3    H241135   2.401   6.356  10.862 -1.0311 -0.7060 -0.7532
 6574TIP3   OH241136   4.304   0.445  14.470  0.5392 -0.1959 -0.1446
 6574TIP3    H141137   4.275   0.441  14.561 -2.8700  1.4540 -1.0001
 6574TIP3    H241138   4.282   0.359  14.434 -0.4061 -0.0306  0.0232
 6575TIP3   OH241139   4.221   1.671   1.579  1.2377  0.1922 -0.0876
 6575TIP3    H141140   4.242   1.667   1.486  2.8016 -1.5749  0.2620
 6575TIP3    H241141   4.304   1.695   1.621  0.3854  1.6573  0.8323
 6576TIP3   OH241142   6.713   1.796   6.243 -0.2736  0.2796  0.7045
 6576TIP3    H141143   6.775   1.795   6.316  2.0937 -1.5227 -1.1276
 6576TIP3    H241144   6.768   1.782   6.166 -2.7251  1.4247 -1.3724
 6577TIP3   OH241145   1.897   2.152  13.081 -1.1187  0.2579  0.6806
 6577TIP3    H141146   1.983   2.163  13.040 -0.3732 -0.0056  2.1039
 6577TIP3    H241147   1.874   2.061  13.063 -1.0720  0.3119  0.3457
 6578TIP3   OH241148   1.134   5.977  13.095  0.2755  0.2231  0.7777
 6578TIP3    H141149   1.076   5.981  13.019  0.1622 -1.6954  0.7036
 6578TIP3    H241150   1.074   5.966  13.169  0.4316 -3.4762  0.5502
 6579TIP3   OH241151   5.527   0.827  11.163 -0.7144 -0.7727  0.1244
 6579TIP3    H141152   5.586   0.799  11.093 -0.2243 -2.0473  1.0087
 6579TIP3    H241153   5.442   0.834  11.121 -0.3930 -1.3201 -0.6362
 6580TIP3   OH241154   4.851   0.817  15.602 -0.2845  0.2050 -0.8428
 6580TIP3    H141155   4.917   0.829  15.670 -1.6827  2.6343  0.2154
 6580TIP3    H241156   4.899   0.826  15.520  0.7408  2.0152 -0.1047
 6581TIP3   OH241157   2.407   3.752   3.916 -0.2530 -0.5915 -0.0043
 6581TIP3    H141158   2.421   3.663   3.948 -1.4412 -1.2286 -1.1460
 6581TIP3    H241159   2.400   3.806   3.995 -1.7028 -1.8684  0.7913
 6582TIP3   OH241160   2.855   0.942  16.448  0.3585 -0.2436  0.5941
 6582TIP3    H141161   2.945   0.966  16.428  0.7013  0.8097  2.9873
 6582TIP3    H241162   2.832   0.998  16.523 -2.6351  0.2302 -0.5568
 6583TIP3   OH241163   2.872   4.558   0.135 -0.3643 -0.4369  1.1340
 6583TIP3    H141164   2.923   4.620   0.187  0.4402 -1.3692  1.4793
 6583TIP3    H241165   2.827   4.504   0.200 -0.9476 -0.3215  0.8373
 6584TIP3   OH241166   2.019   0.077  11.206  0.3329 -0.4661  0.4672
 6584TIP3    H141167   1.962   0.101  11.133  1.0386 -0.5581 -0.1142
 6584TIP3    H241168   2.096   0.039  11.166  1.9771  1.9430  1.0839
 6585TIP3   OH241169   6.718   4.248  13.934  0.1848 -0.2654 -0.1841
 6585TIP3    H141170   6.647   4.282  13.879  1.9867  2.2155 -1.1639
 6585TIP3    H241171   6.779   4.207  13.873  0.7022 -0.2982  0.3401
 6586TIP3   OH241172   4.462   1.882  14.641  0.2364 -0.4837  0.2399
 6586TIP3    H141173   4.451   1.969  14.679 -0.1377 -0.3889 -0.0825
 6586TIP3    H241174   4.375   1.857  14.611  0.6956 -0.0574 -1.6210
 6587TIP3   OH241175   6.451   4.515  12.722  0.5438  0.0518  0.4166
 6587TIP3    H141176   6.434   4.580  12.790 -1.0432 -0.3144  0.4050
 6587TIP3    H241177   6.471   4.566  12.644 -0.8841  0.5506  0.3571
 6588TIP3   OH241178   6.010   4.490  10.878 -0.4176 -0.2257 -0.2698
 6588TIP3    H141179   6.008   4.549  10.953  2.3323 -0.8893  0.4222
 6588TIP3    H241180   5.953   4.417  10.903  0.8746 -0.7021  1.4677
 6589TIP3   OH241181   6.072   1.281  10.387  0.0722 -0.6199  0.6738
 6589TIP3    H141182   6.151   1.326  10.416  0.0751 -2.0724  3.2590
 6589TIP3    H241183   6.001   1.343  10.407  0.3752 -0.2650  0.6521
 6590TIP3   OH241184   1.815   3.151   5.643  0.7216 -0.2683  0.1863
 6590TIP3    H141185   1.884   3.096   5.604  0.9516  1.7915 -2.6568
 6590TIP3    H241186   1.861   3.204   5.708  1.8222  0.7511 -1.3428
 6591TIP3   OH241187   6.116   6.551  13.127 -0.3399  0.6969 -0.6349
 6591TIP3    H141188   6.094   6.632  13.081  0.1033  0.9369 -0.4248
 6591TIP3    H241189   6.067   6.555  13.209 -0.8190  0.4509 -0.9002
 6592TIP3   OH241190   6.195   3.739  14.927  0.4558 -0.3162 -0.3210
 6592TIP3    H141191   6.252   3.679  14.879  0.8260  0.5217 -0.9382
 6592TIP3    H241192   6.244   3.763  15.005  0.0259 -1.3427  0.2890
 6593TIP3   OH241193   4.345   1.409   3.341 -0.0199 -0.1527 -0.2832
 6593TIP3    H141194   4.320   1.326   3.300 -3.1733 -0.3257  1.6446
 6593TIP3    H241195   4.290   1.474   3.297 -1.6178  0.0093  1.7763
 6594TIP3   OH241196   6.613   1.943   0.131  0.0411 -0.0301 -0.0236
 6594TIP3    H141197   6.668   2.014   0.098 -0.1725  0.8336  1.3846
 6594TIP3    H241198   6.527   1.959   0.091  0.6612 -1.1998 -1.9728
 6595TIP3   OH241199   0.134   6.096  16.281  0.5744  0.4173 -0.4638
 6595TIP3    H141200   0.130   6.160  16.210  1.1308  0.3046 -0.6026
 6595TIP3    H241201   0.050   6.050  16.277  0.3265  0.8810 -0.6051
 6596TIP3   OH241202   3.895   1.536   6.293 -0.1369  0.5333 -0.0052
 6596TIP3    H141203   3.971   1.589   6.318  0.0607  0.5649 -0.6556
 6596TIP3    H241204   3.871   1.490   6.373 -0.5387  1.8842  0.6777
 6597TIP3   OH241205   4.037   0.323   4.664  0.0427  0.1911 -0.3856
 6597TIP3    H141206   4.131   0.328   4.644  0.6600  0.3632  2.1656
 6597TIP3    H241207   4.032   0.346   4.757 -2.5883  0.4769 -0.5394
 6598TIP3   OH241208   4.845   1.389   5.148 -0.1611  0.6954 -0.4708
 6598TIP3    H141209   4.751   1.375   5.158 -0.1672 -0.1318 -1.4710
 6598TIP3    H241210   4.852   1.465   5.089 -0.1899  0.8780 -0.2424
 6599TIP3   OH241211   4.491   4.473   3.977  0.0236  0.0082 -0.3733
 6599TIP3    H141212   4.484   4.433   3.890  0.0886  1.0947 -0.8829
 6599TIP3    H241213   4.425   4.426   4.029 -0.0393 -0.6302 -1.0109
 6600TIP3   OH241214   0.868   3.787   4.241  0.4545 -0.1812  0.4843
 6600TIP3    H141215   0.810   3.820   4.309 -0.5615  1.5670 -1.1348
 6600TIP3    H241216   0.809   3.746   4.177  1.2912 -0.9971  0.2175
 6601TIP3   OH241217   6.334   1.547  14.599  0.1915  0.2369 -0.0861
 6601TIP3    H141218   6.357   1.526  14.690  0.4058 -0.2679 -0.2540
 6601TIP3    H241219   6.291   1.632  14.605  0.9516  0.6031  0.3941
 6602TIP3   OH241220   2.564   5.226  11.868 -0.0754  0.4643  0.3071
 6602TIP3    H141221   2.586   5.204  11.958 -1.9687  1.9331  1.1884
 6602TIP3    H241222   2.477   5.189  11.855  0.0797  0.4702 -0.8652
 6603TIP3   OH241223   4.041   0.169  13.578 -0.6972  0.3772 -0.0650
 6603TIP3    H141224   4.080   0.189  13.664 -1.4554 -2.5582  1.0916
 6603TIP3    H241225   4.027   0.074  13.580 -0.2805  0.1122 -3.6908
 6604TIP3   OH241226   5.608   5.522  15.571  0.3295  0.0011  0.5055
 6604TIP3    H141227   5.627   5.581  15.498 -0.7243 -0.3481 -0.0699
 6604TIP3    H241228   5.512   5.520  15.576  0.3841  0.5901  2.3694
 6605TIP3   OH241229   4.037   4.990   3.004  0.2587 -0.0124  0.0153
 6605TIP3    H141230   3.988   4.909   3.018  1.5830 -0.5865  1.8005
 6605TIP3    H241231   4.013   5.045   3.079 -0.0327  0.9728 -0.7739
 6606TIP3   OH241232   1.719   6.764   0.243  0.2067  0.1059  0.2021
 6606TIP3    H141233   1.663   6.836   0.271 -2.3293 -1.4950 -0.3926
 6606TIP3    H241234   1.701   6.754   0.150 -0.5372 -2.0295  0.4997
 6607TIP3   OH241235   0.745   0.709   1.559 -0.1044 -0.6680 -0.0373
 6607TIP3    H141236   0.736   0.625   1.515 -1.7594  0.1159 -1.3387
 6607TIP3    H241237   0.675   0.763   1.521 -0.6855  0.5400  2.5185
 6608TIP3   OH241238   2.170   5.555  16.779 -0.0059 -0.2999  0.0378
 6608TIP3    H141239   2.175   5.640  16.822  3.9082  0.0535 -0.8008
 6608TIP3    H241240   2.141   5.495  16.849 -2.8171  1.5493  0.6462
 6609TIP3   OH241241   0.635   2.954   5.018 -0.1694 -0.2720 -0.1429
 6609TIP3    H141242   0.692   2.993   4.951 -1.6198  0.0890 -1.2139
 6609TIP3    H241243   0.563   3.017   5.027  0.2749  0.0039  2.2368
 6610TIP3   OH241244   5.375   3.297  16.003  0.0200  0.2790 -0.6310
 6610TIP3    H141245   5.414   3.210  16.013  0.4227  0.5211 -0.0441
 6610TIP3    H241246   5.312   3.304  16.074  0.8366  0.9120  0.0461
 6611TIP3   OH241247   4.019   5.426  14.826 -0.1254  0.0876  0.1286
 6611TIP3    H141248   4.057   5.511  14.804 -0.1915  0.3875  1.1244
 6611TIP3    H241249   3.936   5.424  14.778 -1.3628  1.6924  2.0228
 6612TIP3   OH241250   0.967   2.035   3.504 -0.0599 -0.0255  0.0473
 6612TIP3    H141251   1.049   2.023   3.552  0.1950 -0.1750 -0.4289
 6612TIP3    H241252   0.901   2.041   3.573  0.5249  1.5821  0.4977
 6613TIP3   OH241253   3.749   5.236  15.023  0.3576 -0.2848  0.6199
 6613TIP3    H141254   3.729   5.167  14.960 -0.4761 -0.3275  0.9217
 6613TIP3    H241255   3.834   5.211  15.059  0.7141 -0.4047 -0.2753
 6614TIP3   OH241256   0.450   4.536   2.289  0.1995  0.7961 -0.3554
 6614TIP3    H141257   0.413   4.462   2.241  0.1011  0.6394 -0.0398
 6614TIP3    H241258   0.391   4.609   2.270  0.7107  0.9872 -1.2754
 6615TIP3   OH241259   0.082   2.203   0.424 -0.0366 -0.5025 -0.3383
 6615TIP3    H141260   0.080   2.295   0.451  1.7183 -0.5194  0.0087
 6615TIP3    H241261   0.175   2.186   0.405 -0.0493 -2.6546  1.2182
 6616TIP3   OH241262   0.179   3.604   5.202  0.3634  0.1098 -0.0565
 6616TIP3    H141263   0.092   3.565   5.211  0.2374  0.3525 -0.2029
 6616TIP3    H241264   0.192   3.653   5.284 -0.6268  2.0115 -0.9551
 6617TIP3   OH241265   5.447   4.487  15.869 -0.4118  0.3643 -0.5299
 6617TIP3    H141266   5.453   4.447  15.782  0.5002  1.1925 -0.8643
 6617TIP3    H241267   5.531   4.467  15.910  0.1083  1.9865 -0.7427
 6618TIP3   OH241268   3.056   4.121   1.338 -0.1682  0.6338 -0.9278
 6618TIP3    H141269   3.125   4.167   1.386 -1.6716 -0.4199  2.5169
 6618TIP3    H241270   3.000   4.192   1.303  0.6404  1.4397 -0.6236
 6619TIP3   OH241271   1.510   5.596   1.430 -0.2924  0.5210 -0.2945
 6619TIP3    H141272   1.460   5.526   1.390  0.8876 -2.1768  2.4983
 6619TIP3    H241273   1.446   5.648   1.479 -0.9057 -0.0825 -0.4582
 6620TIP3   OH241274   6.007   1.229  13.072 -0.6373  0.3198  0.1411
 6620TIP3    H141275   6.064   1.228  13.149  1.2975  0.6373 -1.1996
 6620TIP3    H241276   5.984   1.321  13.059  2.2748  0.9250 -1.7865
 6621TIP3   OH241277   5.086   4.721  13.986 -0.3016 -0.4726 -0.7806
 6621TIP3    H141278   5.114   4.629  13.990 -0.1258 -0.4964 -2.2021
 6621TIP3    H241279   5.048   4.731  13.899 -1.9812  0.3634  0.0071
 6622TIP3   OH241280   5.069   4.218  15.977 -0.0060 -0.1022  0.2135
 6622TIP3    H141281   5.060   4.235  15.884 -0.5219 -1.3283  0.0170
 6622TIP3    H241282   5.158   4.184  15.987  0.4263  1.0269  0.3493
 6623TIP3   OH241283   5.057   5.823   3.179  0.2546 -0.4083  0.2507
 6623TIP3    H141284   5.096   5.762   3.117  0.6523 -0.5443  0.6280
 6623TIP3    H241285   5.114   5.899   3.178  1.7522 -1.4211  2.3277
 6624TIP3   OH241286   4.905   2.406   5.595  0.1266 -0.2050  0.1122
 6624TIP3    H141287   4.811   2.394   5.612 -0.5315  2.9467 -0.6256
 6624TIP3    H241288   4.918   2.371   5.507  0.0869 -2.1959  0.8438
 6625TIP3   OH241289   0.926   1.511  11.606 -0.1292  0.4243  0.7005
 6625TIP3    H141290   1.014   1.544  11.589  0.1515  0.9097  2.8342
 6625TIP3    H241291   0.921   1.429  11.557  0.7202  1.4197 -1.1677
 6626TIP3   OH241292   5.300   4.099   4.608  0.0117  0.0533  0.0533
 6626TIP3    H141293   5.320   4.184   4.647 -1.7172 -0.0675  1.3194
 6626TIP3    H241294   5.245   4.119   4.532  0.4648  0.1050 -0.2657
 6627TIP3   OH241295   3.474   5.961   3.291 -0.2971  0.3386 -0.0532
 6627TIP3    H141296   3.449   5.981   3.201 -0.0122  2.9123  0.3582
 6627TIP3    H241297   3.397   5.984   3.343 -0.0505 -0.0244  0.4809
 6628TIP3   OH241298   2.719   1.617  15.820  0.1366  0.5454 -0.3923
 6628TIP3    H141299   2.653   1.623  15.888  0.7043  2.1286  0.0536
 6628TIP3    H241300   2.784   1.555  15.855 -0.2502  0.3088 -0.0914
 6629TIP3   OH241301   3.517   6.248   1.249  0.3308  0.5407 -0.3754
 6629TIP3    H141302   3.572   6.219   1.176 -0.6723 -1.1203 -0.5056
 6629TIP3    H241303   3.428   6.245   1.214 -0.3857 -2.1370  1.3906
 6630TIP3   OH241304   0.819   2.908   5.237  0.1630 -0.2275  0.0496
 6630TIP3    H141305   0.755   2.894   5.167  0.3300  0.3008 -0.2209
 6630TIP3    H241306   0.792   2.990   5.278  0.1452 -0.4684  0.5187
 6631TIP3   OH241307   4.982   0.106   2.168 -0.9101 -0.0214 -0.2922
 6631TIP3    H141308   4.997   0.113   2.073  0.9861  0.2232 -0.0047
 6631TIP3    H241309   4.919   0.176   2.187 -2.4677 -0.9815 -1.5540
 6632TIP3   OH241310   4.190   3.325  12.132 -0.7696  0.2977  0.7144
 6632TIP3    H141311   4.232   3.337  12.047  0.7836 -1.0782  1.2270
 6632TIP3    H241312   4.201   3.409  12.177  1.8513 -0.1073  0.9569
 6633TIP3   OH241313   2.421   1.421  15.668 -0.3347 -0.1835  0.1547
 6633TIP3    H141314   2.463   1.400  15.751  0.4870  0.9662  0.0560
 6633TIP3    H241315   2.388   1.510  15.679  1.2889  0.6628 -1.2724
 6634TIP3   OH241316   4.730   4.260  13.114  0.6725 -0.2662  0.0149
 6634TIP3    H141317   4.667   4.303  13.171 -0.9956 -0.7276 -1.3982
 6634TIP3    H241318   4.815   4.288  13.148 -0.2845  1.5906  1.0853
 6635TIP3   OH241319   5.133   5.844  16.458  0.0850 -0.1947  0.2054
 6635TIP3    H141320   5.103   5.919  16.408 -0.2306 -0.0133  0.6613
 6635TIP3    H241321   5.071   5.837  16.531  0.1855 -0.8179  0.2375
 6636TIP3   OH241322   4.950   2.936  16.165  0.2367 -0.4371  0.0245
 6636TIP3    H141323   4.974   2.853  16.204 -0.1145  0.2381  1.7635
 6636TIP3    H241324   4.904   2.983  16.234  0.3044  1.1547 -0.9533
 6637TIP3   OH241325   6.562   5.197  16.774 -0.3753 -0.2331 -0.0978
 6637TIP3    H141326   6.556   5.158  16.687  1.0769 -1.4551  0.3069
 6637TIP3    H241327   6.512   5.137  16.830  1.1005 -1.0825  0.3702
 6638TIP3   OH241328   5.075   1.935  11.501 -0.1889 -0.3575  0.1656
 6638TIP3    H141329   5.124   1.867  11.456 -0.0835 -0.4289  0.3909
 6638TIP3    H241330   5.140   1.981  11.554 -0.5221 -1.0451  1.1970
 6639TIP3   OH241331   6.598   2.896  13.601 -0.6912  0.3612  0.1966
 6639TIP3    H141332   6.618   2.938  13.518  0.4113  1.4373  0.9827
 6639TIP3    H241333   6.504   2.911  13.614 -1.2821 -1.2913 -1.6238
 6640TIP3   OH241334   6.637   6.011   5.772 -0.2299  0.0569  0.0628
 6640TIP3    H141335   6.668   5.983   5.859 -0.2140  1.1612  0.4308
 6640TIP3    H241336   6.710   5.991   5.713  0.1505  0.2034  0.4787
 6641TIP3   OH241337   0.674   1.318  11.398  0.0484 -0.5510  0.7249
 6641TIP3    H141338   0.655   1.299  11.307 -1.6256 -1.3872  1.2054
 6641TIP3    H241339   0.749   1.263  11.419  0.9367  0.2159 -0.3232
 6642TIP3   OH241340   3.066   2.564  10.421 -0.2719 -0.1162  0.4585
 6642TIP3    H141341   2.991   2.505  10.427 -0.7185  0.4520  0.5171
 6642TIP3    H241342   3.133   2.513  10.375 -0.3310 -0.9806  1.2896
 6643TIP3   OH241343   1.042   1.562  15.121  0.8806  0.2411 -0.2457
 6643TIP3    H141344   0.983   1.499  15.081  0.8686 -0.5523  0.9763
 6643TIP3    H241345   1.130   1.532  15.096  0.9063 -0.6607  0.8566
 6644TIP3   OH241346   4.846   4.926   0.566 -0.3506  0.2472  0.2997
 6644TIP3    H141347   4.820   5.012   0.598  0.8149  0.8995 -0.4219
 6644TIP3    H241348   4.925   4.943   0.514  0.3676 -1.3634  0.8078
 6645TIP3   OH241349   5.050   5.706  12.072 -0.2670  0.3412  0.7160
 6645TIP3    H141350   4.956   5.710  12.086 -0.2161 -0.4255  1.4046
 6645TIP3    H241351   5.080   5.636  12.132  0.5017 -0.5555 -0.6612
 6646TIP3   OH241352   2.444   6.726   2.382 -0.1596 -0.1289 -0.4241
 6646TIP3    H141353   2.455   6.705   2.475 -0.0671  0.1227 -0.3782
 6646TIP3    H241354   2.378   6.796   2.381 -0.5810 -0.5233 -0.5884
 6647TIP3   OH241355   3.160   6.660   2.547  0.0121  0.1400 -0.0021
 6647TIP3    H141356   3.076   6.614   2.548  0.2832 -0.4506  2.3905
 6647TIP3    H241357   3.137   6.753   2.552 -0.5018  0.0459 -0.5075
 6648TIP3   OH241358   0.130   6.219  16.045 -0.7287  0.0935 -0.8207
 6648TIP3    H141359   0.209   6.241  15.995 -0.9002 -0.1647 -1.2093
 6648TIP3    H241360   0.089   6.149  15.995 -0.1506 -1.1734  0.4291
 6649TIP3   OH241361   5.948   6.708   5.614  0.1708 -0.0245  0.5535
 6649TIP3    H141362   6.037   6.677   5.627  0.1254 -0.2728  0.3057
 6649TIP3    H241363   5.893   6.643   5.659  0.0682 -0.3881 -0.0799
 6650TIP3   OH241364   1.210   0.375   1.995  0.2445 -0.0182 -0.2485
 6650TIP3    H141365   1.190   0.410   1.908 -0.6164  0.6048  0.1913
 6650TIP3    H241366   1.294   0.414   2.018 -0.3742  1.2270 -0.0571
 6651TIP3   OH241367   2.499   3.086  13.507 -0.5319  0.0128 -0.0842
 6651TIP3    H141368   2.553   3.007  13.504 -0.0995  0.0838  2.8556
 6651TIP3    H241369   2.562   3.157  13.517 -1.0095  0.5720 -0.9421
 6652TIP3   OH241370   3.440   6.524   1.665  0.5383  0.6415 -0.5697
 6652TIP3    H141371   3.392   6.601   1.697  0.4423  1.6093 -2.8253
 6652TIP3    H241372   3.486   6.556   1.588  0.5096 -1.5938 -1.5819
 6653TIP3   OH241373   3.873   3.253   3.696 -0.3803 -0.3508  0.4767
 6653TIP3    H141374   3.802   3.253   3.631  0.2844 -1.0666 -0.2760
 6653TIP3    H241375   3.902   3.162   3.699  1.8573  0.2632 -0.7266
 6654TIP3   OH241376   3.112   5.685  14.572 -0.4095  0.4868  0.0601
 6654TIP3    H141377   3.090   5.594  14.554 -1.8340  0.6568  0.7929
 6654TIP3    H241378   3.123   5.688  14.667 -0.1157  1.0359  0.0132
 6655TIP3   OH241379   5.109   2.170  12.057 -0.5912 -0.1297 -0.1454
 6655TIP3    H141380   5.105   2.130  12.144  0.1202  1.1011  0.4794
 6655TIP3    H241381   5.022   2.156  12.020 -1.0667 -0.2159  0.9654
 6656TIP3   OH241382   5.946   3.872   5.899  0.4881  0.2434 -0.3111
 6656TIP3    H141383   5.971   3.959   5.869 -0.9176  1.1555  1.0349
 6656TIP3    H241384   5.941   3.880   5.994  2.6909 -1.9850  0.1109
 6657TIP3   OH241385   3.732   3.126   4.591  0.3101  0.0845 -0.2824
 6657TIP3    H141386   3.802   3.166   4.539  0.1754  0.6243 -0.0517
 6657TIP3    H241387   3.693   3.061   4.532 -0.8236  1.7177 -1.4009
 6658TIP3   OH241388   6.515   0.729   4.599  0.0481 -0.5562  0.2379
 6658TIP3    H141389   6.468   0.691   4.673 -1.2402 -0.5318 -0.5382
 6658TIP3    H241390   6.477   0.687   4.522  0.8701 -0.0716 -0.4554
 6659TIP3   OH241391   4.200   5.626   3.212  0.0842  0.2266  0.1434
 6659TIP3    H141392   4.170   5.672   3.290 -0.8795  0.3103 -0.2628
 6659TIP3    H241393   4.295   5.619   3.223 -0.1709 -1.1157  2.0583
 6660TIP3   OH241394   4.491   1.256   2.861  0.2262 -0.1481  0.0482
 6660TIP3    H141395   4.571   1.282   2.816 -0.4271  3.4821  0.6534
 6660TIP3    H241396   4.421   1.297   2.810 -1.1499 -1.8089  0.5039
 6661TIP3   OH241397   0.756   1.457   4.446  0.3911 -0.9611 -0.1602
 6661TIP3    H141398   0.712   1.481   4.527 -0.8471 -0.8808 -0.8342
 6661TIP3    H241399   0.806   1.379   4.468  0.3298 -0.7552  0.7554
 6662TIP3   OH241400   1.999   2.259  13.665  0.4365 -0.7016 -0.0625
 6662TIP3    H141401   1.960   2.338  13.703  0.4720 -0.3955 -0.6412
 6662TIP3    H241402   2.034   2.289  13.581 -0.2276 -1.4925 -0.6430
 6663TIP3   OH241403   5.159   2.512   0.596  0.7086 -0.2116 -0.3538
 6663TIP3    H141404   5.243   2.556   0.585 -0.0839  1.2816 -0.7028
 6663TIP3    H241405   5.103   2.577   0.638 -0.6444 -0.7271 -1.2951
 6664TIP3   OH241406   3.795   5.250   0.197 -0.3251  0.6711  0.1188
 6664TIP3    H141407   3.712   5.228   0.239 -1.7567  1.9481 -1.8858
 6664TIP3    H241408   3.830   5.166   0.167 -1.2405  0.1942  0.3724
 6665TIP3   OH241409   6.386   4.763  11.503 -0.0653 -0.7681  0.2201
 6665TIP3    H141410   6.405   4.713  11.423 -0.8601 -1.5586  0.5099
 6665TIP3    H241411   6.303   4.727  11.534  0.5522 -0.9164  1.7552
 6666TIP3   OH241412   4.039   4.619  14.854 -0.5432  0.4653  0.0362
 6666TIP3    H141413   4.088   4.560  14.796  0.8314  2.0603 -0.5232
 6666TIP3    H241414   4.019   4.566  14.931 -0.0977 -0.9564 -0.7927
 6667TIP3   OH241415   4.777   4.663  11.043  0.3069 -0.0520 -0.1566
 6667TIP3    H141416   4.860   4.704  11.022 -0.2505  1.5103  0.5599
 6667TIP3    H241417   4.763   4.600  10.973  1.6114  0.3600 -0.8152
 6668TIP3   OH241418   2.358   4.505   2.500  0.2686  0.1181  0.3232
 6668TIP3    H141419   2.284   4.478   2.445  0.3861  0.1016  0.1710
 6668TIP3    H241420   2.428   4.523   2.437  1.3658 -2.7548  0.5835
 6669TIP3   OH241421   1.580   4.000  11.771  0.0943  0.3120  0.5292
 6669TIP3    H141422   1.542   4.053  11.700  1.6758  0.8502  0.0400
 6669TIP3    H241423   1.575   4.057  11.848 -0.3572  0.2591  0.5422
 6670TIP3   OH241424   4.702   5.044  12.548  0.3486 -1.0035 -0.2256
 6670TIP3    H141425   4.740   5.004  12.470  1.7279  0.5401 -0.4081
 6670TIP3    H241426   4.746   5.129  12.555 -0.4488 -0.6956  1.6885
 6671TIP3   OH241427   2.419   5.400   2.812 -0.5650  0.0874 -0.2112
 6671TIP3    H141428   2.356   5.433   2.876 -0.0440 -1.5595  1.2345
 6671TIP3    H241429   2.486   5.358   2.864  1.9237  1.9459 -1.6883
 6672TIP3   OH241430   3.732   3.752  13.633 -0.4124  0.0810  0.0707
 6672TIP3    H141431   3.762   3.755  13.543  1.1083 -0.7652  0.5109
 6672TIP3    H241432   3.674   3.827  13.642  0.9744  1.3352 -1.0725
 6673TIP3   OH241433   1.994   3.390  16.801  0.2808  0.8822 -0.2558
 6673TIP3    H141434   1.937   3.442  16.745 -1.1620 -0.1738  0.1725
 6673TIP3    H241435   1.944   3.310  16.819  1.2149  0.6433  1.5058
 6674TIP3   OH241436   4.930   4.083   1.621  0.1289 -0.2743  0.4804
 6674TIP3    H141437   4.884   4.125   1.548  0.1038  0.3026  0.8259
 6674TIP3    H241438   4.864   4.079   1.691  0.7586  1.1309  1.1960
 6675TIP3   OH241439   1.461   3.175  16.315 -0.7143 -0.5114 -0.5193
 6675TIP3    H141440   1.525   3.206  16.378  0.6019  0.5516 -2.2724
 6675TIP3    H241441   1.377   3.209  16.346  0.2599  2.2624 -0.6853
 6676TIP3   OH241442   0.694   5.187   6.277 -0.0812  0.3252  0.3424
 6676TIP3    H141443   0.767   5.191   6.338  0.9939 -2.7612 -0.5766
 6676TIP3    H241444   0.651   5.272   6.286  2.5070  1.5686  2.2398
 6677TIP3   OH241445   2.051   2.668  14.767 -0.1472  0.0332  0.4292
 6677TIP3    H141446   2.112   2.636  14.833 -0.8355  0.2314  1.1843
 6677TIP3    H241447   2.021   2.752  14.800  0.2308  0.6007 -0.6256
 6678TIP3   OH241448   1.084   5.936   1.597  0.1465  0.1533 -0.2864
 6678TIP3    H141449   1.151   5.997   1.566 -1.6047  2.0912 -0.4130
 6678TIP3    H241450   1.071   5.958   1.689 -2.0262  1.5630 -0.8473
 6679TIP3   OH241451   6.411   4.933  16.034 -0.1993 -0.3319 -0.3338
 6679TIP3    H141452   6.447   4.855  15.991  0.5193  0.0810 -0.4796
 6679TIP3    H241453   6.473   4.954  16.104 -0.6809 -0.2157  0.0654
 6680TIP3   OH241454   6.757   0.852   4.007 -0.3176  0.2196  0.2083
 6680TIP3    H141455   6.771   0.782   4.071  1.1188  0.5557  0.2867
 6680TIP3    H241456   6.662   0.858   3.999 -0.5038 -0.4662  1.6009
 6681TIP3   OH241457   3.330   4.115   0.454  0.4907  0.1871  0.6618
 6681TIP3    H141458   3.385   4.059   0.509  0.0381 -0.8744  0.0592
 6681TIP3    H241459   3.243   4.074   0.457  0.0606  1.0555  0.4769
 6682TIP3   OH241460   6.167   6.213  15.816 -0.3327  0.0938  0.4107
 6682TIP3    H141461   6.212   6.295  15.837 -1.0083  0.6134 -0.0955
 6682TIP3    H241462   6.213   6.146  15.867 -0.4252  0.9422  1.6706
 6683TIP3   OH241463   6.083   1.521  13.728 -0.0164 -0.0278  0.0846
 6683TIP3    H141464   6.165   1.517  13.777  0.1171  0.0355 -0.1300
 6683TIP3    H241465   6.107   1.559  13.643 -0.5304  1.4527  0.5680
 6684TIP3   OH241466   3.559   6.499   4.932  0.1355  0.0260 -0.5163
 6684TIP3    H141467   3.629   6.561   4.953 -0.0027 -0.5560  2.0739
 6684TIP3    H241468   3.567   6.484   4.838  2.3005  1.3924 -0.6239
 6685TIP3   OH241469   2.386   2.936  14.273  0.3940 -0.6860  0.4303
 6685TIP3    H141470   2.350   2.956  14.359  0.7479  0.0526  0.4136
 6685TIP3    H241471   2.443   3.010  14.253 -2.5157  1.1505 -2.0717
 6686TIP3   OH241472   1.002   0.590   0.463  0.0751  0.0528  0.1570
 6686TIP3    H141473   0.953   0.599   0.545  0.8838  0.9979  0.5590
 6686TIP3    H241474   0.936   0.599   0.394 -0.9098 -2.3977  0.6570
 6687TIP3   OH241475   0.359   0.540  13.327  0.3355  0.6310 -1.0789
 6687TIP3    H141476   0.433   0.575  13.377  0.2240  0.3579 -0.7222
 6687TIP3    H241477   0.400   0.481  13.263  0.2535 -2.2237  1.3027
 6688TIP3   OH241478   0.382   0.625  14.462 -0.1360  0.4396 -0.2563
 6688TIP3    H141479   0.353   0.562  14.528  0.4460  0.7033  0.2578
 6688TIP3    H241480   0.349   0.709  14.493 -0.3049  0.4961 -0.5781
 6689TIP3   OH241481   5.791   2.303   2.819  0.3353 -0.2964 -0.2404
 6689TIP3    H141482   5.851   2.357   2.869  0.0314 -0.3149  0.1516
 6689TIP3    H241483   5.784   2.346   2.734  1.3460 -0.6098 -0.4948
 6690TIP3   OH241484   1.446   3.849   3.718  0.3168  0.0497 -0.2325
 6690TIP3    H141485   1.531   3.805   3.719 -1.1298 -3.0476  1.1162
 6690TIP3    H241486   1.442   3.896   3.801 -0.0246 -1.5988  0.7448
 6691TIP3   OH241487   3.956   2.596  15.951 -0.0180 -0.1572 -0.2618
 6691TIP3    H141488   4.032   2.551  15.987 -0.3408 -0.5397 -0.0502
 6691TIP3    H241489   3.881   2.543  15.979 -0.5394  1.2301  1.1592
 6692TIP3   OH241490   4.385   0.695   5.172 -0.1103  0.1479 -0.5954
 6692TIP3    H141491   4.431   0.777   5.193  1.8859 -0.9555 -0.3921
 6692TIP3    H241492   4.335   0.675   5.251 -0.7391  1.2153 -0.6973
 6693TIP3   OH241493   5.909   1.793   5.355  0.4362  0.2157  0.6806
 6693TIP3    H141494   5.919   1.707   5.314  0.7253 -0.1713  1.5442
 6693TIP3    H241495   5.853   1.777   5.431  3.0568  0.1379  2.7380
 6694TIP3   OH241496   1.103   2.237   3.865  0.1383 -0.1887  0.4748
 6694TIP3    H141497   1.114   2.247   3.770  1.4381 -0.5692  0.5719
 6694TIP3    H241498   1.008   2.231   3.877 -0.0629  0.1628 -0.7669
 6695TIP3   OH241499   6.775   4.200   0.530  0.1802  0.0911  0.0089
 6695TIP3    H141500   6.863   4.164   0.523  0.5481  0.3897  2.3400
 6695TIP3    H241501   6.753   4.191   0.623 -3.5355 -2.9512 -0.9254
 6696TIP3   OH241502   4.416   4.962  14.486  0.3551  0.5287 -0.4061
 6696TIP3    H141503   4.444   5.042  14.441 -1.3239  1.1103 -0.4932
 6696TIP3    H241504   4.430   4.892  14.422  0.5075  0.9614 -0.8528
 6697TIP3   OH241505   6.252   5.165   6.336  0.7879 -0.7831  0.8872
 6697TIP3    H141506   6.170   5.172   6.288  1.5504 -2.4052 -0.7920
 6697TIP3    H241507   6.270   5.254   6.366 -0.9426 -0.1628  0.2347
 6698TIP3   OH241508   1.330   4.341   6.292  0.1550  0.4823  0.0931
 6698TIP3    H141509   1.253   4.395   6.309  0.9247  1.4678  0.5579
 6698TIP3    H241510   1.301   4.252   6.311 -0.6152  0.9335  1.1593
 6699TIP3   OH241511   1.339   0.027   1.137  0.4762 -0.2094 -0.2269
 6699TIP3    H141512   1.425  -0.003   1.108  0.3472 -0.7915 -0.0388
 6699TIP3    H241513   1.277  -0.032   1.094  0.2465 -0.6222  0.6363
 6700TIP3   OH241514   0.999   5.662  15.357  0.1772 -0.0467 -0.0548
 6700TIP3    H141515   1.071   5.650  15.419  0.7217 -0.6356 -0.7902
 6700TIP3    H241516   0.920   5.642  15.408  0.6837 -1.4475  0.2204
 6701TIP3   OH241517   1.515   3.228  16.628  0.1698 -0.3595  0.0004
 6701TIP3    H141518   1.601   3.231  16.670 -0.2965 -0.2142  0.9963
 6701TIP3    H241519   1.461   3.288  16.681 -0.4168 -0.0675 -0.9013
 6702TIP3   OH241520   1.311   2.185   4.118  0.1867  0.0447 -0.1714
 6702TIP3    H141521   1.221   2.154   4.124  0.3933 -0.9928 -1.9852
 6702TIP3    H241522   1.304   2.281   4.122 -1.0304 -0.0098 -0.6864
 6703TIP3   OH241523   5.319   3.203  14.325 -0.3614  0.1061 -0.3788
 6703TIP3    H141524   5.320   3.162  14.411  0.2969  0.7792 -0.0623
 6703TIP3    H241525   5.255   3.274  14.333  0.8000  1.1275  0.0141
 6704TIP3   OH241526   0.904   4.620  14.908  0.5765  0.2711  0.1987
 6704TIP3    H141527   0.921   4.572  14.990  1.5663 -1.7162 -1.0981
 6704TIP3    H241528   0.825   4.671  14.927  1.0476  0.2779  2.5420
 6705TIP3   OH241529   3.187   6.157   3.758 -0.9176 -0.1250  0.3279
 6705TIP3    H141530   3.134   6.114   3.825 -1.1005 -0.0198  0.2542
 6705TIP3    H241531   3.128   6.164   3.683 -1.7303  2.3774  1.0823
 6706TIP3   OH241532   1.596   2.129   1.890 -0.0672 -0.4822  0.3276
 6706TIP3    H141533   1.596   2.083   1.807  1.4484 -0.3879  0.2530
 6706TIP3    H241534   1.684   2.117   1.925  0.3053  2.0206  0.4706
 6707TIP3   OH241535   0.242   3.152   3.999  0.0857  0.4139  0.4830
 6707TIP3    H141536   0.328   3.193   4.003  0.8238 -0.8007 -1.4374
 6707TIP3    H241537   0.186   3.217   3.957  0.5649  0.4629 -0.0818
 6708TIP3   OH241538   1.029   0.134   0.912  0.6240 -0.4355 -0.0779
 6708TIP3    H141539   1.086   0.061   0.936  0.7225 -0.7866 -1.3121
 6708TIP3    H241540   1.027   0.189   0.990  0.4556 -1.8005  0.9207
 6709TIP3   OH241541   6.038   5.181  12.679 -0.2711  0.4790 -0.4827
 6709TIP3    H141542   6.116   5.142  12.640 -1.2665 -0.0234 -2.0628
 6709TIP3    H241543   6.001   5.235  12.610 -2.0284 -0.3296 -0.2323
 6710TIP3   OH241544   6.295   2.342   5.157 -0.1644 -0.3738 -0.1147
 6710TIP3    H141545   6.374   2.382   5.194  0.1777 -1.2523  0.1338
 6710TIP3    H241546   6.298   2.252   5.187 -0.5240 -0.7968 -1.2967
 6711TIP3   OH241547   0.929   2.242   6.129 -0.0939 -0.1894  0.5724
 6711TIP3    H141548   0.927   2.337   6.141 -0.9389 -0.0109 -0.7953
 6711TIP3    H241549   0.982   2.228   6.050  1.1410 -0.9764  1.4861
 6712TIP3   OH241550   2.499   0.801   6.336  0.4378  0.5338  0.0640
 6712TIP3    H141551   2.414   0.837   6.363  0.7424  0.1808  1.5760
 6712TIP3    H241552   2.533   0.865   6.273 -1.2739  0.2994 -1.1642
 6713TIP3   OH241553   4.538   5.091  15.180 -0.4405  0.3467 -0.1002
 6713TIP3    H141554   4.451   5.058  15.203 -0.2801 -0.0612 -0.0742
 6713TIP3    H241555   4.599   5.028  15.219 -0.1335  0.6224 -0.1307
 6714TIP3   OH241556   2.193   6.481   4.615 -0.0976  0.1847 -0.1966
 6714TIP3    H141557   2.165   6.424   4.544  3.3330 -0.8218 -0.8972
 6714TIP3    H241558   2.204   6.567   4.574  2.4036 -0.5072 -1.1550
 6715TIP3   OH241559   3.536   5.022  13.218  0.5366  0.0410  0.4299
 6715TIP3    H141560   3.554   5.096  13.276 -0.5033  0.8863 -0.2798
 6715TIP3    H241561   3.536   5.060  13.130  1.2460 -1.0529 -0.0605
 6716TIP3   OH241562   3.147   2.818   5.834  0.4215  0.2578  0.2986
 6716TIP3    H141563   3.202   2.883   5.790  0.6639  0.1233  0.3995
 6716TIP3    H241564   3.188   2.805   5.919 -0.2325  0.7542  0.6936
 6717TIP3   OH241565   1.560   2.470  12.978  0.0271 -0.4470  0.1205
 6717TIP3    H141566   1.530   2.553  12.941  1.6190  0.2502  0.2956
 6717TIP3    H241567   1.558   2.409  12.904  1.2736  0.4261 -0.6879
 6718TIP3   OH241568   1.841   0.837  14.838  0.4113 -0.3575  0.2488
 6718TIP3    H141569   1.822   0.746  14.862 -0.8893 -0.6478 -1.6646
 6718TIP3    H241570   1.921   0.831  14.786  1.2569 -0.1605  1.4788
 6719TIP3   OH241571   4.490   0.311  14.802  0.4778 -0.6534 -0.3854
 6719TIP3    H141572   4.504   0.233  14.748 -0.4786 -1.2016  0.1310
 6719TIP3    H241573   4.535   0.292  14.884  0.1460 -0.7074 -0.2157
 6720TIP3   OH241574   2.349   3.405  11.827  0.3238 -0.0318  0.2586
 6720TIP3    H141575   2.289   3.478  11.814 -2.1384 -1.9179  0.2944
 6720TIP3    H241576   2.366   3.403  11.921  0.6142  0.6513  0.2197
 6721TIP3   OH241577   6.059   4.572   0.835 -0.0244 -0.3382  0.4691
 6721TIP3    H141578   6.033   4.481   0.818 -1.0372  0.1793 -0.9574
 6721TIP3    H241579   6.120   4.593   0.763 -0.9277  0.5452 -0.0579
 6722TIP3   OH241580   0.345   3.690   5.617  0.2133 -0.4981  0.1088
 6722TIP3    H141581   0.354   3.768   5.673  0.7001 -0.3107 -0.2262
 6722TIP3    H241582   0.277   3.715   5.554 -0.3483 -0.7155  0.6178
 6723TIP3   OH241583   2.712   5.686   4.802 -0.7109  0.8731  0.1595
 6723TIP3    H141584   2.767   5.714   4.875 -4.1635  3.1164  2.2260
 6723TIP3    H241585   2.695   5.594   4.818  4.9914 -1.1195 -2.6308
 6724TIP3   OH241586   3.963   0.798   4.578  0.1627 -0.2652 -0.0777
 6724TIP3    H141587   3.925   0.783   4.492 -0.9679  0.0594  0.3343
 6724TIP3    H241588   4.010   0.717   4.598  1.0461 -0.0726 -1.2833
 6725TIP3   OH241589   3.769   3.239   4.338 -0.1830 -0.3698  0.0642
 6725TIP3    H141590   3.799   3.328   4.356  0.2619 -1.0184  3.2342
 6725TIP3    H241591   3.839   3.201   4.285  1.4280  0.1704  1.6743
 6726TIP3   OH241592   6.302   4.132  14.531  0.0285  0.4288 -0.1180
 6726TIP3    H141593   6.322   4.174  14.615  1.7833 -1.8364  0.6949
 6726TIP3    H241594   6.207   4.123  14.532  0.1058 -1.9254  2.9855
 6727TIP3   OH241595   3.113   2.210  12.241 -0.0346 -0.6807 -0.3597
 6727TIP3    H141596   3.196   2.164  12.225  0.0147 -0.6430 -0.2143
 6727TIP3    H241597   3.046   2.154  12.202  0.2687  0.3427 -2.5058
 6728TIP3   OH241598   6.420   3.235   1.377 -0.0648  0.1335 -0.0938
 6728TIP3    H141599   6.440   3.294   1.450 -0.0960 -1.2342  1.0701
 6728TIP3    H241600   6.334   3.264   1.347  0.1842  1.0648  0.0469
 6729TIP3   OH241601   5.570   3.604   5.052 -0.3171  1.0532  0.0142
 6729TIP3    H141602   5.644   3.657   5.023  0.3918  1.7851  2.8556
 6729TIP3    H241603   5.610   3.530   5.097 -1.3356  0.5180  0.0596
 6730TIP3   OH241604   6.684   4.858  11.927  0.4797 -0.6466  0.3301
 6730TIP3    H141605   6.773   4.869  11.893  0.4181 -1.8143 -0.2688
 6730TIP3    H241606   6.634   4.825  11.852 -0.0990 -1.4593  1.0569
 6731TIP3   OH241607   6.182   0.976  14.452  0.1064 -0.3295 -0.2063
 6731TIP3    H141608   6.133   0.917  14.510 -1.3193 -0.1603 -1.1886
 6731TIP3    H241609   6.120   0.998  14.382  0.6634  2.1527 -0.0132
 6732TIP3   OH241610   1.806   4.358  16.090  0.1461  0.2828  0.3768
 6732TIP3    H141611   1.882   4.328  16.041 -1.2211  1.6179 -2.8135
 6732TIP3    H241612   1.806   4.303  16.169  3.0389 -1.3530 -0.5887
 6733TIP3   OH241613   0.630   2.831   2.135 -0.9422 -0.5090  0.1787
 6733TIP3    H141614   0.697   2.769   2.107  0.9796  0.5176  2.1529
 6733TIP3    H241615   0.565   2.778   2.181 -1.4210 -1.4891 -1.5442
 6734TIP3   OH241616   4.017   5.935  13.681 -0.2120  0.0832  0.0706
 6734TIP3    H141617   4.078   5.940  13.755  0.6493  0.2508 -0.6406
 6734TIP3    H241618   4.062   5.883  13.615 -0.0603  1.7126 -1.1721
 6735TIP3   OH241619   2.661   5.583   0.913  0.3203  0.0698 -0.1211
 6735TIP3    H141620   2.576   5.539   0.908 -0.0235  0.7202 -0.1077
 6735TIP3    H241621   2.715   5.537   0.848 -0.3619  0.3316 -0.8979
 6736TIP3   OH241622   4.213   3.806   0.775 -0.2774 -0.7008 -0.2085
 6736TIP3    H141623   4.155   3.740   0.814 -1.6926  0.0433 -0.9513
 6736TIP3    H241624   4.221   3.874   0.842 -0.9878 -0.4022 -0.4199
 6737TIP3   OH241625   0.960   3.514   2.044  0.3282 -0.2223 -0.1408
 6737TIP3    H141626   0.961   3.551   1.956  2.4728 -1.2905 -0.6362
 6737TIP3    H241627   0.883   3.553   2.086  1.2707  3.1773 -1.2687
 6738TIP3   OH241628   0.750   3.973   3.848 -0.6644 -0.1029  0.3805
 6738TIP3    H141629   0.693   3.975   3.771 -0.0566 -0.6447 -0.0934
 6738TIP3    H241630   0.721   3.896   3.897 -0.4105 -0.3259  0.1856
 6739TIP3   OH241631   5.908   3.293  14.736 -0.6855 -0.0897 -0.2657
 6739TIP3    H141632   5.875   3.239  14.808 -2.9009  0.6340 -0.6527
 6739TIP3    H241633   5.829   3.322  14.690  0.6261  0.2759 -2.4207
 6740TIP3   OH241634   3.077   2.420   4.423  0.0782 -0.3690 -0.4228
 6740TIP3    H141635   3.158   2.417   4.473 -0.9847  0.3319  1.4537
 6740TIP3    H241636   3.020   2.356   4.465 -0.4663 -0.6157 -1.5016
 6741TIP3   OH241637   0.132   3.627  12.595  0.7386  0.3849  0.3023
 6741TIP3    H141638   0.146   3.626  12.500  1.0749 -1.0816  0.3398
 6741TIP3    H241639   0.130   3.720  12.618  0.0297  0.7896 -1.2199
 6742TIP3   OH241640   0.391   1.362  14.298  0.3815 -0.2299 -0.2931
 6742TIP3    H141641   0.415   1.269  14.292 -1.3104 -0.6412 -1.9146
 6742TIP3    H241642   0.438   1.404  14.226 -0.8856 -0.3882 -1.2621
 6743TIP3   OH241643   3.983   3.780   4.989  0.1968 -0.0218 -0.2199
 6743TIP3    H141644   3.976   3.689   4.959  1.3093 -0.1700 -0.0587
 6743TIP3    H241645   3.995   3.831   4.909  4.4287 -0.5409 -0.1208
 6744TIP3   OH241646   5.415   1.311   5.555  0.3717 -0.2742 -0.2227
 6744TIP3    H141647   5.377   1.238   5.603  0.1080 -0.8391 -1.2586
 6744TIP3    H241648   5.484   1.345   5.612  0.0424 -0.8984  0.5547
 6745TIP3   OH241649   4.226   5.097   6.449 -0.0204 -0.1920 -0.1556
 6745TIP3    H141650   4.307   5.147   6.442 -0.8615  1.2702  0.1237
 6745TIP3    H241651   4.205   5.098   6.543 -1.1489  0.8030 -0.3851
 6746TIP3   OH241652   2.561   4.124  16.075 -0.5193  0.1218  0.4751
 6746TIP3    H141653   2.588   4.184  16.005 -1.3048 -0.3106 -0.2120
 6746TIP3    H241654   2.595   4.165  16.155  0.6722  0.4626 -0.1752
 6747TIP3   OH241655   1.837   3.376  10.305 -0.0688 -0.0818 -0.0049
 6747TIP3    H141656   1.746   3.386  10.334 -0.1761  0.2306 -0.4475
 6747TIP3    H241657   1.851   3.448  10.244 -0.1697 -1.3283 -1.5499
 6748TIP3   OH241658   5.411   5.143  15.190  0.3837  0.2501 -0.4455
 6748TIP3    H141659   5.460   5.225  15.201  0.6833 -0.1181  1.1866
 6748TIP3    H241660   5.476   5.075  15.202 -0.2235 -0.2357  0.1803
 6749TIP3   OH241661   4.015   4.130   0.543 -0.2504 -0.0579  0.2887
 6749TIP3    H141662   3.975   4.073   0.608 -0.6758 -1.1854 -0.9156
 6749TIP3    H241663   4.107   4.134   0.567 -0.1304 -1.5967  0.1799
 6750TIP3   OH241664   3.640   4.359   5.208 -0.2450 -0.4414 -0.0275
 6750TIP3    H141665   3.614   4.296   5.140  1.5062  0.2544 -1.4129
 6750TIP3    H241666   3.727   4.388   5.182 -0.6137  1.8762  1.0659
 6751TIP3   OH241667   4.601   1.127   5.907  0.0167 -0.7349 -0.7961
 6751TIP3    H141668   4.633   1.214   5.882  0.5810 -0.5351  0.5683
 6751TIP3    H241669   4.635   1.068   5.839 -0.5642  0.1181 -1.8568
 6752TIP3   OH241670   3.680   4.014  16.018  0.7178 -0.7085  0.4152
 6752TIP3    H141671   3.635   4.076  16.076 -2.9670 -1.6096 -1.1921
 6752TIP3    H241672   3.759   4.060  15.990 -1.1534  2.7802  0.3280
 6753TIP3   OH241673   1.536   5.020  15.869 -0.5641  0.1937  0.0826
 6753TIP3    H141674   1.587   4.943  15.845  2.1083  1.4816  1.2449
 6753TIP3    H241675   1.487   4.993  15.947  1.5239  0.0279  1.4046
 6754TIP3   OH241676   2.907   2.909  16.056  0.4148 -0.2854 -0.4306
 6754TIP3    H141677   2.929   2.971  16.126  0.6555 -1.6098  0.7238
 6754TIP3    H241678   2.859   2.839  16.100  1.4017 -1.6342 -1.3973
 6755TIP3   OH241679   5.237   1.278   5.327  0.2164  0.5002  0.1837
 6755TIP3    H141680   5.211   1.370   5.318 -0.6440  0.2265 -0.2086
 6755TIP3    H241681   5.282   1.274   5.411 -0.2783  1.1591  0.4865
 6756TIP3   OH241682   4.660   2.071  11.706 -0.1506  0.5068  0.1399
 6756TIP3    H141683   4.648   1.979  11.729  0.1253  0.0310 -1.5405
 6756TIP3    H241684   4.688   2.070  11.615 -2.1609  2.3633 -0.5848
 6757TIP3   OH241685   6.623   6.576  12.993 -0.4004 -0.6326  0.4460
 6757TIP3    H141686   6.683   6.627  13.047 -0.7637 -0.4639  0.6957
 6757TIP3    H241687   6.543   6.570  13.046 -0.2187 -1.8220  0.5944
 6758TIP3   OH241688   3.316   0.719   1.659  0.2957  0.7091  0.3614
 6758TIP3    H141689   3.385   0.765   1.707 -0.8672  2.7156  0.2190
 6758TIP3    H241690   3.267   0.789   1.615  0.3369 -0.9020 -2.4857
 6759TIP3   OH241691   2.445   0.310  14.940  0.4192 -0.0230 -0.6426
 6759TIP3    H141692   2.471   0.239  14.882  3.1652  0.2658  0.1269
 6759TIP3    H241693   2.493   0.386  14.908 -2.4019  1.6121 -1.4192
 6760TIP3   OH241694   4.892   2.047  16.547  0.0244  0.5131  0.4490
 6760TIP3    H141695   4.953   2.033  16.474  0.3357 -2.5493  1.1741
 6760TIP3    H241696   4.943   2.026  16.625 -1.0153  1.2861  1.3679
 6761TIP3   OH241697   2.424   3.020   4.951 -0.3130  0.1697  0.0647
 6761TIP3    H141698   2.514   2.994   4.971 -0.4807  2.0022  4.4023
 6761TIP3    H241699   2.371   2.951   4.991 -0.7829  0.5369  0.0742
 6762TIP3   OH241700   0.033   5.085   5.216  0.2757 -0.9484 -0.2922
 6762TIP3    H141701   0.055   5.043   5.299 -0.9448 -0.0116  0.5435
 6762TIP3    H241702   0.012   5.175   5.240 -2.0740 -1.1708 -1.3232
 6763TIP3   OH241703   1.210   4.283  15.717 -0.0459  0.0849 -0.0914
 6763TIP3    H141704   1.168   4.241  15.792  2.8586 -0.9976  1.0727
 6763TIP3    H241705   1.197   4.223  15.644 -1.5863  0.4226 -0.1293
 6764TIP3   OH241706   5.651   5.695  14.164  0.0001 -0.2306 -0.3731
 6764TIP3    H141707   5.689   5.769  14.213  1.3243 -0.4664 -0.9864
 6764TIP3    H241708   5.589   5.735  14.104 -2.4539  0.0043  2.0847
 6765TIP3   OH241709   2.000   2.849   4.702 -0.4696  0.4327  0.0034
 6765TIP3    H141710   1.954   2.841   4.619 -0.8332 -1.4369  0.3314
 6765TIP3    H241711   1.932   2.840   4.769  0.2262 -2.3408  0.4964
 6766TIP3   OH241712   5.704   1.246   4.083 -0.1525 -0.0378  0.2636
 6766TIP3    H141713   5.685   1.259   3.990  0.5259 -0.6432  0.0378
 6766TIP3    H241714   5.746   1.328   4.110  1.0010 -0.4096 -0.3300
 6767TIP3   OH241715   0.175   0.821  16.271  0.0723  0.3233 -0.3219
 6767TIP3    H141716   0.178   0.904  16.223 -0.4704  0.6815  0.2429
 6767TIP3    H241717   0.263   0.785  16.261 -0.2788 -0.0705 -2.3420
 6768TIP3   OH241718   0.576   6.359   4.801  0.2568  0.1448  0.0566
 6768TIP3    H141719   0.480   6.364   4.805  0.2669  0.8699 -0.3023
 6768TIP3    H241720   0.596   6.267   4.816 -0.3686  0.3226  2.4263
 6769TIP3   OH241721   2.280   5.564  13.450  0.3920  0.2755 -0.0818
 6769TIP3    H141722   2.271   5.565  13.355  1.6855  2.8330 -0.2681
 6769TIP3    H241723   2.218   5.631  13.480  1.0496  0.5319  0.7312
 6770TIP3   OH241724   6.513   2.625   2.094  0.1874  0.0709 -0.3778
 6770TIP3    H141725   6.598   2.663   2.119 -0.4216  1.0923  0.2200
 6770TIP3    H241726   6.532   2.575   2.015  1.2386  0.7919 -0.6052
 6771TIP3   OH241727   1.875   2.034  12.591  0.3991 -0.0038  0.1792
 6771TIP3    H141728   1.799   2.063  12.641 -0.4582  0.8840 -1.5364
 6771TIP3    H241729   1.921   1.975  12.650 -1.9422 -1.0840  1.0645
 6772TIP3   OH241730   3.236   2.441  15.954  0.0902  0.2639 -0.0739
 6772TIP3    H141731   3.202   2.508  16.013  0.3580 -0.3867  0.8364
 6772TIP3    H241732   3.220   2.477  15.866 -0.9223  0.9536  0.3633
 6773TIP3   OH241733   1.192   5.103  15.749  0.4365 -0.1428  0.1893
 6773TIP3    H141734   1.233   5.160  15.814 -0.2895 -0.1671  0.6727
 6773TIP3    H241735   1.226   5.016  15.769 -0.0362 -0.2050  0.7552
 6774TIP3   OH241736   1.007   4.910   3.964 -0.3675  0.9270 -0.1606
 6774TIP3    H141737   1.003   4.818   3.988 -0.4110  1.0836  0.4676
 6774TIP3    H241738   1.021   4.955   4.047  1.7540  1.3427 -0.7015
 6775TIP3   OH241739   4.100   1.752  12.291  0.1212 -0.2197  0.2540
 6775TIP3    H141740   4.133   1.669  12.257  0.0592 -0.8808  1.7471
 6775TIP3    H241741   4.015   1.731  12.328 -0.1472  0.6427  0.1547
 6776TIP3   OH241742   2.390   0.949   4.821 -0.1854  0.0824  0.1288
 6776TIP3    H141743   2.372   0.879   4.884  0.9188  0.4153  0.8460
 6776TIP3    H241744   2.321   0.940   4.755 -0.1375 -1.6130  0.2584
 6777TIP3   OH241745   5.187   0.276  16.142  0.1875 -0.5541 -0.3062
 6777TIP3    H141746   5.225   0.302  16.057 -1.1321 -0.6085 -0.9351
 6777TIP3    H241747   5.132   0.349  16.167  1.8987  0.2351  1.4166
 6778TIP3   OH241748   2.164   1.628  15.240 -0.1217  0.4826 -0.1275
 6778TIP3    H141749   2.130   1.679  15.312  1.1595 -0.6728  1.3687
 6778TIP3    H241750   2.259   1.637  15.246  0.0875 -1.0516 -0.5540
 6779TIP3   OH241751   2.215   1.774   0.073 -0.2963  0.7258 -0.3074
 6779TIP3    H141752   2.188   1.841   0.010 -0.6980  0.8320 -0.0322
 6779TIP3    H241753   2.150   1.780   0.143  0.7612  1.3567  0.6476
 6780TIP3   OH241754   2.885   3.337  15.202  0.2593  0.1098  0.1243
 6780TIP3    H141755   2.886   3.327  15.107 -0.5061 -0.3012  0.1461
 6780TIP3    H241756   2.807   3.390  15.220 -2.7688 -4.0734  0.8244
 6781TIP3   OH241757   6.421   1.871   5.848 -0.2554  0.6256  0.5553
 6781TIP3    H141758   6.356   1.890   5.916 -0.6380 -1.3713  0.7861
 6781TIP3    H241759   6.504   1.863   5.895 -0.7519 -2.2930  1.1078
 6782TIP3   OH241760   6.786   5.069   3.033  0.2511  0.2104 -0.2838
 6782TIP3    H141761   6.824   5.066   3.121  1.6002  0.3266 -0.8414
 6782TIP3    H241762   6.757   5.160   3.023  0.0363  0.1811  0.0558
 6783TIP3   OH241763   6.382   4.936   2.883 -0.2180  0.5280  0.0054
 6783TIP3    H141764   6.411   4.859   2.932 -0.0725  1.0280  0.7129
 6783TIP3    H241765   6.287   4.928   2.879 -0.1898  0.2212 -0.0788
 6784TIP3   OH241766   4.108   5.196  10.784 -0.5628 -0.3394 -0.1382
 6784TIP3    H141767   4.202   5.199  10.801 -0.8340  0.0534  1.4301
 6784TIP3    H241768   4.079   5.113  10.821 -1.2625  0.7960  2.0720
 6785TIP3   OH241769   0.054   3.010  14.792 -0.0016 -0.2997 -0.5812
 6785TIP3    H141770  -0.026   2.987  14.746 -0.3655  1.2071 -0.7450
 6785TIP3    H241771   0.125   2.979  14.735 -0.4640 -0.0781 -1.2853
 6786TIP3   OH241772   2.089   6.591   1.296  0.2903 -0.8746  0.0205
 6786TIP3    H141773   2.003   6.598   1.338  0.7999  0.2587  0.9568
 6786TIP3    H241774   2.072   6.610   1.204 -0.5140 -1.0160  0.1283
 6787TIP3   OH241775   1.929   2.721  16.401  0.4371 -0.0599 -0.2603
 6787TIP3    H141776   1.891   2.682  16.322 -0.9118 -1.9237  1.2351
 6787TIP3    H241777   1.960   2.647  16.452  0.6907  1.0528  1.2708
 6788TIP3   OH241778   6.623   3.006  12.330 -0.1579 -0.3327 -0.0132
 6788TIP3    H141779   6.626   2.948  12.406 -2.3045 -0.5093 -0.0183
 6788TIP3    H241780   6.593   2.950  12.258 -0.3237  0.3355 -0.4710
 6789TIP3   OH241781   2.582   6.058   3.772 -0.0260  0.0629 -0.2349
 6789TIP3    H141782   2.574   6.152   3.788 -0.7522 -0.0308  0.0143
 6789TIP3    H241783   2.573   6.018   3.858 -0.1682 -0.2556 -0.3949
 6790TIP3   OH241784   2.126   1.670   2.335 -0.2711 -0.1255  0.5429
 6790TIP3    H141785   2.150   1.709   2.419  1.7435  0.5435 -0.2747
 6790TIP3    H241786   2.210   1.655   2.291 -1.0484 -3.4145 -0.0950
 6791TIP3   OH241787   5.046   2.015  15.906 -0.1550  0.1556 -0.2308
 6791TIP3    H141788   5.051   2.083  15.839  0.2046 -0.2810 -0.6627
 6791TIP3    H241789   5.014   1.937  15.859  1.3122 -0.5053 -0.1890
 6792TIP3   OH241790   0.415   2.850  13.639 -0.6858 -0.3250 -0.4192
 6792TIP3    H141791   0.448   2.864  13.727  1.0322 -0.9714 -0.9215
 6792TIP3    H241792   0.396   2.938  13.606  2.3458  0.3184 -0.7344
 6793TIP3   OH241793   3.628   3.139  15.075  0.3339  0.5343 -0.1082
 6793TIP3    H141794   3.684   3.188  15.135  0.0248 -0.0375  0.6600
 6793TIP3    H241795   3.611   3.056  15.120 -0.7896  0.5350 -0.5059
 6794TIP3   OH241796   4.349   4.223   2.256 -0.2253  0.4272 -0.8414
 6794TIP3    H141797   4.418   4.181   2.307 -0.9448  2.0248  1.6408
 6794TIP3    H241798   4.287   4.153   2.236  0.1309 -0.2883  0.4556
 6795TIP3   OH241799   5.181   1.332  15.163  0.0726  0.2285  0.1751
 6795TIP3    H141800   5.262   1.368  15.199  1.0480 -1.9187  0.2837
 6795TIP3    H241801   5.195   1.331  15.068 -0.8650  2.0959 -0.0407
 6796TIP3   OH241802   4.987   4.419   1.691 -0.4737 -0.1355  0.4857
 6796TIP3    H141803   5.019   4.504   1.722 -1.2890  0.1914  0.4567
 6796TIP3    H241804   4.928   4.389   1.760 -0.6384 -0.4094  0.2276
 6797TIP3   OH241805   1.895   6.345   0.474 -0.0969  0.3896 -0.0151
 6797TIP3    H141806   1.842   6.415   0.436 -0.7176 -0.5450 -0.8927
 6797TIP3    H241807   1.887   6.272   0.413 -0.3752 -0.8513  1.4475
 6798TIP3   OH241808   4.150   2.042  13.449  0.2365 -0.4993 -0.2604
 6798TIP3    H141809   4.121   2.131  13.433 -0.4224 -0.5583  0.5417
 6798TIP3    H241810   4.102   2.014  13.527 -0.6478 -2.0681 -1.3088
 6799TIP3   OH241811   2.693   3.623  15.810  0.4074 -0.5361 -0.1160
 6799TIP3    H141812   2.643   3.543  15.826  0.1515 -0.8139 -2.0131
 6799TIP3    H241813   2.744   3.636  15.889 -0.3674 -1.9706  0.6601
 6800TIP3   OH241814   2.336   4.624   6.093 -0.1001 -0.4104 -0.4153
 6800TIP3    H141815   2.371   4.541   6.126 -0.5174 -0.2244  0.5383
 6800TIP3    H241816   2.249   4.602   6.061 -1.3234  0.0683  2.2641
 6801TIP3   OH241817   1.071   3.143   3.341 -0.3819 -0.1603  0.3449
 6801TIP3    H141818   1.069   3.176   3.251 -1.3456  0.3211  0.5298
 6801TIP3    H241819   0.989   3.175   3.379 -0.4752 -1.2596  1.0740
 6802TIP3   OH241820   0.505   1.952   2.671 -0.7946 -0.2200  0.8755
 6802TIP3    H141821   0.523   2.040   2.705 -1.4966  0.5876 -0.7584
 6802TIP3    H241822   0.554   1.894   2.729  0.5715  1.3287  1.3467
 6803TIP3   OH241823   1.795   0.346  13.025  0.0616  0.0504 -0.2949
 6803TIP3    H141824   1.728   0.400  12.982 -0.5073  0.2406  0.7877
 6803TIP3    H241825   1.755   0.260  13.032 -0.3184  0.3039  0.8663
 6804TIP3   OH241826   5.793   0.191  16.376  0.4415 -0.7907  0.1405
 6804TIP3    H141827   5.810   0.108  16.332  1.9844 -0.8513  0.7940
 6804TIP3    H241828   5.740   0.241  16.314  0.6144 -1.7537 -0.8048
 6805TIP3   OH241829   0.123   4.595  15.709 -0.0176 -0.7171  0.0306
 6805TIP3    H141830   0.155   4.681  15.737  0.7798 -0.8328 -0.4973
 6805TIP3    H241831   0.172   4.575  15.629  0.1632 -1.8791  0.4095
 6806TIP3   OH241832   5.683   2.664   0.792  0.1817  0.1587  0.1508
 6806TIP3    H141833   5.642   2.668   0.706 -1.2283  1.4711  0.8199
 6806TIP3    H241834   5.611   2.681   0.853  1.1544 -0.7092  1.5838
 6807TIP3   OH241835   1.885   5.380   5.844 -0.8449  0.4096  0.3160
 6807TIP3    H141836   1.897   5.290   5.877  1.2753  0.5083  0.0044
 6807TIP3    H241837   1.927   5.379   5.757  1.5908  2.2626  1.3419
 6808TIP3   OH241838   3.265   5.567   1.444 -0.3770  0.3245  0.3657
 6808TIP3    H141839   3.222   5.486   1.467  1.4959 -0.7223  0.4101
 6808TIP3    H241840   3.206   5.636   1.474 -0.8797 -0.9898  2.6082
 6809TIP3   OH241841   6.133   0.845   4.547 -0.3290  0.1199 -0.1680
 6809TIP3    H141842   6.043   0.879   4.541 -0.1530  0.3738 -2.6955
 6809TIP3    H241843   6.122   0.753   4.571 -1.1971  0.4107  0.5861
 6810TIP3   OH241844   5.963   1.616  11.471 -0.6082 -0.5607 -0.2945
 6810TIP3    H141845   5.868   1.621  11.459 -0.5851 -1.2578 -0.8369
 6810TIP3    H241846   5.987   1.530  11.435  0.1181 -0.7293  0.5555
 6811TIP3   OH241847   6.512   0.164   6.013 -0.3558 -0.5086 -0.1498
 6811TIP3    H141848   6.522   0.244   6.065 -2.6632  0.9323 -1.7181
 6811TIP3    H241849   6.439   0.117   6.054 -0.1199 -0.9591 -0.2413
 6812TIP3   OH241850   3.713   6.015   4.710  0.5156 -0.0495  0.0142
 6812TIP3    H141851   3.715   6.053   4.798 -0.1396  0.0935 -0.0286
 6812TIP3    H241852   3.765   6.076   4.657 -0.3682  0.7101 -0.0127
 6813TIP3   OH241853   6.633   5.089  10.388  0.2646  0.1421  0.6122
 6813TIP3    H141854   6.681   5.172  10.380 -0.4366  0.5655  0.6655
 6813TIP3    H241855   6.681   5.028  10.332 -0.7946  1.3213 -1.7318
 6814TIP3   OH241856   1.996   2.264   5.224 -0.3082 -0.1216  0.7136
 6814TIP3    H141857   1.952   2.267   5.139  1.0742 -1.9742 -0.1413
 6814TIP3    H241858   2.079   2.310   5.209  0.4039 -1.3605  0.7139
 6815TIP3   OH241859   0.279   0.143   2.128 -0.2852 -0.2560 -0.4867
 6815TIP3    H141860   0.293   0.204   2.056  1.8621  0.7023  0.6434
 6815TIP3    H241861   0.194   0.168   2.165  0.4949  2.0635 -0.1046
 6816TIP3   OH241862   2.842   3.884  13.349  0.0344  0.0779  0.0557
 6816TIP3    H141863   2.856   3.968  13.305  1.5171 -1.2553 -2.2452
 6816TIP3    H241864   2.914   3.877  13.412  0.5210  0.1302 -0.4809
 6817TIP3   OH241865   6.054   5.220   2.225  0.6965 -0.5313 -0.3712
 6817TIP3    H141866   5.960   5.241   2.223  0.5575 -1.0414 -2.5323
 6817TIP3    H241867   6.061   5.149   2.288 -0.4755 -0.8148 -0.5254
 6818TIP3   OH241868   3.454   5.184  11.184 -0.0659  0.3525 -0.4393
 6818TIP3    H141869   3.478   5.133  11.107  3.8359  0.7470  0.3226
 6818TIP3    H241870   3.403   5.123  11.238  0.4821 -1.1852 -1.5903
 6819TIP3   OH241871   4.742   6.339  16.002  0.3202  0.2883 -0.3894
 6819TIP3    H141872   4.750   6.434  16.009 -1.0906  0.4293 -0.4052
 6819TIP3    H241873   4.652   6.325  15.973 -0.3004 -1.1274  1.9773
 6820TIP3   OH241874   2.722   2.811   1.728 -0.2757 -0.0580  0.2480
 6820TIP3    H141875   2.694   2.893   1.769  0.5331 -0.1173  0.9502
 6820TIP3    H241876   2.739   2.752   1.802 -0.4163 -0.7130 -0.2368
 6821TIP3   OH241877   2.999   6.456  11.900 -0.3517  0.3526 -0.1991
 6821TIP3    H141878   3.039   6.523  11.844  0.0035  1.3115  1.1319
 6821TIP3    H241879   3.073   6.406  11.934 -0.6304 -0.8459 -1.3181
 6822TIP3   OH241880   1.243   5.312  15.450 -0.0361  0.2586 -0.1716
 6822TIP3    H141881   1.160   5.265  15.447 -0.8203  1.5866 -0.0447
 6822TIP3    H241882   1.270   5.307  15.541 -0.1340  0.0836 -0.1520
 6823TIP3   OH241883   2.837   0.824  15.296 -0.1328 -0.3205 -0.2446
 6823TIP3    H141884   2.903   0.852  15.232  3.6755 -1.4479  2.7877
 6823TIP3    H241885   2.833   0.728  15.287 -0.8304 -0.3368  0.1148
 6824TIP3   OH241886   6.572   0.006   3.276 -0.0042  0.1670 -0.1842
 6824TIP3    H141887   6.515  -0.049   3.221  1.4567 -0.9876 -0.6161
 6824TIP3    H241888   6.658  -0.036   3.271  0.4899  0.7926  1.9364
 6825TIP3   OH241889   1.961   6.261   2.107  0.2565 -0.7399 -0.1667
 6825TIP3    H141890   2.011   6.306   2.174  0.2361 -0.9238 -0.0285
 6825TIP3    H241891   2.023   6.199   2.068  0.9601  0.9222 -1.8802
 6826TIP3   OH241892   2.153   6.402  16.327 -0.1753 -0.7624 -0.4893
 6826TIP3    H141893   2.224   6.370  16.382 -0.7460 -1.4129 -0.1225
 6826TIP3    H241894   2.192   6.476  16.280  0.6052 -0.8130  0.0464
 6827TIP3   OH241895   2.746   5.973  11.918 -0.3359  0.0997  0.0732
 6827TIP3    H141896   2.685   6.015  11.978 -1.4039  1.9887 -2.1452
 6827TIP3    H241897   2.832   5.988  11.956 -1.0665 -0.6192  2.1377
 6828TIP3   OH241898   0.309   2.495   0.368  0.0323 -0.3995  0.2700
 6828TIP3    H141899   0.311   2.400   0.378 -1.9771 -0.6019 -0.6893
 6828TIP3    H241900   0.216   2.516   0.362  0.4300  1.6711  0.6502
 6829TIP3   OH241901   4.645   6.655  14.373  0.0759  0.3358  0.4409
 6829TIP3    H141902   4.562   6.665  14.328 -0.4325  0.4917  1.3771
 6829TIP3    H241903   4.707   6.629  14.305 -0.2988  2.1242 -0.6323
 6830TIP3   OH241904   5.856   6.418  16.123  0.7208  0.6106  0.0931
 6830TIP3    H141905   5.930   6.357  16.130 -0.1154 -0.5407 -0.6598
 6830TIP3    H241906   5.859   6.469  16.203  1.7095 -0.1400  0.5597
 6831TIP3   OH241907   3.088   3.031   3.576 -0.7078  0.7421  0.3299
 6831TIP3    H141908   3.143   2.994   3.645  0.0784 -2.8462 -1.9734
 6831TIP3    H241909   3.149   3.080   3.521  0.5455 -3.2131 -2.2109
 6832TIP3   OH241910   4.653   1.909   5.620  0.3790  0.0665  0.3723
 6832TIP3    H141911   4.558   1.918   5.622  0.2421 -0.1283 -2.1872
 6832TIP3    H241912   4.686   1.990   5.659 -0.8401  1.0384 -0.5405
 6833TIP3   OH241913   0.521   6.248   0.545  0.7604  0.8918  0.2273
 6833TIP3    H141914   0.599   6.204   0.510 -0.3538 -0.4884 -0.6029
 6833TIP3    H241915   0.461   6.177   0.567 -0.4563  1.9473  0.4282
 6834TIP3   OH241916   1.654   5.160  10.949 -0.1417  0.4514 -0.0175
 6834TIP3    H141917   1.600   5.089  10.916  0.9333 -0.1876 -0.4549
 6834TIP3    H241918   1.744   5.126  10.946  0.5190  2.1682 -1.2034
 6835TIP3   OH241919   3.446   4.070  14.028 -0.4698  0.0203  0.7058
 6835TIP3    H141920   3.519   4.131  14.039 -1.7684  2.3025 -2.1355
 6835TIP3    H241921   3.370   4.115  14.065 -0.8148 -1.7498  2.3779
 6836TIP3   OH241922   3.640   4.120  14.569  0.5516 -0.0314  0.4463
 6836TIP3    H141923   3.725   4.095  14.605 -0.1354 -2.5385  0.4909
 6836TIP3    H241924   3.600   4.037  14.543 -1.6317  1.1528 -0.1656
 6837TIP3   OH241925   6.267   3.149  14.360  0.1570  1.3163  0.2852
 6837TIP3    H141926   6.196   3.193  14.314  0.4536  1.3162 -0.1744
 6837TIP3    H241927   6.267   3.060  14.325  0.3263  1.2914  0.3453
 6838TIP3   OH241928   2.827   4.030   0.126  0.2688  0.4458 -0.2336
 6838TIP3    H141929   2.734   4.014   0.142  0.5132 -0.8161  0.0890
 6838TIP3    H241930   2.840   4.008   0.033  0.9677 -3.6570  0.6063
 6839TIP3   OH241931   1.012   5.686  12.375 -0.0585 -0.1288 -0.1970
 6839TIP3    H141932   0.952   5.614  12.355 -1.7736  1.9268 -3.2781
 6839TIP3    H241933   1.048   5.712  12.290 -0.4056  3.3250  0.5504
 6840TIP3   OH241934   0.238   1.338   2.211  0.4021 -0.0376  0.2675
 6840TIP3    H141935   0.184   1.414   2.190 -0.8136 -0.3752  1.9723
 6840TIP3    H241936   0.322   1.375   2.238  0.0341  0.6581  0.4737
 6841TIP3   OH241937   2.201   3.976  15.730  0.5871  0.0772 -0.6099
 6841TIP3    H141938   2.179   3.996  15.639 -0.4846  0.5032 -0.2783
 6841TIP3    H241939   2.217   3.882  15.731  2.0836  0.2947 -1.5098
 6842TIP3   OH241940   2.719   1.445  10.819 -0.2965  0.3875 -0.2261
 6842TIP3    H141941   2.734   1.539  10.816  0.1485  0.3978  1.3274
 6842TIP3    H241942   2.669   1.425  10.740  0.9884  1.6606 -1.4068
 6843TIP3   OH241943   4.259   2.075  10.799 -0.5496 -0.3877  0.3372
 6843TIP3    H141944   4.276   2.014  10.728 -1.9651 -0.0785 -0.2955
 6843TIP3    H241945   4.330   2.140  10.792  0.1301 -1.1360  0.1170
 6844TIP3   OH241946   5.273   4.329  16.702  0.2564  0.6457  0.6451
 6844TIP3    H141947   5.204   4.294  16.758 -0.8846  1.1182 -0.4098
 6844TIP3    H241948   5.328   4.380  16.761  0.0381 -0.2081  1.6112
 6845TIP3   OH241949   5.602   4.469  13.734  0.2989 -0.6930 -0.3329
 6845TIP3    H141950   5.611   4.564  13.742  1.3237 -0.8286  0.2341
 6845TIP3    H241951   5.508   4.454  13.749  0.1627  0.2054 -0.1747
 6846TIP3   OH241952   1.026   3.443  16.299  0.1466  0.0337 -0.2835
 6846TIP3    H141953   1.006   3.498  16.375 -2.3256 -0.7347 -0.2923
 6846TIP3    H241954   0.944   3.440  16.250  1.1047 -1.2055 -1.8806
 6847TIP3   OH241955   2.172   5.045  14.718  0.0836 -0.1497  0.4095
 6847TIP3    H141956   2.183   5.140  14.722 -3.5750  0.3791  3.4205
 6847TIP3    H241957   2.111   5.030  14.646 -1.0776  0.0935  1.3190
 6848TIP3   OH241958   1.550   1.696  16.254 -0.2086 -0.5092 -0.2164
 6848TIP3    H141959   1.511   1.613  16.229 -1.6613 -0.0400  0.3871
 6848TIP3    H241960   1.621   1.672  16.314  0.3279 -1.3740 -1.1748
 6849TIP3   OH241961   5.012   6.113  11.233  0.1409 -0.1735 -0.0800
 6849TIP3    H141962   4.980   6.108  11.323 -0.3303  1.3182 -0.1327
 6849TIP3    H241963   5.054   6.199  11.228  0.7253 -0.5040 -1.1080
 6850TIP3   OH241964   2.178   3.158  11.379 -0.4595  0.7701  0.1565
 6850TIP3    H141965   2.271   3.160  11.400 -0.6151  1.2818  0.8526
 6850TIP3    H241966   2.136   3.202  11.453 -1.1756  1.3036 -0.5487
 6851TIP3   OH241967   3.064   6.445  14.845  0.1228 -0.4840  0.4565
 6851TIP3    H141968   3.078   6.496  14.765 -0.3236 -1.2362 -0.1036
 6851TIP3    H241969   2.972   6.419  14.841 -0.0994  0.0446  1.5611
 6852TIP3   OH241970   4.867   3.714  11.405  0.2062 -0.0267  0.0482
 6852TIP3    H141971   4.800   3.740  11.468  0.1083 -0.3896  0.1000
 6852TIP3    H241972   4.949   3.712  11.456  0.3288  0.7939 -0.1051
 6853TIP3   OH241973   1.209   4.670   0.876 -0.1797  0.4267  0.4725
 6853TIP3    H141974   1.267   4.687   0.802  0.1430 -0.6448  0.4695
 6853TIP3    H241975   1.156   4.750   0.883  0.2922  0.8372 -0.4385
 6854TIP3   OH241976   2.328   0.279   1.477  0.6482 -0.5998 -0.2398
 6854TIP3    H141977   2.405   0.310   1.524 -1.4603  2.5035  1.5306
 6854TIP3    H241978   2.309   0.347   1.413  1.2483 -2.9699 -3.1663
 6855TIP3   OH241979   2.425   2.904  12.812  0.7227 -0.2516 -0.1683
 6855TIP3    H141980   2.449   2.840  12.878  0.4178  0.7816  0.9930
 6855TIP3    H241981   2.393   2.979  12.863 -1.0844 -0.0382 -1.5170
 6856TIP3   OH241982   0.128   5.234   0.241  0.6049  0.0321 -0.0860
 6856TIP3    H141983   0.197   5.202   0.183 -0.7177 -0.6963 -1.3418
 6856TIP3    H241984   0.103   5.319   0.205  1.4965  0.7699  0.9684
 6857TIP3   OH241985   3.931   0.137   2.576 -0.0777 -0.5316 -0.0049
 6857TIP3    H141986   4.004   0.092   2.619 -0.7002 -0.5266  1.0843
 6857TIP3    H241987   3.853   0.087   2.601 -0.7007  0.7065  0.6754
 6858TIP3   OH241988   2.104   3.599  12.118  0.2957  0.3733 -0.0010
 6858TIP3    H141989   2.020   3.643  12.131  0.5742  0.8543  0.1840
 6858TIP3    H241990   2.117   3.602  12.023 -1.2210 -2.1899 -0.3639
 6859TIP3   OH241991   1.706   0.312   3.866 -0.6093  0.1608 -0.1806
 6859TIP3    H141992   1.678   0.392   3.822 -0.8249  2.0080  2.9904
 6859TIP3    H241993   1.799   0.326   3.885 -0.4575 -0.6928 -0.2357
 6860TIP3   OH241994   4.849   3.662  13.109  0.1769  0.3049 -0.1478
 6860TIP3    H141995   4.917   3.727  13.123  0.4581  0.0457 -0.2966
 6860TIP3    H241996   4.811   3.647  13.196  1.2928 -0.6189  0.2158
 6861TIP3   OH241997   1.675   4.168  13.640  0.3875  0.6828  0.0824
 6861TIP3    H141998   1.739   4.117  13.590 -0.3261  0.4442 -0.5988
 6861TIP3    H241999   1.662   4.119  13.721  1.7561  1.2085  0.6650
 6862TIP3   OH242000   2.399   2.890   0.421  0.2870 -0.2883  0.9785
 6862TIP3    H142001   2.326   2.869   0.478  0.9046 -0.6265  1.6659
 6862TIP3    H242002   2.427   2.978   0.448  0.4942 -0.3921  1.1009
 6863TIP3   OH242003   5.099   2.283   0.738  0.6255 -0.3848 -0.0023
 6863TIP3    H142004   5.033   2.240   0.683 -0.0867  0.0904  0.4630
 6863TIP3    H242005   5.125   2.360   0.688 -2.6714  2.1126  1.7517
 6864TIP3   OH242006   5.096   0.740   2.043  0.0141 -0.5932 -0.5838
 6864TIP3    H142007   5.185   0.705   2.032  0.5197 -0.0221  1.3103
 6864TIP3    H242008   5.109   0.824   2.088 -1.4672 -0.2611 -0.7421
 6865TIP3   OH242009   0.702   1.681  13.012  0.4162  0.3790 -0.1552
 6865TIP3    H142010   0.611   1.651  13.018  0.5634 -0.6514 -2.1967
 6865TIP3    H242011   0.744   1.646  13.090 -0.9114  0.8547  0.8105
 6866TIP3   OH242012   2.942   1.876  15.809 -0.2669 -0.8780 -0.0758
 6866TIP3    H142013   2.910   1.849  15.895  0.4119 -0.3665  0.3462
 6866TIP3    H242014   3.019   1.929  15.827 -1.4152  1.2068 -0.8628
 6867TIP3   OH242015   1.681   2.804  10.784  0.5474 -0.1034 -0.0602
 6867TIP3    H142016   1.626   2.770  10.854  1.2881  1.1866  1.2172
 6867TIP3    H242017   1.622   2.818  10.710 -0.1662 -1.9335  0.1211
 6868TIP3   OH242018   0.320   6.124   2.289 -0.2019  0.9831 -0.3174
 6868TIP3    H142019   0.415   6.133   2.286 -0.1768  0.6429 -0.5690
 6868TIP3    H242020   0.291   6.135   2.198 -0.3099  0.1028 -0.3963
 6869TIP3   OH242021   6.799   4.582   3.398 -0.0972  0.1026 -0.4650
 6869TIP3    H142022   6.717   4.623   3.368  0.3785  0.4428 -1.3194
 6869TIP3    H242023   6.795   4.590   3.494 -2.4049 -2.4598 -0.2177
 6870TIP3   OH242024   3.652   6.201  11.949  0.3648 -0.5164  0.3406
 6870TIP3    H142025   3.693   6.126  11.991  0.4556 -1.6096 -1.5888
 6870TIP3    H242026   3.666   6.187  11.856 -0.6786  1.2915 -0.1388
 6871TIP3   OH242027   1.123   1.732  14.450  0.0288  1.0081  0.0198
 6871TIP3    H142028   1.039   1.746  14.493 -0.3288  1.5650 -0.8201
 6871TIP3    H242029   1.100   1.695  14.365  0.3960  3.5337 -1.2985
 6872TIP3   OH242030   0.325   4.082  13.859 -0.3746 -0.4034 -0.6017
 6872TIP3    H142031   0.308   4.051  13.770 -0.0724 -1.1717 -0.3953
 6872TIP3    H242032   0.379   4.014  13.899  1.6144  1.0788 -0.6132
 6873TIP3   OH242033   3.284   0.982   2.627  0.4213 -0.1376  0.2479
 6873TIP3    H142034   3.348   1.008   2.561  0.8056  0.8996  0.9929
 6873TIP3    H242035   3.271   1.061   2.680 -1.2835 -0.3984  0.2791
 6874TIP3   OH242036   5.839   1.198   2.469 -0.3612 -0.1354  0.2374
 6874TIP3    H142037   5.835   1.186   2.374  0.9753  1.0634  0.0053
 6874TIP3    H242038   5.906   1.137   2.499  0.1708  0.4347  0.2231
 6875TIP3   OH242039   1.491   1.262  13.920 -0.6424  0.1196 -0.2185
 6875TIP3    H142040   1.585   1.244  13.924 -0.6369  0.3061  1.2516
 6875TIP3    H242041   1.479   1.338  13.977 -1.4417  1.3307 -1.9406
 6876TIP3   OH242042   1.627   6.537   3.651 -0.0487  0.5214 -0.3132
 6876TIP3    H142043   1.663   6.572   3.569 -0.2316  2.1826  0.2756
 6876TIP3    H242044   1.602   6.615   3.701 -1.3076 -0.4992  0.7101
 6877TIP3   OH242045   6.745   6.273   0.275  0.4468 -0.2116 -0.3777
 6877TIP3    H142046   6.796   6.325   0.214  0.2053  0.2926 -0.1604
 6877TIP3    H242047   6.809   6.220   0.323  0.6244 -0.6960 -1.1370
 6878TIP3   OH242048   4.081   0.420   4.931 -0.6714 -0.0183 -0.2817
 6878TIP3    H142049   4.003   0.467   4.961 -0.6084 -0.6422  0.9143
 6878TIP3    H242050   4.152   0.484   4.941 -0.9537  0.4096 -0.9660
 6879TIP3   OH242051   2.813   5.253   5.454 -0.6663 -0.9947 -0.1565
 6879TIP3    H142052   2.725   5.226   5.426 -0.9690 -0.4454  0.2384
 6879TIP3    H242053   2.870   5.227   5.382 -1.4432  0.5834 -1.4061
 6880TIP3   OH242054   6.572   6.422  14.575  0.1419 -0.6564  0.3207
 6880TIP3    H142055   6.506   6.443  14.641 -1.1917  0.6095 -1.3207
 6880TIP3    H242056   6.522   6.401  14.497  1.6587  0.4680 -1.0370
 6881TIP3   OH242057   4.902   5.714  16.174 -0.1541  0.1071  0.3721
 6881TIP3    H142058   4.968   5.740  16.109 -2.3299  1.1336 -1.5714
 6881TIP3    H242059   4.831   5.776  16.161 -1.0110 -0.1282  3.3137
 6882TIP3   OH242060   1.513   3.301   5.828 -0.3307  1.1176  0.9411
 6882TIP3    H142061   1.423   3.270   5.825  0.0160 -0.1795  2.6716
 6882TIP3    H242062   1.563   3.233   5.781 -0.1416  1.3633  0.7844
 6883TIP3   OH242063   0.160   0.348  13.868 -0.3085 -0.1081  0.3349
 6883TIP3    H142064   0.168   0.275  13.930 -0.2756 -0.3475  0.0520
 6883TIP3    H242065   0.203   0.421  13.912  0.4469 -0.4954  0.2481
 6884TIP3   OH242066   5.803   0.975  11.936  0.2955 -0.8216  0.3567
 6884TIP3    H142067   5.827   1.046  11.997 -0.6252 -0.0241 -0.1746
 6884TIP3    H242068   5.763   0.909  11.992 -0.5288 -0.1012  0.6501
 6885TIP3   OH242069   4.203   2.785   5.526  0.5103 -0.0533 -0.2689
 6885TIP3    H142070   4.172   2.872   5.548 -0.2199 -0.5433  0.7555
 6885TIP3    H242071   4.259   2.760   5.600  1.2890 -0.1769 -0.8895
 6886TIP3   OH242072   2.729   2.050   5.032 -0.2228  0.4035 -0.3488
 6886TIP3    H142073   2.700   1.977   4.976 -0.5137 -1.4603  2.0567
 6886TIP3    H242074   2.824   2.052   5.020 -0.1971 -0.4415 -0.3785
 6887TIP3   OH242075   3.186   0.248  16.245 -0.5457 -0.3389  0.1920
 6887TIP3    H142076   3.108   0.296  16.216 -0.8385 -0.1939  1.2032
 6887TIP3    H242077   3.244   0.249  16.168 -1.5848 -0.5790 -0.6203
 6888TIP3   OH242078   2.223   1.709  16.834  0.0475  0.0967  0.3173
 6888TIP3    H142079   2.294   1.742  16.779 -0.1323  0.0650  0.0644
 6888TIP3    H242080   2.201   1.783  16.891 -0.6225  0.5578 -0.5151
 6889TIP3   OH242081   5.082   6.662  13.708  0.2765 -0.0672 -0.2806
 6889TIP3    H142082   5.087   6.575  13.671  0.0361 -0.2988  0.2155
 6889TIP3    H242083   5.148   6.713  13.661  0.3981 -0.5101 -0.5881
 6890TIP3   OH242084   1.232   2.511  15.811  0.4451 -0.5824 -0.7592
 6890TIP3    H142085   1.150   2.488  15.766  0.3590 -1.7865 -0.0187
 6890TIP3    H242086   1.203   2.555  15.891  0.5977  1.4731 -1.7702
 6891TIP3   OH242087   2.570   5.997  16.861  0.5448  0.3779  0.3028
 6891TIP3    H142088   2.583   5.903  16.850 -2.5102 -0.3642  1.8778
 6891TIP3    H242089   2.490   6.016  16.813 -0.5179  1.5052  2.3553
 6892TIP3   OH242090   1.846   0.610  12.712 -0.2681  0.2051  0.0878
 6892TIP3    H142091   1.838   0.631  12.619  0.7467 -1.0163 -0.3146
 6892TIP3    H242092   1.765   0.564  12.733  0.2812 -1.2080 -0.7217
 6893TIP3   OH242093   4.391   4.404   3.235 -0.0755 -0.0770  0.1080
 6893TIP3    H142094   4.481   4.395   3.203  0.2603 -0.0529  0.9977
 6893TIP3    H242095   4.400   4.401   3.330 -0.9055  0.9890  0.2289
 6894TIP3   OH242096   1.975   6.173   3.034 -0.1711  0.2875 -0.8751
 6894TIP3    H142097   1.950   6.090   2.994 -2.9719  0.4546  0.3226
 6894TIP3    H242098   1.978   6.235   2.961 -0.4056 -0.3688 -1.4525
 6895TIP3   OH242099   4.651   4.611  11.645 -0.1222  0.3063  0.3101
 6895TIP3    H142100   4.666   4.557  11.567 -0.5787  0.4637  0.1071
 6895TIP3    H242101   4.563   4.647  11.632 -0.3122  0.1034  1.0440
 6896TIP3   OH242102   3.165   6.320  13.988  0.1210 -0.1029  0.1850
 6896TIP3    H142103   3.192   6.265  13.914 -0.4910  0.9096 -0.8259
 6896TIP3    H242104   3.071   6.330  13.977 -0.0693 -0.4151  1.4559
 6897TIP3   OH242105   5.778   0.913   5.845  0.7644  0.2909 -0.8626
 6897TIP3    H142106   5.713   0.927   5.776  0.5369  1.2369 -0.4741
 6897TIP3    H242107   5.765   0.822   5.873  0.2450  0.1886 -1.4330
 6898TIP3   OH242108   3.784   3.487  11.812  0.3138  0.6838  0.0059
 6898TIP3    H142109   3.706   3.533  11.843  0.0966  0.2015  0.1969
 6898TIP3    H242110   3.754   3.396  11.801  0.4520  0.7775 -1.3342
 6899TIP3   OH242111   0.630   0.023   5.317  0.1107  0.1830  0.1356
 6899TIP3    H142112   0.683   0.052   5.391  3.0873  2.5672 -2.6623
 6899TIP3    H242113   0.543   0.061   5.334  0.5876  0.3866  2.4717
 6900TIP3   OH242114   5.368   5.742   0.458  0.4213  0.3193  0.0056
 6900TIP3    H142115   5.344   5.825   0.417  1.0014  0.0117 -0.9962
 6900TIP3    H242116   5.402   5.766   0.544 -0.8967  0.9750  0.3645
 6901TIP3   OH242117   3.621   5.681  12.166  0.1851  0.5103  0.2797
 6901TIP3    H142118   3.543   5.627  12.181  0.0001  0.2486 -1.3505
 6901TIP3    H242119   3.670   5.677  12.248  1.0944 -3.6846 -0.2322
 6902TIP3   OH242120   4.790   2.075  11.450  0.4889  0.0319 -0.1733
 6902TIP3    H142121   4.874   2.028  11.457 -0.1722 -1.2500 -0.5773
 6902TIP3    H242122   4.753   2.045  11.367 -0.4913  0.3935  0.1254
 6903TIP3   OH242123   6.460   1.712  13.903 -0.3893 -0.7797 -0.2034
 6903TIP3    H142124   6.521   1.692  13.975 -0.1003  0.1309 -0.1862
 6903TIP3    H242125   6.406   1.633  13.895  0.4981 -1.4333  0.0808
 6904TIP3   OH242126   1.707   4.770  16.246  0.2536  0.0586 -0.4605
 6904TIP3    H142127   1.686   4.795  16.336 -0.7567  0.5513 -0.8181
 6904TIP3    H242128   1.642   4.702  16.224 -0.9599  1.5067 -1.5450
 6905TIP3   OH242129   4.391   0.627  11.883 -0.5130 -0.1330 -0.1857
 6905TIP3    H142130   4.436   0.593  11.960 -2.4830 -1.4208  0.4850
 6905TIP3    H242131   4.374   0.550  11.829 -1.4537  0.3678 -0.6346
 6906TIP3   OH242132   5.016   3.804  14.823  0.3859  0.5538 -0.2640
 6906TIP3    H142133   4.984   3.895  14.828 -0.4518  0.2738 -0.3546
 6906TIP3    H242134   5.100   3.806  14.868  0.6736  1.5063 -0.8097
 6907TIP3   OH242135   3.612   0.361  13.795 -0.5876  0.0948 -0.2838
 6907TIP3    H142136   3.661   0.403  13.866 -0.4099  0.3914 -0.5752
 6907TIP3    H242137   3.621   0.267  13.811 -1.5364  0.1583  0.7507
 6908TIP3   OH242138   4.199   6.381  14.531 -0.1385 -0.0416  0.5373
 6908TIP3    H142139   4.116   6.392  14.577  0.6071  1.5317  1.5956
 6908TIP3    H242140   4.263   6.364  14.601  0.6440  0.1178 -0.1288
 6909TIP3   OH242141   0.146   2.288   6.761  0.1818 -0.5468 -0.5660
 6909TIP3    H142142   0.183   2.202   6.781  2.6127  0.3650 -0.7785
 6909TIP3    H242143   0.193   2.316   6.682  0.5920  1.5947  0.3713
 6910TIP3   OH242144   6.127   0.294   6.344 -0.4759 -0.6290  0.0461
 6910TIP3    H142145   6.210   0.248   6.341 -0.2152 -0.2065  0.6077
 6910TIP3    H242146   6.061   0.225   6.338 -0.0929 -0.9359 -0.7629
 6911TIP3   OH242147   0.241   4.833  15.913 -0.1674 -1.4697 -0.0864
 6911TIP3    H142148   0.240   4.868  16.002 -0.6192 -3.1672  0.6226
 6911TIP3    H242149   0.214   4.906  15.858 -0.7643 -0.6348  1.2610
 6912TIP3   OH242150   2.526   1.325  10.602  0.5227  0.1651  0.3981
 6912TIP3    H142151   2.541   1.244  10.651  1.7412  0.1919  0.1160
 6912TIP3    H242152   2.433   1.324  10.582  0.3961 -0.8545  0.9463
 6913TIP3   OH242153   1.026   0.615  12.137 -0.3186  0.4864  0.5839
 6913TIP3    H142154   1.055   0.531  12.171  1.1959  0.8732  0.3375
 6913TIP3    H242155   1.056   0.615  12.046 -1.3939  0.7956  0.2226
 6914TIP3   OH242156   5.889   2.672  13.654 -0.0874 -0.3954 -0.3333
 6914TIP3    H142157   5.981   2.680  13.679 -0.3035 -0.6787  0.6138
 6914TIP3    H242158   5.876   2.739  13.588  0.5554  0.3101  0.2376
 6915TIP3   OH242159   2.573   4.106   5.690  0.3182  0.4008  0.0033
 6915TIP3    H142160   2.500   4.095   5.752  1.1360  0.0035  0.9233
 6915TIP3    H242161   2.594   4.017   5.663  1.4181  0.3606  0.9002
 6916TIP3   OH242162   6.323   1.632   6.127 -0.7481 -0.1147 -0.2212
 6916TIP3    H142163   6.278   1.566   6.075  0.5370 -1.3661  0.1890
 6916TIP3    H242164   6.261   1.654   6.197 -0.5715 -2.1820  0.6415
 6917TIP3   OH242165   5.054   4.304   4.489  0.2029 -0.0644 -0.4052
 6917TIP3    H142166   4.984   4.239   4.496 -0.1985  0.4269  0.2714
 6917TIP3    H242167   5.020   4.370   4.430  0.1900  0.0498 -0.2719
 6918TIP3   OH242168   5.091   5.742  15.961 -0.2076  0.1781 -0.3761
 6918TIP3    H142169   5.182   5.723  15.981 -0.9300 -2.9926  0.4688
 6918TIP3    H242170   5.094   5.815  15.900  2.7324  1.8087  1.5070
 6919TIP3   OH242171   1.263   6.618  12.363 -0.1896  0.1374  0.2018
 6919TIP3    H142172   1.306   6.703  12.348  0.3664 -0.4369 -1.6908
 6919TIP3    H242173   1.171   6.639  12.374 -0.1109  0.9606 -0.6256
 6920TIP3   OH242174   0.743   1.682   1.191  0.0988 -0.3822 -0.5668
 6920TIP3    H142175   0.754   1.761   1.137 -2.5667  1.6654  1.5790
 6920TIP3    H242176   0.696   1.621   1.134 -0.8903  0.9539 -1.2514
 6921TIP3   OH242177   5.804   6.732  13.648 -0.1749  0.0192  0.4381
 6921TIP3    H142178   5.769   6.684  13.573  0.4629  1.3609 -0.7571
 6921TIP3    H242179   5.883   6.683  13.672 -1.8404 -2.0859  2.1419
 6922TIP3   OH242180   3.539   2.120  11.306 -0.1619  0.5195  0.1833
 6922TIP3    H142181   3.481   2.124  11.382 -4.3240 -0.4682 -2.6246
 6922TIP3    H242182   3.528   2.206  11.264 -0.2922 -0.0043 -0.8651
 6923TIP3   OH242183   5.610   0.748   4.821  0.2948 -0.2634  0.3926
 6923TIP3    H142184   5.530   0.739   4.873 -0.0268 -0.7775 -0.1781
 6923TIP3    H242185   5.669   0.798   4.876 -0.8254  1.1363  0.3872
 6924TIP3   OH242186   0.483   5.043  11.845  0.4649 -0.3670  0.0031
 6924TIP3    H142187   0.569   5.000  11.849 -0.5584 -2.4844  1.3685
 6924TIP3    H242188   0.467   5.073  11.935 -0.7620 -1.2046  0.0865
 6925TIP3   OH242189   3.395   5.418  14.548 -0.0023 -0.4955 -0.1912
 6925TIP3    H142190   3.302   5.440  14.546 -0.8919 -3.4439  1.7318
 6925TIP3    H242191   3.408   5.365  14.469 -0.1937 -0.8093 -0.0144
 6926TIP3   OH242192   5.250   5.094   3.414  0.6867  0.3026  0.5623
 6926TIP3    H142193   5.157   5.086   3.437 -0.0767  0.8806 -2.0853
 6926TIP3    H242194   5.289   5.014   3.449 -1.0537 -0.5696  0.6380
 6927TIP3   OH242195   6.204   0.759  15.612 -0.4911  0.3791 -0.1215
 6927TIP3    H142196   6.225   0.702  15.686  0.8484  0.8599 -0.1106
 6927TIP3    H242197   6.111   0.778  15.622 -0.6966 -0.8824  0.5113
 6928TIP3   OH242198   6.798   2.870   0.371  0.5589 -0.1540 -0.1153
 6928TIP3    H142199   6.708   2.844   0.352  0.2159 -0.3789  1.6223
 6928TIP3    H242200   6.788   2.952   0.420  1.3672  0.3813 -0.8250
 6929TIP3   OH242201   6.705   1.306   3.899 -0.1097  0.1784  0.4758
 6929TIP3    H142202   6.729   1.274   3.986  1.7813  0.3642  0.0803
 6929TIP3    H242203   6.631   1.252   3.873  0.4896 -1.1803  1.4407
 6930TIP3   OH242204   4.760   3.039  16.366  0.0937  0.6595  0.0585
 6930TIP3    H142205   4.787   3.130  16.376 -0.3525  1.0172 -1.7849
 6930TIP3    H242206   4.669   3.043  16.337  0.4999 -0.3010 -1.4615
 6931TIP3   OH242207   6.288   3.587   2.615  0.4597 -0.0910 -0.4151
 6931TIP3    H142208   6.355   3.532   2.574 -0.2770 -0.9665 -0.4758
 6931TIP3    H242209   6.211   3.531   2.621  0.2225  0.3636  1.1974
 6932TIP3   OH242210   4.145   1.616  11.201  0.5959  0.4607  0.0771
 6932TIP3    H142211   4.087   1.546  11.172  0.1445  1.2424 -0.9695
 6932TIP3    H242212   4.221   1.609  11.143  1.2595 -0.1118  0.9816
 6933TIP3   OH242213   0.791   0.331  14.969  0.1422  0.4515 -0.4147
 6933TIP3    H142214   0.757   0.418  14.947  3.1479  1.8024 -0.2309
 6933TIP3    H242215   0.716   0.272  14.956 -2.1579  3.0644 -0.1346
 6934TIP3   OH242216   3.652   3.795   2.719 -0.4456  0.4304 -0.3954
 6934TIP3    H142217   3.669   3.888   2.733 -2.1812  0.2688  5.4872
 6934TIP3    H242218   3.559   3.791   2.697 -0.8262  0.0862  1.1978
 6935TIP3   OH242219   2.645   1.985   3.418 -0.6750 -0.3706  0.5753
 6935TIP3    H142220   2.699   1.946   3.349 -0.4945 -0.4582  0.7662
 6935TIP3    H242221   2.702   1.988   3.494 -1.4771 -2.2480  1.3288
 6936TIP3   OH242222   3.542   4.821   3.500  0.2129  0.0923 -0.3457
 6936TIP3    H142223   3.453   4.794   3.479 -0.3411  1.0329  0.6811
 6936TIP3    H242224   3.539   4.917   3.498  0.8958  0.1616  0.8387
 6937TIP3   OH242225   3.489   1.546   0.026  0.1206  0.1897  0.5221
 6937TIP3    H142226   3.408   1.500   0.006  1.0119 -0.3378 -2.3653
 6937TIP3    H242227   3.558   1.482   0.010  1.2267  1.4443  0.0194
 6938TIP3   OH242228   2.744   4.516   4.680 -0.0587  0.1966 -0.7145
 6938TIP3    H142229   2.742   4.589   4.618 -1.0176 -0.5069 -1.5411
 6938TIP3    H242230   2.719   4.555   4.764  0.5676  1.0266 -0.8968
 6939TIP3   OH242231   5.745   3.452   3.673  0.6259  0.0823  0.3148
 6939TIP3    H142232   5.832   3.470   3.639  1.0744 -1.1127  0.7919
 6939TIP3    H242233   5.733   3.358   3.663 -0.5634  0.1998  0.3771
 6940TIP3   OH242234   0.125   5.863  13.141  0.5690  0.3630  0.7355
 6940TIP3    H142235   0.141   5.842  13.233  1.9340 -2.5081 -0.0469
 6940TIP3    H242236   0.207   5.902  13.110  0.7689 -0.3580  0.3293
 6941TIP3   OH242237   0.389   2.454  14.072  0.1106  0.1080  0.3330
 6941TIP3    H142238   0.466   2.408  14.105  0.4472 -1.3964 -2.2292
 6941TIP3    H242239   0.343   2.388  14.020 -2.1246  1.3790  0.5752
 6942TIP3   OH242240   0.562   3.903   0.032 -0.2344 -0.3422  0.4135
 6942TIP3    H142241   0.623   3.938   0.097 -0.9014 -0.2199  0.9798
 6942TIP3    H242242   0.618   3.879  -0.043  0.2763  1.5475  0.1535
 6943TIP3   OH242243   1.705   4.803  15.777  0.1722 -0.6365 -0.0407
 6943TIP3    H142244   1.697   4.811  15.681  1.9173  1.8601 -0.0638
 6943TIP3    H242245   1.735   4.713  15.790 -0.2339 -1.0831 -1.8235
 6944TIP3   OH242246   2.521   1.135   0.962  0.1349 -0.8426  0.4700
 6944TIP3    H142247   2.471   1.056   0.940  0.7644 -0.6933 -1.7479
 6944TIP3    H242248   2.466   1.207   0.931  1.0986 -0.6190 -0.8105
 6945TIP3   OH242249   6.324   1.625  12.020  0.0672 -0.4274 -0.4025
 6945TIP3    H142250   6.363   1.599  12.103  0.0832  0.4152 -0.1423
 6945TIP3    H242251   6.333   1.548  11.964  3.5106  0.1802 -0.8850
 6946TIP3   OH242252   5.368   3.009  13.601 -0.4155 -0.5268  0.3740
 6946TIP3    H142253   5.362   2.947  13.674 -1.6055 -0.1013  0.6611
 6946TIP3    H242254   5.277   3.035  13.584  0.0757  1.5715  0.6336
 6947TIP3   OH242255   5.430   0.900   1.954 -0.3250  0.2129  0.4576
 6947TIP3    H142256   5.404   0.991   1.967 -1.1443 -0.2489  2.4593
 6947TIP3    H242257   5.525   0.899   1.967 -0.5201  0.5538  2.0271
 6948TIP3   OH242258   3.984   5.755   2.562 -0.2601 -0.2649 -0.0035
 6948TIP3    H142259   3.898   5.753   2.521  0.3967 -0.9986 -1.4319
 6948TIP3    H242260   4.015   5.664   2.557  0.0754 -0.2885  1.6939
 6949TIP3   OH242261   3.735   1.015   2.970  0.0732  0.3369  0.4376
 6949TIP3    H142262   3.675   0.981   2.904 -1.9129  0.9407  1.8266
 6949TIP3    H242263   3.792   0.942   2.992 -1.3300 -0.8109  0.3488
 6950TIP3   OH242264   1.745   2.706   0.706 -0.4828 -0.1099  0.3365
 6950TIP3    H142265   1.731   2.790   0.663 -2.8242  0.8578  2.7115
 6950TIP3    H242266   1.737   2.642   0.635  1.2013  1.5821 -1.5135
 6951TIP3   OH242267   3.486   0.927   0.410 -0.1217 -0.0538  0.2501
 6951TIP3    H142268   3.501   0.992   0.478 -1.5854 -0.9869  1.5097
 6951TIP3    H242269   3.571   0.917   0.367  0.4677  1.6137  0.9772
 6952TIP3   OH242270   2.921   6.317  12.453 -0.0600  0.2604 -0.2641
 6952TIP3    H142271   2.980   6.250  12.418  0.4369  0.1797  0.6985
 6952TIP3    H242272   2.965   6.400  12.433 -0.8069  0.3456 -1.7024
 6953TIP3   OH242273   1.924   0.606   5.275  0.0556  0.0286  0.5396
 6953TIP3    H142274   2.006   0.570   5.241  0.2163 -0.2180  1.1686
 6953TIP3    H242275   1.951   0.672   5.338 -0.2417  0.7693 -0.0949
 6954TIP3   OH242276   1.869   5.104  15.062 -0.3873 -0.1478  0.5399
 6954TIP3    H142277   1.840   5.109  14.971 -1.3658 -0.0925  0.8444
 6954TIP3    H242278   1.949   5.050  15.059  0.3968  1.0152 -0.5164
 6955TIP3   OH242279   5.118   5.979   3.740 -0.4071 -0.2680 -0.2377
 6955TIP3    H142280   5.110   5.893   3.782  1.0334 -0.4079 -0.2143
 6955TIP3    H242281   5.183   6.025   3.793  1.0997 -0.2802 -2.0030
 6956TIP3   OH242282   6.645   0.821  12.950 -0.1798 -0.3072 -0.4371
 6956TIP3    H142283   6.601   0.905  12.936  0.0496 -0.3019 -1.1459
 6956TIP3    H242284   6.672   0.823  13.042 -0.5294  0.2262 -0.3434
 6957TIP3   OH242285   1.650   2.319  14.762  0.1200  0.3637 -0.3515
 6957TIP3    H142286   1.564   2.345  14.731 -0.8441 -1.6705  0.4000
 6957TIP3    H242287   1.645   2.325  14.858  0.3243 -0.9997 -0.2231
 6958TIP3   OH242288   6.413   0.817   1.116  0.2882  0.1761  0.1120
 6958TIP3    H142289   6.350   0.816   1.045 -1.0640 -1.1638  1.2551
 6958TIP3    H242290   6.496   0.843   1.075 -0.3486 -0.9009 -1.9979
 6959TIP3   OH242291   6.807   0.305   1.558 -0.0592  0.6017  0.0158
 6959TIP3    H142292   6.835   0.260   1.478  0.6390  3.2202 -1.2948
 6959TIP3    H242293   6.730   0.355   1.532 -0.6388  0.4715  1.3671
 6960TIP3   OH242294   1.393   1.918   5.558 -0.3120 -0.7088  0.0019
 6960TIP3    H142295   1.426   2.005   5.578 -0.1174 -0.1503 -2.4841
 6960TIP3    H242296   1.298   1.929   5.555 -0.3227 -0.7293  0.1958
 6961TIP3   OH242297   6.118   5.588   3.772 -0.1053 -0.1231  0.2991
 6961TIP3    H142298   6.175   5.549   3.705  2.4694  1.9365  1.1448
 6961TIP3    H242299   6.081   5.512   3.818  2.8211 -1.6884  0.3614
 6962TIP3   OH242300   0.713   3.618   2.062  0.1671 -0.0169 -0.3571
 6962TIP3    H142301   0.680   3.532   2.088  1.4755 -0.1128  1.1757
 6962TIP3    H242302   0.636   3.674   2.061 -0.2623 -0.4491  2.1020
 6963TIP3   OH242303   1.479   3.116  14.934  0.0333  0.5450 -0.5666
 6963TIP3    H142304   1.526   3.128  14.852 -1.4270  3.7372 -1.0814
 6963TIP3    H242305   1.481   3.202  14.976 -1.7927 -0.2482  1.3206
 6964TIP3   OH242306   5.950   6.600  16.847 -0.5065 -0.0296  0.0823
 6964TIP3    H142307   6.012   6.644  16.789 -1.5842  1.2613 -0.1171
 6964TIP3    H242308   5.899   6.670  16.887 -0.6655 -0.9668  1.6214
 6965TIP3   OH242309   4.117   3.627  16.061  0.3515 -0.1960 -0.2714
 6965TIP3    H142310   4.212   3.615  16.060  0.4995  0.7683  0.5213
 6965TIP3    H242311   4.087   3.575  16.136 -0.0274 -2.1713 -1.7212
 6966TIP3   OH242312   2.923   2.907   2.527  0.6310  0.3285 -0.7742
 6966TIP3    H142313   3.003   2.856   2.544 -0.1024 -0.4441  0.5235
 6966TIP3    H242314   2.943   2.995   2.558  0.4877 -0.2428  1.0871
 6967TIP3   OH242315   4.541   1.053   5.356  0.1171 -0.0662 -0.0435
 6967TIP3    H142316   4.468   1.033   5.415  0.2572  0.7142  0.4051
 6967TIP3    H242317   4.574   0.968   5.328 -0.2185 -0.4348  0.6754
 6968TIP3   OH242318   4.851   0.238   0.993  0.1093 -0.1675  0.1890
 6968TIP3    H142319   4.934   0.200   1.023  0.5156 -0.7141 -1.5460
 6968TIP3    H242320   4.833   0.194   0.910 -1.8539  0.0589  0.4486
 6969TIP3   OH242321   4.625   0.649  13.067 -0.0289 -0.1143  0.3491
 6969TIP3    H142322   4.694   0.672  13.005 -0.7924  0.2372 -0.4077
 6969TIP3    H242323   4.544   0.670  13.020 -0.6763 -1.3238  0.8688
 6970TIP3   OH242324   1.768   1.636   0.962 -0.6646 -0.3914  0.5392
 6970TIP3    H142325   1.806   1.559   1.003 -1.8881 -0.3236  1.9026
 6970TIP3    H242326   1.803   1.710   1.012  0.0674 -0.0832 -0.4048
 6971TIP3   OH242327   1.068   5.281  17.055 -0.0744  0.0398 -0.3246
 6971TIP3    H142328   1.159   5.297  17.029 -0.7660  0.9390 -2.3952
 6971TIP3    H242329   1.050   5.192  17.026 -0.1948  0.2662 -0.9432
 6972TIP3   OH242330   4.720   6.797  15.229 -0.3843 -0.9719 -0.1253
 6972TIP3    H142331   4.682   6.849  15.300 -0.2982 -0.2071 -0.6279
 6972TIP3    H242332   4.762   6.862  15.172  0.9026 -1.7197 -0.0533
 6973TIP3   OH242333   1.791   1.539  12.919 -0.3731  0.8895  0.4104
 6973TIP3    H142334   1.835   1.456  12.935 -2.2592 -0.1141  0.6495
 6973TIP3    H242335   1.718   1.517  12.862 -3.1990  1.5848  3.4170
 6974TIP3   OH242336   0.648   4.481  15.246  0.2282 -0.0328  0.0636
 6974TIP3    H142337   0.703   4.544  15.199 -1.7711  0.2562 -2.0190
 6974TIP3    H242338   0.711   4.419  15.285  2.0606  0.7055 -1.5620
 6975TIP3   OH242339   1.786   1.781   0.005 -0.3675  0.2022  0.1085
 6975TIP3    H142340   1.726   1.765   0.078 -1.3805  0.6342 -0.5909
 6975TIP3    H242341   1.867   1.738   0.030 -1.7268 -2.6590  0.0404
 6976TIP3   OH242342   3.934   0.313  14.297  0.3857 -0.1588  0.3432
 6976TIP3    H142343   4.007   0.350  14.248  0.6458  0.9423  1.5097
 6976TIP3    H242344   3.963   0.314  14.388 -1.2476  0.7198  0.8961
 6977TIP3   OH242345   5.794   5.309   1.802  0.0342  0.3382 -0.0163
 6977TIP3    H142346   5.741   5.287   1.878 -1.0281 -0.8231 -1.0442
 6977TIP3    H242347   5.731   5.338   1.736  0.3551 -2.8272 -1.9053
 6978TIP3   OH242348   4.419   6.784   3.385 -0.0552  1.0105  0.0904
 6978TIP3    H142349   4.325   6.797   3.394 -0.0687  0.6160  0.6295
 6978TIP3    H242350   4.430   6.740   3.301 -0.4445  0.2406  0.4306
 6979TIP3   OH242351   6.072   3.160   1.542  0.6279 -0.3510 -0.7544
 6979TIP3    H142352   5.981   3.190   1.542  1.0689  1.1016 -1.3175
 6979TIP3    H242353   6.118   3.221   1.599  1.0846 -1.7270  0.4143
 6980TIP3   OH242354   5.464   6.464   5.878  0.1867 -0.0272  0.4746
 6980TIP3    H142355   5.508   6.424   5.803  1.1348  0.6460  0.6564
 6980TIP3    H242356   5.459   6.394   5.943  0.2485 -0.3354  0.1524
 6981TIP3   OH242357   3.847   6.547   5.011 -0.0090  0.6472  0.0890
 6981TIP3    H142358   3.923   6.533   4.955  0.5117 -0.0679  0.9543
 6981TIP3    H242359   3.830   6.462   5.050 -2.6339  0.2017 -1.7587
 6982TIP3   OH242360   2.592   6.117  13.362 -0.4592  0.6648  0.2496
 6982TIP3    H142361   2.609   6.192  13.419  0.4483 -0.0347  0.9334
 6982TIP3    H242362   2.511   6.079  13.396 -0.0848  0.4294  0.9071
 6983TIP3   OH242363   0.978   2.451  15.122 -0.2157 -0.7251 -0.7809
 6983TIP3    H142364   0.902   2.505  15.098 -0.3561 -0.5512  0.0358
 6983TIP3    H242365   0.943   2.387  15.184  0.2154 -0.9322 -0.7509
 6984TIP3   OH242366   2.925   4.965  16.255  0.2349 -0.6298 -0.3174
 6984TIP3    H142367   2.857   5.028  16.233 -0.6246 -1.4519 -0.1037
 6984TIP3    H242368   2.917   4.897  16.189  0.7883 -0.7865 -0.2265
 6985TIP3   OH242369   3.675   0.280  10.859  0.2133  0.6630  0.5941
 6985TIP3    H142370   3.712   0.360  10.821  0.1574 -0.4141 -1.9028
 6985TIP3    H242371   3.587   0.274  10.821  0.0035 -0.3012  1.1913
 6986TIP3   OH242372   2.889   6.684  12.662  0.4238 -0.2568 -0.2626
 6986TIP3    H142373   2.858   6.761  12.710 -2.0345 -0.8269 -0.7814
 6986TIP3    H242374   2.923   6.625  12.729  1.5296  0.8766  0.2226
 6987TIP3   OH242375   0.949   3.957   1.269  0.1139 -0.0649  0.2078
 6987TIP3    H142376   0.854   3.952   1.282  0.2938 -0.6241  1.5108
 6987TIP3    H242377   0.981   4.003   1.347  1.0109 -0.8714  0.3385
 6988TIP3   OH242378   6.418   1.439  14.851 -0.8988 -0.0576  0.3595
 6988TIP3    H142379   6.507   1.404  14.840 -0.6981  1.0678 -2.3193
 6988TIP3    H242380   6.418   1.476  14.939  1.7354  1.0154  0.0239
 6989TIP3   OH242381   0.194   4.935  11.460  0.0182 -0.6364  0.3096
 6989TIP3    H142382   0.129   4.865  11.461  0.2826 -0.9437  2.8153
 6989TIP3    H242383   0.237   4.929  11.545  0.4086  2.2569  0.4092
 6990TIP3   OH242384   5.890   0.818   4.912  0.5262  0.0577 -1.1833
 6990TIP3    H142385   5.859   0.868   4.988  0.9603 -1.2674 -0.1125
 6990TIP3    H242386   5.946   0.880   4.864  1.1497  0.5779  0.1783
 6991TIP3   OH242387   2.510   1.821  15.406 -0.1942 -1.1235 -0.6162
 6991TIP3    H142388   2.499   1.757  15.337 -0.8920  0.0828 -1.6735
 6991TIP3    H242389   2.596   1.859  15.390  0.5339 -2.2696  0.4490
 6992TIP3   OH242390   0.870   3.915   0.462  0.7161  0.9058  0.0710
 6992TIP3    H142391   0.961   3.942   0.470  0.6361  1.0088  0.7266
 6992TIP3    H242392   0.845   3.939   0.373  1.2890  0.9927 -0.0716
 6993TIP3   OH242393   0.901   6.011  15.212 -0.3878  0.1380  0.2605
 6993TIP3    H142394   0.949   6.062  15.278  1.7480  0.4933 -1.4632
 6993TIP3    H242395   0.858   6.077  15.158  1.0420  0.1069 -0.9812
 6994TIP3   OH242396   2.768   6.430  14.849 -0.3328 -0.3366  0.1618
 6994TIP3    H142397   2.730   6.444  14.936 -1.3132  1.8962 -0.5416
 6994TIP3    H242398   2.693   6.424  14.790  0.3262  0.5218 -0.8041
 6995TIP3   OH242399   4.305   0.587   2.540  0.3290  1.0410  0.8493
 6995TIP3    H142400   4.334   0.503   2.575 -0.2791 -0.2981 -1.6536
 6995TIP3    H242401   4.214   0.595   2.570 -0.1275 -0.0085 -0.1383
 6996TIP3   OH242402   3.355   3.011   6.183 -0.0016  0.3052 -0.1549
 6996TIP3    H142403   3.294   3.071   6.226 -0.0179  0.3536 -0.2459
 6996TIP3    H242404   3.439   3.057   6.186 -0.2954  0.9811 -1.5295
 6997TIP3   OH242405   3.609   6.190  14.337  0.9092 -0.5123 -0.2605
 6997TIP3    H142406   3.703   6.173  14.334  0.7875 -1.8729  1.9570
 6997TIP3    H242407   3.568   6.104  14.336 -0.3243  0.0422 -0.5689
 6998TIP3   OH242408   6.350   4.578   1.393 -0.2004 -0.1794 -0.2484
 6998TIP3    H142409   6.272   4.606   1.344 -0.1899  0.7254  0.2195
 6998TIP3    H242410   6.396   4.520   1.333  0.2151  1.5234 -1.6500
 6999TIP3   OH242411   4.127   1.735  14.900  0.1947  0.1013 -0.6787
 6999TIP3    H142412   4.103   1.696  14.985  1.8259  0.2628 -0.1147
 6999TIP3    H242413   4.045   1.735  14.850 -0.4596 -1.5101  0.2992
 7000TIP3   OH242414   1.260   3.493   0.862 -0.3974 -0.0844  0.3345
 7000TIP3    H142415   1.258   3.472   0.956  1.9467  3.1456  1.2505
 7000TIP3    H242416   1.178   3.540   0.847 -0.0307  0.8899  1.2343
 7001TIP3   OH242417   3.035   6.621   2.089 -0.6561  0.1241 -0.2424
 7001TIP3    H142418   3.019   6.599   2.180 -1.4200  1.0830 -0.1262
 7001TIP3    H242419   2.951   6.653   2.057 -0.6042 -0.9458 -1.5143
 7002TIP3   OH242420   6.593   5.857  13.685  0.1405  0.2498  0.1119
 7002TIP3    H142421   6.678   5.821  13.660  1.5205  2.7626  0.8194
 7002TIP3    H242422   6.530   5.809  13.632  1.9970 -1.5403 -0.6126
 7003TIP3   OH242423   3.843   0.637   2.175  0.4448 -0.6946  0.1886
 7003TIP3    H142424   3.836   0.669   2.085  0.5980 -2.2403 -0.4065
 7003TIP3    H242425   3.936   0.618   2.186  0.4500 -0.3545  0.7385
 7004TIP3   OH242426   1.997   2.283  11.199  0.2504  0.9380 -0.4915
 7004TIP3    H142427   1.949   2.223  11.142 -1.0347 -0.3852  1.8752
 7004TIP3    H242428   2.088   2.254  11.192 -0.0590  0.0292 -0.9329
 7005TIP3   OH242429   1.067   1.907   5.428 -0.1139  0.5506  0.3619
 7005TIP3    H142430   0.999   1.972   5.411  0.4008  1.2174  0.7987
 7005TIP3    H242431   1.083   1.913   5.522  0.7399  0.6143  0.2194
 7006TIP3   OH242432   2.077   6.589  13.949 -0.3594  0.0104 -0.3845
 7006TIP3    H142433   2.149   6.589  14.012  0.5337  3.2806 -1.2094
 7006TIP3    H242434   2.005   6.547  13.996  1.3371 -1.1949  1.3455
 7007TIP3   OH242435   2.506   0.773  14.646  0.2053  0.2042  0.0273
 7007TIP3    H142436   2.433   0.736  14.597 -0.2078  1.2945 -0.1986
 7007TIP3    H242437   2.582   0.760  14.589  0.3250 -1.4235  0.4910
 7008TIP3   OH242438   0.702   1.772   4.664 -0.1906 -0.1712 -0.0301
 7008TIP3    H142439   0.648   1.693   4.658 -3.2473  1.6911  0.4259
 7008TIP3    H242440   0.721   1.781   4.757  2.9140 -1.9091 -0.3670
 7009TIP3   OH242441   4.543   3.258   5.600  0.4935 -0.0608 -0.0952
 7009TIP3    H142442   4.606   3.329   5.612 -0.7211  0.8793  1.0423
 7009TIP3    H242443   4.531   3.221   5.688  0.4656 -1.1257 -0.5282
 7010TIP3   OH242444   4.229   0.679   5.439 -0.2236  0.1022 -0.0140
 7010TIP3    H142445   4.208   0.684   5.532 -0.5878  0.9826 -0.1315
 7010TIP3    H242446   4.163   0.620   5.402 -1.4001  1.4033 -0.0626
 7011TIP3   OH242447   0.307   1.217  15.281  0.3561  0.0502  0.1640
 7011TIP3    H142448   0.228   1.191  15.327 -0.2306 -0.9332 -1.3161
 7011TIP3    H242449   0.379   1.176  15.330 -0.2686 -1.1594  0.1088
 7012TIP3   OH242450   3.449   2.362   2.584  0.0178  0.1473  0.0910
 7012TIP3    H142451   3.383   2.416   2.627  0.5173  3.2584 -2.6734
 7012TIP3    H242452   3.402   2.318   2.513  0.2202 -0.7487  0.4931
 7013TIP3   OH242453   6.701   1.072  11.162  0.1644 -0.1497 -0.3992
 7013TIP3    H142454   6.728   1.026  11.082  0.6148 -0.1462 -0.2506
 7013TIP3    H242455   6.618   1.113  11.138  0.6528  0.4560 -1.0979
 7014TIP3   OH242456   4.550   6.561  11.387 -0.8623  0.7002  0.2311
 7014TIP3    H142457   4.599   6.483  11.362 -0.9219  0.3840  1.0558
 7014TIP3    H242458   4.469   6.555  11.337 -1.3368 -0.3516  1.0659
 7015TIP3   OH242459   6.257   5.666   1.734 -0.2620  0.0585  0.1873
 7015TIP3    H142460   6.339   5.631   1.699 -0.6502 -0.3599 -0.3208
 7015TIP3    H242461   6.256   5.757   1.707  0.3511  0.2460  0.7771
 7016TIP3   OH242462   0.202   4.029  15.876 -0.5000  0.4107 -0.0187
 7016TIP3    H142463   0.193   4.078  15.795 -1.4936 -0.8227 -0.6951
 7016TIP3    H242464   0.140   4.068  15.936  0.6046  1.6626  0.3462
 7017TIP3   OH242465   3.625   1.791   0.765 -0.4010  0.6100  0.4843
 7017TIP3    H142466   3.614   1.706   0.807  0.7619  0.2206  0.0374
 7017TIP3    H242467   3.539   1.832   0.770 -1.9005 -1.8704 -2.0616
 7018TIP3   OH242468   3.708   2.788  11.020 -0.6764 -0.7910  0.2380
 7018TIP3    H142469   3.760   2.833  11.087  0.4712 -1.8766  0.1359
 7018TIP3    H242470   3.756   2.803  10.938 -1.0916 -0.9464 -0.0357
 7019TIP3   OH242471   5.265   3.622   2.519  0.5664 -0.0815  0.1402
 7019TIP3    H142472   5.244   3.548   2.462  0.9825 -0.4206  0.4215
 7019TIP3    H242473   5.275   3.583   2.606 -1.3331  0.6045  0.7113
 7020TIP3   OH242474   6.450   3.984  13.891 -0.2999  0.2027 -0.3424
 7020TIP3    H142475   6.517   4.008  13.955 -0.3525  1.7828 -0.8330
 7020TIP3    H242476   6.496   3.984  13.807 -0.9912  1.8255 -0.7498
 7021TIP3   OH242477   4.047   4.352  11.681 -0.0741 -0.2662 -0.1189
 7021TIP3    H142478   4.021   4.422  11.621 -0.2906 -0.7481 -0.5949
 7021TIP3    H242479   4.067   4.278  11.624 -0.5021 -0.8059  0.4153
 7022TIP3   OH242480   3.190   2.663   0.630  0.7192 -0.3560  0.0218
 7022TIP3    H142481   3.182   2.595   0.564 -0.2211  0.8760 -1.2005
 7022TIP3    H242482   3.285   2.669   0.646  0.9294 -1.0124 -0.8633
 7023TIP3   OH242483   5.066   2.936   1.198 -0.2941  0.1405  0.2414
 7023TIP3    H142484   4.979   2.973   1.207 -0.1539  0.6633 -0.4573
 7023TIP3    H242485   5.121   3.010   1.170  0.0568 -0.5218 -0.8614
 7024TIP3   OH242486   2.532   5.869   0.804  0.5997  0.0188 -0.5388
 7024TIP3    H142487   2.495   5.927   0.738  0.5749  0.4680 -0.1323
 7024TIP3    H242488   2.480   5.884   0.883  2.5006  1.7559  0.4901
 7025TIP3   OH242489   6.646   0.861   2.241 -0.5188  0.1183  0.1203
 7025TIP3    H142490   6.697   0.921   2.187  1.5251 -1.6141  0.0034
 7025TIP3    H242491   6.690   0.861   2.326 -0.5851 -1.0644  0.1681
 7026TIP3   OH242492   2.212   6.806  16.012 -0.0344  0.3668 -0.1137
 7026TIP3    H142493   2.128   6.805  16.057 -0.8341  0.1315 -1.5660
 7026TIP3    H242494   2.232   6.899  16.000 -2.0742  0.5391 -3.2417
 7027TIP3   OH242495   3.175   0.794   4.029 -0.3847  0.8286  0.4598
 7027TIP3    H142496   3.235   0.786   4.103 -0.5411  1.8462  0.7128
 7027TIP3    H242497   3.177   0.708   3.987  2.0672  1.1375 -0.1869
 7028TIP3   OH242498   4.063   1.044   4.516 -0.0980 -0.5843 -0.4098
 7028TIP3    H142499   4.032   0.955   4.537 -0.0739 -0.2121  1.2968
 7028TIP3    H242500   3.984   1.097   4.514  0.1540  0.0141  2.1576
 7029TIP3   OH242501   0.710   0.276  12.118 -0.1896  0.2775 -0.4705
 7029TIP3    H142502   0.773   0.291  12.190  1.7154 -3.0610 -1.2234
 7029TIP3    H242503   0.738   0.336  12.050  0.9510  0.2675 -0.0420
 7030TIP3   OH242504   3.384   6.167  10.468 -0.6208  0.5079 -0.0456
 7030TIP3    H142505   3.400   6.079  10.503 -1.1906 -1.3699 -3.9811
 7030TIP3    H242506   3.294   6.164  10.437 -0.3610  2.1931 -1.0592
 7031TIP3   OH242507   4.662   4.256  14.935 -0.0078  0.1947 -0.6370
 7031TIP3    H142508   4.717   4.181  14.959  0.8564  0.7770 -0.7744
 7031TIP3    H242509   4.629   4.289  15.018  0.0340 -0.0124 -0.5379
 7032TIP3   OH242510   3.035   4.403   4.876  0.5793 -0.1537 -0.6451
 7032TIP3    H142511   2.960   4.367   4.830 -0.1299  0.9104 -0.3834
 7032TIP3    H242512   3.066   4.474   4.820  1.3631 -0.5614 -0.7300
 7033TIP3   OH242513   1.573   2.830  16.822 -0.0110  0.1936 -0.0778
 7033TIP3    H142514   1.567   2.739  16.794 -2.1301  0.5342 -0.8586
 7033TIP3    H242515   1.616   2.876  16.750  0.8552 -0.1278  0.2236
 7034TIP3   OH242516   1.438   0.263   0.685  0.1446 -0.0498 -0.3762
 7034TIP3    H142517   1.384   0.185   0.697 -0.0574 -0.1334 -1.7533
 7034TIP3    H242518   1.381   0.326   0.641  0.8312  0.2502 -0.8602
 7035TIP3   OH242519   2.214   2.490   2.966 -0.3227 -0.4947  0.4086
 7035TIP3    H142520   2.257   2.459   2.885 -0.8134 -0.2929  0.0677
 7035TIP3    H242521   2.188   2.580   2.946 -0.3928 -0.4262  0.8154
 7036TIP3   OH242522   4.453   3.675  11.696  0.5489  0.6158  0.4081
 7036TIP3    H142523   4.526   3.629  11.655  1.4373  1.5289  0.9456
 7036TIP3    H242524   4.387   3.606  11.710 -0.1333  0.3380 -3.1286
 7037TIP3   OH242525   4.331   2.548  14.613  0.3953 -0.2097 -0.7349
 7037TIP3    H142526   4.276   2.528  14.689  1.1440 -0.5566 -0.2762
 7037TIP3    H242527   4.341   2.643  14.615 -0.6181 -0.0768 -1.1344
 7038TIP3   OH242528   2.236   0.091  16.903 -0.2811  0.7040 -0.1548
 7038TIP3    H142529   2.229   0.161  16.838  1.7442  0.2947 -0.8879
 7038TIP3    H242530   2.298   0.125  16.968 -1.7205  0.8091  1.2155
 7039TIP3   OH242531   0.800   5.715  12.623 -0.1358 -0.5153  0.2803
 7039TIP3    H142532   0.851   5.795  12.625 -1.7474  0.5572  0.7856
 7039TIP3    H242533   0.764   5.710  12.535 -1.6112  0.4152  0.7881
 7040TIP3   OH242534   5.359   0.611  11.701 -0.8084 -0.2965  0.8091
 7040TIP3    H142535   5.433   0.658  11.740 -1.8336  1.5454  0.6808
 7040TIP3    H242536   5.290   0.617  11.767 -1.1651 -1.0966  0.5202
 7041TIP3   OH242537   5.320   2.450  14.117  0.0593  0.5457  0.2960
 7041TIP3    H142538   5.400   2.462  14.168 -0.5133 -0.3055  1.4370
 7041TIP3    H242539   5.284   2.367  14.147 -1.4398  1.0755  0.0828
 7042TIP3   OH242540   6.101   1.682  12.191  0.6830  0.1079 -0.2341
 7042TIP3    H142541   6.155   1.672  12.113 -0.1073  0.0975 -0.7948
 7042TIP3    H242542   6.100   1.777  12.207 -0.6314  0.3175 -1.3387
 7043TIP3   OH242543   5.244   1.475   5.037 -0.1090  0.2233  0.2417
 7043TIP3    H142544   5.181   1.454   4.968  1.3397 -0.7730 -0.8305
 7043TIP3    H242545   5.315   1.521   4.992  0.5423  0.1658  1.1908
 7044TIP3   OH242546   5.604   1.375  15.120 -0.2520 -0.4178  0.3554
 7044TIP3    H142547   5.654   1.343  15.195 -2.2509 -0.4994  1.7072
 7044TIP3    H242548   5.525   1.414  15.157 -0.9775  0.2079 -1.6686
 7045TIP3   OH242549   3.596   5.182  16.676  0.0557 -0.0211 -0.6227
 7045TIP3    H142550   3.598   5.227  16.761 -0.4042 -1.7336  0.3528
 7045TIP3    H242551   3.603   5.252  16.611  2.0869  1.2371  0.8310
 7046TIP3   OH242552   5.032   1.653  11.140 -0.3754 -0.0324 -0.1549
 7046TIP3    H142553   4.980   1.721  11.098 -0.8983 -0.1605  0.2821
 7046TIP3    H242554   5.083   1.700  11.206 -2.1065 -0.2841  1.4397
 7047TIP3   OH242555   2.730   1.198   3.526 -0.0260 -0.4061  0.1054
 7047TIP3    H142556   2.798   1.225   3.588 -0.3296 -1.2946  0.8425
 7047TIP3    H242557   2.713   1.106   3.547 -1.7718 -0.0855  0.2369
 7048TIP3   OH242558   1.319   3.259  12.303 -0.4464 -0.3749 -0.4987
 7048TIP3    H142559   1.289   3.322  12.238 -0.4721  0.6564  0.4740
 7048TIP3    H242560   1.295   3.174  12.268 -2.3999  0.2698 -0.8474
 7049TIP3   OH242561   5.723   4.524  14.130  0.8591 -0.0544 -0.0923
 7049TIP3    H142562   5.634   4.533  14.095  1.1473 -0.8890 -1.0725
 7049TIP3    H242563   5.726   4.435  14.165  0.4991  0.8266  2.3804
 7050TIP3   OH242564   4.143   0.388  11.184 -0.2222 -0.2812  0.0962
 7050TIP3    H142565   4.226   0.427  11.158  0.8150 -0.8960  2.2712
 7050TIP3    H242566   4.152   0.371  11.278 -2.7627 -0.4848  0.3944
 7051TIP3   OH242567   1.566   2.423  15.976  0.2804  0.2099  0.5411
 7051TIP3    H142568   1.485   2.444  16.022  0.4170  1.6673  0.1562
 7051TIP3    H242569   1.554   2.332  15.948 -0.7987  0.0842  1.3434
 7052TIP3   OH242570   4.630   4.376   0.462  0.4231  0.1746 -0.4558
 7052TIP3    H142571   4.559   4.435   0.436  0.9720  1.3891  0.6753
 7052TIP3    H242572   4.705   4.434   0.477  1.0405 -0.8309  0.5136
 7053TIP3   OH242573   2.050   5.963  15.451 -0.0654 -0.0722  0.0411
 7053TIP3    H142574   2.037   5.871  15.426  0.6471 -0.1909  0.0797
 7053TIP3    H242575   2.130   5.961  15.505 -1.3714  0.2020  2.0962
 7054TIP3   OH242576   0.787   6.009  14.819 -0.1063  0.3101  0.8160
 7054TIP3    H142577   0.693   5.989  14.820 -0.0898  0.1834 -0.0608
 7054TIP3    H242578   0.793   6.092  14.773  0.5128 -1.4257 -2.5472
 7055TIP3   OH242579   4.586   3.095  13.651  0.1748  0.1185  0.4429
 7055TIP3    H142580   4.509   3.151  13.638 -0.1804 -0.1699  1.2543
 7055TIP3    H242581   4.565   3.014  13.604  0.3594  0.3606 -0.0688
 7056TIP3   OH242582   0.035   2.519   0.393  0.0526 -0.3253 -0.8824
 7056TIP3    H142583   0.003   2.504   0.304 -0.3108 -0.3142 -0.7540
 7056TIP3    H242584  -0.035   2.569   0.436  0.4615  0.1463 -0.7538
 7057TIP3   OH242585   2.862   0.243   2.134 -0.3003  0.2276 -0.2393
 7057TIP3    H142586   2.941   0.233   2.080 -1.2281 -0.7860 -1.4799
 7057TIP3    H242587   2.820   0.322   2.101  0.1564  0.7501  0.4009
 7058TIP3   OH242588   1.688   4.619  12.791 -0.3764 -0.5695  0.0194
 7058TIP3    H142589   1.616   4.584  12.843  0.3092 -0.5475  1.0222
 7058TIP3    H242590   1.665   4.711  12.776 -1.3410 -0.9708 -1.1147
 7059TIP3   OH242591   0.678   0.386  14.644 -0.0140 -0.2836  0.2130
 7059TIP3    H142592   0.613   0.344  14.588 -1.3140 -0.1000  1.4992
 7059TIP3    H242593   0.682   0.331  14.722  1.1023 -0.0775  0.3148
 7060TIP3   OH242594   2.061   0.370   3.623 -0.3919  0.2652 -0.4300
 7060TIP3    H142595   2.067   0.300   3.688  0.0859  1.5090  0.8924
 7060TIP3    H242596   1.973   0.360   3.585  0.4367 -2.4097 -1.8880
 7061TIP3   OH242597   3.201   2.781   1.608  0.7452  0.2243 -0.6567
 7061TIP3    H142598   3.244   2.824   1.682 -0.1042 -0.7071  0.4124
 7061TIP3    H242599   3.114   2.820   1.605  0.2144 -0.8813 -0.1222
 7062TIP3   OH242600   2.023   1.463   5.852 -0.1645  0.5128  0.0857
 7062TIP3    H142601   2.038   1.521   5.777 -0.3057  1.3802  0.7136
 7062TIP3    H242602   1.929   1.470   5.868 -0.1706  0.1537  0.2045
 7063TIP3   OH242603   5.615   4.995  10.427  0.1531  1.1256 -0.1147
 7063TIP3    H142604   5.703   4.982  10.392  0.3528  1.5242  0.2218
 7063TIP3    H242605   5.557   4.950  10.366  0.9274 -3.8757  2.3537
 7064TIP3   OH242606   6.070   5.379   4.952  0.3479 -0.4199  0.3215
 7064TIP3    H142607   6.158   5.399   4.921 -0.0675 -0.8389 -1.2362
 7064TIP3    H242608   6.081   5.305   5.011  1.0761 -0.1576  0.5278
 7065TIP3   OH242609   5.613   4.792  16.229  0.2195 -0.2523  0.4131
 7065TIP3    H142610   5.647   4.714  16.185 -1.2477 -0.1912 -0.9414
 7065TIP3    H242611   5.558   4.758  16.300  0.5228 -0.4156  0.5702
 7066TIP3   OH242612   1.228   6.182  13.459  0.1438  0.3548 -0.3784
 7066TIP3    H142613   1.245   6.101  13.506  1.1189  1.4435  1.2850
 7066TIP3    H242614   1.147   6.216  13.497  1.4588  1.7392  1.3711
 7067TIP3   OH242615   1.704   1.781  11.823  0.1497  0.0989  0.1258
 7067TIP3    H142616   1.698   1.860  11.770  0.8597 -0.3969 -0.7401
 7067TIP3    H242617   1.630   1.727  11.795 -0.8397  0.8025  1.3395
 7068TIP3   OH242618   1.191   4.136   5.954 -0.0136 -0.1505 -0.3731
 7068TIP3    H142619   1.253   4.122   5.882  1.2706 -0.2440  0.7212
 7068TIP3    H242620   1.123   4.070   5.940  1.0103 -1.1645 -0.6682
 7069TIP3   OH242621   2.258   4.827   6.273  0.8166  0.1280 -0.1453
 7069TIP3    H142622   2.337   4.880   6.261  1.4940 -1.0516 -1.1155
 7069TIP3    H242623   2.275   4.746   6.225 -0.5185 -0.6483  0.6019
 7070TIP3   OH242624   3.819   0.419  11.775 -0.1156 -0.4198 -0.4809
 7070TIP3    H142625   3.815   0.403  11.681  0.6138 -0.1554 -0.5633
 7070TIP3    H242626   3.775   0.344  11.815 -2.1322  0.3463 -1.0942
 7071TIP3   OH242627   3.301   1.355   0.954  0.1558  0.0111 -0.3957
 7071TIP3    H142628   3.228   1.343   0.893 -0.0824  0.6910 -0.2602
 7071TIP3    H242629   3.274   1.308   1.033 -2.0641  3.4978  1.1816
 7072TIP3   OH242630   1.308   4.592   4.740 -0.0773 -0.2947 -0.7437
 7072TIP3    H142631   1.248   4.552   4.802 -0.0079  0.7489  0.0289
 7072TIP3    H242632   1.395   4.562   4.767  0.0092  0.6313  0.0655
 7073TIP3   OH242633   3.876   0.390   1.451 -0.1287 -0.0625 -0.3017
 7073TIP3    H142634   3.897   0.466   1.398  0.7198 -0.1819 -0.1510
 7073TIP3    H242635   3.813   0.341   1.399 -1.3948  1.1894 -0.0052
 7074TIP3   OH242636   5.788   1.255  16.460 -0.4485  0.0725  0.2398
 7074TIP3    H142637   5.722   1.309  16.503 -0.4725  0.1111  0.1527
 7074TIP3    H242638   5.848   1.230  16.531 -0.5105  0.1044  0.3026
 7075TIP3   OH242639   4.626   1.591  16.471 -0.0041 -0.2721 -0.6448
 7075TIP3    H142640   4.669   1.673  16.449  2.9671 -0.8625  2.1457
 7075TIP3    H242641   4.558   1.615  16.534 -0.2787  0.1640 -1.0972
 7076TIP3   OH242642   0.217   1.984   2.990 -0.0706 -0.2623 -0.3552
 7076TIP3    H142643   0.195   1.924   3.061  0.9221 -0.4887 -0.2142
 7076TIP3    H242644   0.136   2.030   2.970 -0.7062 -1.2317 -0.0551
 7077TIP3   OH242645   5.204   4.872  10.918 -0.0289 -0.1526 -0.3224
 7077TIP3    H142646   5.291   4.899  10.948  0.6063  0.2932 -2.4499
 7077TIP3    H242647   5.219   4.794  10.865 -0.9052  0.0221 -0.8559
 7078TIP3   OH242648   3.261   0.343  12.306 -0.2350 -0.4607  0.4531
 7078TIP3    H142649   3.288   0.416  12.361  0.1595 -0.9421  0.9066
 7078TIP3    H242650   3.234   0.275  12.367  0.4125 -1.0812  0.0769
 7079TIP3   OH242651   6.460   4.031   5.176 -0.0544  0.8908 -0.2898
 7079TIP3    H142652   6.381   4.012   5.226 -0.4885 -0.6963 -1.4773
 7079TIP3    H242653   6.428   4.076   5.097  0.1963  0.2213 -0.7839
 7080TIP3   OH242654   2.477   1.639  15.182  0.0429 -0.0239 -0.1360
 7080TIP3    H142655   2.452   1.563  15.129  0.0696  0.7561 -1.3111
 7080TIP3    H242656   2.535   1.689  15.125 -0.6587  1.3150  0.2995
 7081TIP3   OH242657   2.434   2.924  16.234 -0.0585 -0.0378  0.1002
 7081TIP3    H142658   2.386   2.861  16.179 -2.3396  1.3885  0.3353
 7081TIP3    H242659   2.465   2.990  16.173  0.6618 -0.3632  0.1007
 7082TIP3   OH242660   5.102   3.482   6.284 -0.2541 -0.4413 -0.7749
 7082TIP3    H142661   5.174   3.541   6.305  0.1048 -1.6564  1.8775
 7082TIP3    H242662   5.023   3.534   6.300  0.0339  0.0876 -1.0518
 7083TIP3   OH242663   3.596   4.997  17.012  0.2153 -0.2876  0.1685
 7083TIP3    H142664   3.663   5.006  16.945  0.9130 -1.2685  0.7026
 7083TIP3    H242665   3.552   4.914  16.992  0.0014 -0.2661  0.5312
 7084TIP3   OH242666   0.791   5.635  11.768  0.2466  0.3901 -0.7744
 7084TIP3    H142667   0.743   5.619  11.687  2.3419 -0.0600 -2.0010
 7084TIP3    H242668   0.883   5.625  11.744  1.0266  1.7644  1.3303
 7085TIP3   OH242669   3.563   3.341  16.676  0.0639  0.3499  0.1788
 7085TIP3    H142670   3.540   3.432  16.695  1.2052  0.8287 -0.6178
 7085TIP3    H242671   3.561   3.335  16.580 -2.5058 -1.1713  0.2160
 7086TIP3   OH242672   5.598   6.149   1.969  0.7409 -0.0197  0.3142
 7086TIP3    H142673   5.509   6.150   2.004 -0.3927  0.3058 -2.3472
 7086TIP3    H242674   5.606   6.064   1.926  2.5188 -0.9140  2.2554
 7087TIP3   OH242675   4.409   1.740   1.795 -0.3740  0.1214 -0.4967
 7087TIP3    H142676   4.394   1.669   1.857 -0.5029  0.2912 -0.3293
 7087TIP3    H242677   4.474   1.796   1.837  1.3850 -1.0325 -1.5716
 7088TIP3   OH242678   4.450   4.005   5.523 -0.0860 -0.9986  0.3213
 7088TIP3    H142679   4.530   3.988   5.571  0.5134 -1.8870 -0.9171
 7088TIP3    H242680   4.480   4.035   5.437 -1.0917 -0.7029  0.0636
 7089TIP3   OH242681   1.206   2.318  13.933 -0.0266 -0.3595  0.2581
 7089TIP3    H142682   1.185   2.244  13.989  1.5469 -0.7918  0.3160
 7089TIP3    H242683   1.187   2.287  13.844 -0.8355 -0.2836  0.3977
 7090TIP3   OH242684   1.823   2.835  15.512 -0.3253  0.6098 -0.1842
 7090TIP3    H142685   1.732   2.838  15.484  0.1033 -1.1304 -2.0336
 7090TIP3    H242686   1.848   2.926  15.524 -1.6623  1.2507 -1.9110
 7091TIP3   OH242687   3.178   3.719  14.725 -0.5051  0.1132 -0.2413
 7091TIP3    H142688   3.111   3.715  14.656  1.3581 -3.5516 -2.1305
 7091TIP3    H242689   3.163   3.640  14.777  0.8684  0.5144  0.8036
 7092TIP3   OH242690   0.533   5.673   3.948 -0.2905  0.0396  0.3613
 7092TIP3    H142691   0.475   5.603   3.919  0.3363  0.0375 -0.9471
 7092TIP3    H242692   0.489   5.754   3.922 -0.8962  0.1531  1.6515
 7093TIP3   OH242693   0.342   4.865  15.630  0.0864  0.3953 -0.3917
 7093TIP3    H142694   0.426   4.883  15.672  1.0238  0.2191 -2.0941
 7093TIP3    H242695   0.285   4.937  15.658  0.1469 -0.5203  2.3483
 7094TIP3   OH242696   4.422   1.981   5.035 -0.5506 -0.3383 -0.1192
 7094TIP3    H142697   4.388   1.900   4.996 -0.9919  0.3780 -1.2754
 7094TIP3    H242698   4.504   1.997   4.989  0.0268 -0.6169  0.7787
 7095TIP3   OH242699   4.022   1.335   4.502 -0.0111  0.0003  0.4460
 7095TIP3    H142700   4.034   1.426   4.477 -1.1717 -0.1296 -0.6817
 7095TIP3    H242701   4.005   1.289   4.420  0.2346 -1.1875  1.0283
 7096TIP3   OH242702   4.724   3.627  14.316  0.5419  0.2083 -0.1969
 7096TIP3    H142703   4.697   3.656  14.403  0.1770  0.9981 -0.5610
 7096TIP3    H242704   4.763   3.541  14.330  0.3611  0.2688  0.7258
 7097TIP3   OH242705   5.016   6.505   5.093  0.4553  0.8049  0.5241
 7097TIP3    H142706   4.972   6.475   5.173 -0.0521  0.9035  0.2842
 7097TIP3    H242707   5.022   6.427   5.039  2.6732  0.2333  1.4734
 7098TIP3   OH242708   4.908   2.442  14.029  0.4308  0.0366  0.3400
 7098TIP3    H142709   4.874   2.511  13.972  0.3421 -0.4440 -0.2058
 7098TIP3    H242710   4.956   2.488  14.098 -0.3775  0.6736  0.4815
 7099TIP3   OH242711   2.195   0.248  16.674 -0.4507  0.3995  0.2894
 7099TIP3    H142712   2.125   0.288  16.724  0.9113  1.5319  1.3885
 7099TIP3    H242713   2.216   0.312  16.606 -0.0805  0.3485  0.3525
 7100TIP3   OH242714   1.032   1.020  15.755 -0.4414 -0.0055  0.1648
 7100TIP3    H142715   1.053   1.091  15.816 -0.0527 -0.1821  0.2354
 7100TIP3    H242716   1.020   0.944  15.811  0.9448 -0.4103 -0.0492
 7101TIP3   OH242717   4.807   2.839  16.576  0.1706  0.1952 -1.0622
 7101TIP3    H142718   4.783   2.900  16.506  0.6549  0.6762 -0.8182
 7101TIP3    H242719   4.898   2.860  16.596 -0.5791  1.6504  1.2914
 7102TIP3   OH242720   3.427   0.176   2.216 -0.3199 -0.0640  0.6700
 7102TIP3    H142721   3.412   0.259   2.171  0.1377  0.6323  1.7610
 7102TIP3    H242722   3.354   0.121   2.189 -0.2455  0.4485 -0.6221
 7103TIP3   OH242723   0.948   3.195   0.182 -0.2602  0.6032  0.1192
 7103TIP3    H142724   0.975   3.103   0.181  1.7958  1.1751 -0.3959
 7103TIP3    H242725   0.874   3.199   0.121 -0.7458 -0.7938  0.5791
 7104TIP3   OH242726   6.024   4.448  15.632  0.1681 -0.2605  0.6844
 7104TIP3    H142727   6.045   4.407  15.548  1.3044 -0.4417  1.0411
 7104TIP3    H242728   6.109   4.476  15.667 -0.2530 -0.4755  1.9179
 7105TIP3   OH242729   4.950   4.375  14.139 -0.0425 -0.0241 -0.6391
 7105TIP3    H142730   5.021   4.406  14.082 -0.0045 -0.7494 -0.9927
 7105TIP3    H242731   4.988   4.303  14.188 -0.2089  0.3115 -0.0012
 7106TIP3   OH242732   1.066   4.955  10.728  0.2811  0.5098  0.5712
 7106TIP3    H142733   1.023   4.871  10.739 -0.6850  0.8933 -0.1949
 7106TIP3    H242734   1.012   5.017  10.778  0.3830  0.8630  0.2523
 7107TIP3   OH242735   3.063   6.473   0.426 -0.1314 -0.0654  0.0964
 7107TIP3    H142736   3.150   6.475   0.387  0.0786  0.4403  0.5714
 7107TIP3    H242737   3.010   6.529   0.370 -0.1215 -0.2628 -0.1133
 7108TIP3   OH242738   3.971   1.701  14.454 -0.0218 -0.1811 -0.4521
 7108TIP3    H142739   4.052   1.751  14.463 -0.7387  1.2859 -1.6516
 7108TIP3    H242740   3.962   1.689  14.359 -0.8886 -0.8679 -0.2862
 7109TIP3   OH242741   6.310   2.966   4.699  0.2979 -0.3121 -0.3496
 7109TIP3    H142742   6.252   2.890   4.695 -2.1368  1.2800  1.3930
 7109TIP3    H242743   6.360   2.953   4.780 -1.7450  0.8727  1.2054
 7110TIP3   OH242744   6.565   2.231   0.031 -0.1582 -0.1051  0.1083
 7110TIP3    H142745   6.503   2.301   0.054  0.2447  0.7535 -1.3169
 7110TIP3    H242746   6.553   2.218  -0.063 -0.0554 -1.8218  0.3045
 7111TIP3   OH242747   5.747   1.921   6.545  0.0809  0.0708 -0.3354
 7111TIP3    H142748   5.692   1.905   6.469  0.3133  2.7368 -1.1693
 7111TIP3    H242749   5.693   1.973   6.605  0.6911  0.1185  0.1959
 7112TIP3   OH242750   1.740   4.393  11.242  0.0249  0.0762  0.0940
 7112TIP3    H142751   1.730   4.466  11.181  0.2985 -1.5120 -1.9470
 7112TIP3    H242752   1.651   4.358  11.252  0.3969 -1.6807 -2.0937
 7113TIP3   OH242753   2.008   3.989   3.162 -0.4911  0.2202  0.1703
 7113TIP3    H142754   1.970   3.948   3.240  1.0369 -0.1942  0.7271
 7113TIP3    H242755   2.101   3.971   3.168 -0.4413 -0.7671 -2.3325
 7114TIP3   OH242756   1.621   4.906   1.543  0.6718  0.4679  0.3776
 7114TIP3    H142757   1.578   4.983   1.505  0.5331  1.2414  2.0153
 7114TIP3    H242758   1.566   4.883   1.618  1.5774 -0.2789  0.8274
 7115TIP3   OH242759   5.251   4.720   2.457 -0.0037  0.4278 -0.1653
 7115TIP3    H142760   5.277   4.696   2.546 -1.0303 -0.4739 -0.0888
 7115TIP3    H242761   5.333   4.727   2.409  0.4759 -1.0226  0.3831
 7116TIP3   OH242762   1.837   6.005   6.420  0.2592  0.0433  0.5890
 7116TIP3    H142763   1.888   5.962   6.352  0.0532 -0.6665  0.8715
 7116TIP3    H242764   1.746   5.989   6.396  0.1476 -2.1859  2.1865
 7117TIP3   OH242765   1.952   3.166   3.808 -0.2713  0.2559  0.2958
 7117TIP3    H142766   1.952   3.219   3.887  0.8609  1.5224 -0.5162
 7117TIP3    H242767   1.864   3.127   3.805 -1.3363  2.4826  0.6561
 7118TIP3   OH242768   5.020   4.445  16.137 -0.5034 -0.5180  0.2810
 7118TIP3    H142769   5.067   4.444  16.053  0.7679  1.2947  0.9286
 7118TIP3    H242770   5.054   4.368  16.184 -3.1813 -3.2131 -1.7647
 7119TIP3   OH242771   6.134   0.221   4.421 -0.5608  0.2102 -0.3226
 7119TIP3    H142772   6.202   0.213   4.488 -0.6147  1.5892 -0.0915
 7119TIP3    H242773   6.069   0.155   4.446  1.3209 -2.2477 -1.3978
 7120TIP3   OH242774   5.902   2.528  16.422 -0.2346  0.4687 -0.3203
 7120TIP3    H142775   5.931   2.437  16.419  1.1463  0.8276  0.8111
 7120TIP3    H242776   5.886   2.551  16.331 -0.2152 -0.7812 -0.6642
 7121TIP3   OH242777   4.975   5.265   0.967  0.1340  0.0729 -0.0363
 7121TIP3    H142778   4.936   5.259   0.879  1.6768 -0.1750 -0.7307
 7121TIP3    H242779   4.928   5.200   1.018  2.0863 -3.0026 -1.8327
 7122TIP3   OH242780   6.240   6.704  14.422 -0.0523 -0.1650  0.0065
 7122TIP3    H142781   6.241   6.799  14.424  0.6841 -0.1602  2.0013
 7122TIP3    H242782   6.295   6.681  14.347 -0.6226  0.9587 -0.7817
 7123TIP3   OH242783   3.969   6.048  12.697 -0.0246  0.6632 -0.2727
 7123TIP3    H142784   3.944   6.067  12.788 -0.0439  1.3135 -0.4147
 7123TIP3    H242785   4.011   5.962  12.702 -0.7931  0.3026  0.2272
 7124TIP3   OH242786   1.245   6.210   5.070  0.3178  0.0004 -0.2379
 7124TIP3    H142787   1.309   6.250   5.130  0.9541  1.2539 -1.6926
 7124TIP3    H242788   1.230   6.123   5.107  2.2770 -0.0496  0.6083
 7125TIP3   OH242789   0.769   2.600  14.979  0.0643 -0.5928  0.2582
 7125TIP3    H142790   0.702   2.533  14.968 -1.5756  1.0509 -0.3780
 7125TIP3    H242791   0.832   2.583  14.909 -1.4120 -0.2905 -1.2073
 7126TIP3   OH242792   1.780   5.347   0.482 -0.1336 -0.0401  0.1779
 7126TIP3    H142793   1.832   5.415   0.524 -1.0839  0.1474  1.0575
 7126TIP3    H242794   1.694   5.385   0.470  0.0601 -0.1021 -1.9061
 7127TIP3   OH242795   4.431   2.806   1.576 -0.2093 -0.0160 -0.4759
 7127TIP3    H142796   4.499   2.857   1.531  0.3314  0.0763  0.4127
 7127TIP3    H242797   4.398   2.745   1.510  1.5851 -0.8928 -0.6278
 7128TIP3   OH242798   6.075   1.262  15.231  0.6736  0.0748  0.3478
 7128TIP3    H142799   6.164   1.291  15.253  1.9502 -2.2363 -1.2360
 7128TIP3    H242800   6.055   1.307  15.149  0.9475 -0.3733  0.0286
 7129TIP3   OH242801   1.832   0.280  14.574  0.1513  0.3293 -0.3946
 7129TIP3    H142802   1.824   0.241  14.662 -2.2583  0.1659 -0.6032
 7129TIP3    H242803   1.860   0.370  14.590  0.4127  0.0971  0.5078
 7130TIP3   OH242804   3.655   0.134   1.879  0.8099  0.1279 -1.4007
 7130TIP3    H142805   3.747   0.136   1.853  1.2325 -0.1304 -0.0197
 7130TIP3    H242806   3.640   0.219   1.921 -0.0481  0.8209 -3.0274
 7131TIP3   OH242807   1.988   2.958   5.547 -0.3386  0.8294  0.3177
 7131TIP3    H142808   2.074   2.945   5.507 -0.3938  0.8491  0.1935
 7131TIP3    H242809   1.936   2.885   5.516  0.1448 -0.1964  1.8231
 7132TIP3   OH242810   3.160   1.870  12.029  0.0255  0.0175  0.3082
 7132TIP3    H142811   3.253   1.846  12.023 -0.0932 -0.3825 -0.0566
 7132TIP3    H242812   3.159   1.952  12.078  0.6443  0.4658 -0.3947
 7133TIP3   OH242813   5.411   0.070  11.756 -0.5143 -0.5183  0.2065
 7133TIP3    H142814   5.327   0.067  11.802 -1.0791 -1.1505 -0.8276
 7133TIP3    H242815   5.416   0.160  11.722 -0.7812 -0.4804  0.2605
 7134TIP3   OH242816   5.180   4.518   0.775  0.3446  0.1787  0.2103
 7134TIP3    H142817   5.125   4.443   0.750  0.4034 -0.4290  1.8124
 7134TIP3    H242818   5.129   4.564   0.842  0.5303  1.3092 -0.3950
 7135TIP3   OH242819   6.698   6.492  14.948  0.3613  0.0413  0.1032
 7135TIP3    H142820   6.785   6.495  14.908  1.6563 -1.5680  2.5741
 7135TIP3    H242821   6.665   6.405  14.925 -0.7271  0.6947 -0.9430
 7136TIP3   OH242822   6.612   5.926   3.242 -0.1512  0.2583 -0.0103
 7136TIP3    H142823   6.567   5.969   3.170 -0.0793  1.6409  0.7391
 7136TIP3    H242824   6.613   5.833   3.218 -3.6563  0.0643  0.0722
 7137TIP3   OH242825   6.060   2.937  15.397  0.2033  0.1872  0.5125
 7137TIP3    H142826   5.982   2.917  15.347 -0.2362 -0.6181  1.4823
 7137TIP3    H242827   6.122   2.971  15.333 -0.9294  0.8430 -0.2750
 7138TIP3   OH242828   4.676   5.054   4.259 -0.4383  0.7069 -0.1094
 7138TIP3    H142829   4.721   5.138   4.256  0.2242  0.3525 -0.2859
 7138TIP3    H242830   4.714   5.009   4.335  1.2097 -0.5147 -1.5771
 7139TIP3   OH242831   3.847   6.006  12.939  0.2380  0.1198 -0.3104
 7139TIP3    H142832   3.840   5.925  12.989  0.5078 -1.0834 -2.1408
 7139TIP3    H242833   3.763   6.014  12.894  0.3937  0.5982 -0.5261
 7140TIP3   OH242834   5.627   5.151   1.138 -0.2391  0.5166  0.0269
 7140TIP3    H142835   5.675   5.072   1.163 -0.0034  1.5517  3.2542
 7140TIP3    H242836   5.543   5.118   1.105  0.3451 -1.1139  0.0732
 7141TIP3   OH242837   4.473   3.587   5.654  0.3227  0.0780 -0.2466
 7141TIP3    H142838   4.534   3.552   5.720  0.1935  1.1564  0.4611
 7141TIP3    H242839   4.530   3.618   5.584  0.4315 -1.7304 -1.0031
 7142TIP3   OH242840   3.836   4.243  10.728 -0.5773 -0.2187 -0.1182
 7142TIP3    H142841   3.873   4.197  10.803  1.1965  0.6494 -0.4025
 7142TIP3    H242842   3.893   4.319  10.716 -2.3777  1.0941 -0.7467
 7143TIP3   OH242843   1.031   4.465  11.789 -0.3768  0.0846  0.5066
 7143TIP3    H142844   0.970   4.433  11.854 -0.5182  0.5219  0.5923
 7143TIP3    H242845   0.980   4.470  11.708  0.0299 -1.3198  0.1417
 7144TIP3   OH242846   4.205   4.820   5.495  0.4900  0.3143 -0.0499
 7144TIP3    H142847   4.147   4.803   5.569  0.0490  0.9332 -0.2473
 7144TIP3    H242848   4.146   4.842   5.422  0.8995 -0.6134 -0.6875
 7145TIP3   OH242849   5.173   1.775  13.783  0.3654  0.0139 -0.1866
 7145TIP3    H142850   5.112   1.713  13.742 -0.2459 -0.9830  2.0695
 7145TIP3    H242851   5.129   1.860  13.776  0.8303  0.1282 -2.5786
 7146TIP3   OH242852   4.998   0.090   1.867  0.8432 -0.2132  0.4652
 7146TIP3    H142853   5.086   0.059   1.843  0.0910 -1.8854 -0.2814
 7146TIP3    H242854   4.952   0.011   1.895 -0.3107  0.7213  1.2687
 7147TIP3   OH242855   2.562   2.839  12.127 -0.3047  0.1385  0.3235
 7147TIP3    H142856   2.641   2.801  12.165 -0.6587 -3.1102 -1.8054
 7147TIP3    H242857   2.489   2.800  12.175 -0.6715  0.8245  0.3486
 7148TIP3   OH242858   5.205   3.369  11.795 -0.4585  0.0633  0.4324
 7148TIP3    H142859   5.220   3.359  11.889  0.3543 -0.0853  0.2919
 7148TIP3    H242860   5.176   3.460  11.784  0.7969  0.5105  0.6689
 7149TIP3   OH242861   1.149   6.343   0.100  0.3096 -0.4052  0.0585
 7149TIP3    H142862   1.121   6.272   0.042  1.5379  0.3051 -1.4671
 7149TIP3    H242863   1.135   6.309   0.189 -1.6781 -1.5050 -0.6166
 7150TIP3   OH242864   6.109   4.388  16.257  0.3449  0.5430  0.4784
 7150TIP3    H142865   6.023   4.355  16.282 -1.0331  2.4099 -1.4652
 7150TIP3    H242866   6.126   4.459  16.319 -0.6551  1.7118 -0.5258
 7151TIP3   OH242867   2.590   0.252   0.333  0.2728  0.3607  0.0137
 7151TIP3    H142868   2.500   0.228   0.315  0.6869 -0.7508 -0.6766
 7151TIP3    H242869   2.592   0.348   0.324 -1.4649  0.8010  3.0504
 7152TIP3   OH242870   1.694   5.142  13.687 -0.4303 -0.1859  0.0023
 7152TIP3    H142871   1.670   5.110  13.774 -0.3939  0.5228  0.2822
 7152TIP3    H242872   1.785   5.171  13.696 -0.8656  1.2331  0.1339
 7153TIP3   OH242873   6.491   0.218  10.325  0.4742  0.4855  0.1812
 7153TIP3    H142874   6.461   0.301  10.362 -0.2392  0.0798  0.5408
 7153TIP3    H242875   6.540   0.177  10.396 -1.8880 -0.8249  1.1702
 7154TIP3   OH242876   1.285   4.681   5.809 -0.1109  0.2425  0.5330
 7154TIP3    H142877   1.198   4.693   5.772  0.2398  2.7831  0.3598
 7154TIP3    H242878   1.278   4.600   5.860 -2.7955  0.7523  1.1539
 7155TIP3   OH242879   1.615   0.103   5.442 -0.2572 -0.1470  0.6065
 7155TIP3    H142880   1.649   0.111   5.531 -0.2159  0.4323  0.5456
 7155TIP3    H242881   1.689   0.069   5.391 -0.1070  0.0516  0.6891
 7156TIP3   OH242882   6.715   4.307   4.428  0.7899  0.4594 -0.6180
 7156TIP3    H142883   6.707   4.246   4.355 -0.1282  0.0416 -0.1901
 7156TIP3    H242884   6.778   4.266   4.487 -1.1260 -1.0011  0.5193
 7157TIP3   OH242885   6.012   2.495   1.378 -0.1637  0.2635 -0.3643
 7157TIP3    H142886   5.995   2.440   1.455  1.3135  0.3201  0.0322
 7157TIP3    H242887   5.956   2.458   1.310 -0.0113 -1.0702  0.1934
 7158TIP3   OH242888   1.401   2.252  11.736 -0.2205  0.0414  0.1639
 7158TIP3    H142889   1.347   2.208  11.670 -0.2315  0.5379 -0.1706
 7158TIP3    H242890   1.362   2.226  11.820 -0.8648  0.2339 -0.0657
 7159TIP3   OH242891   2.981   1.895  11.494 -0.1925 -0.4073 -0.0369
 7159TIP3    H142892   2.942   1.833  11.556  0.8922 -0.6585  0.4265
 7159TIP3    H242893   3.021   1.962  11.550 -1.3617  0.7358 -0.5291
 7160TIP3   OH242894   0.352   5.691   4.891  0.0286 -0.1248  0.2946
 7160TIP3    H142895   0.287   5.704   4.960  0.9143  2.2079  0.7712
 7160TIP3    H242896   0.313   5.732   4.814 -0.2248 -1.2260 -0.1888
 7161TIP3   OH242897   6.042   1.116  11.341 -0.0310  0.8023 -0.8115
 7161TIP3    H142898   6.118   1.070  11.308 -0.3887  0.1402 -0.7271
 7161TIP3    H242899   5.994   1.142  11.263 -3.1905 -4.5267 -1.1248
 7162TIP3   OH242900   5.073   2.227   3.569  0.1804  0.0184 -0.3982
 7162TIP3    H142901   5.068   2.145   3.619 -0.4951  0.2631 -0.0512
 7162TIP3    H242902   5.164   2.232   3.540  0.8125  0.2878  1.5331
 7163TIP3   OH242903   1.626   6.023  11.642 -0.3420 -0.7302  0.0311
 7163TIP3    H142904   1.682   6.098  11.620 -0.8898 -0.1835  0.4787
 7163TIP3    H242905   1.684   5.964  11.690 -0.0319 -0.3758  0.0971
 7164TIP3   OH242906   4.276   4.592  10.784  0.2669  0.1730  0.3897
 7164TIP3    H142907   4.227   4.540  10.721  0.4576  0.4069  0.0474
 7164TIP3    H242908   4.211   4.652  10.821  0.1942  0.1585  0.2863
 7165TIP3   OH242909   5.679   4.927  15.999  0.3360  0.4418 -0.0212
 7165TIP3    H142910   5.595   4.943  15.958  0.7358  1.4082 -0.4977
 7165TIP3    H242911   5.658   4.904  16.090 -0.5081 -0.9688 -0.5453
 7166TIP3   OH242912   4.772   2.119   3.481  0.2697 -0.7754 -0.1600
 7166TIP3    H142913   4.707   2.099   3.413 -0.7610  0.0079  0.5764
 7166TIP3    H242914   4.776   2.039   3.533 -1.6304 -0.2111  0.9807
 7167TIP3   OH242915   1.619   4.193  16.875 -0.3328 -0.2412  0.2033
 7167TIP3    H142916   1.559   4.267  16.888  0.1875  0.2583 -0.2359
 7167TIP3    H242917   1.562   4.122  16.843 -1.0071 -0.3585  1.5964
 7168TIP3   OH242918   5.415   5.803  16.531 -0.2065 -0.7696 -0.1901
 7168TIP3    H142919   5.324   5.827  16.517  0.4442  1.5454 -0.7867
 7168TIP3    H242920   5.441   5.853  16.609 -0.5778 -4.7848  2.8873
 7169TIP3   OH242921   3.541   2.739  14.044  0.1745 -0.0274  0.5362
 7169TIP3    H142922   3.452   2.753  14.077 -0.5041 -0.9054 -0.7863
 7169TIP3    H242923   3.567   2.825  14.010 -0.1954  0.2285  0.8863
 7170TIP3   OH242924   5.235   5.913  14.275  0.3813  0.3059 -0.0273
 7170TIP3    H142925   5.143   5.936  14.269 -0.3871 -2.5704 -0.5714
 7170TIP3    H242926   5.266   5.912  14.185  0.4874 -0.3646  0.0125
 7171TIP3   OH242927   5.481   2.448   2.360  0.0485 -0.2194 -0.8746
 7171TIP3    H142928   5.434   2.366   2.378 -0.2915  0.5206  2.0312
 7171TIP3    H242929   5.422   2.497   2.302 -0.9973 -0.9120 -0.4245
 7172TIP3   OH242930   1.787   3.250  14.677  0.1954  0.0570  0.6236
 7172TIP3    H142931   1.847   3.273  14.606 -1.2844  0.7429 -0.4435
 7172TIP3    H242932   1.845   3.226  14.750  1.7663  1.0488 -0.2375
 7173TIP3   OH242933   4.865   4.880  16.945 -0.3995 -0.2354 -0.1355
 7173TIP3    H142934   4.806   4.849  17.013  0.2870 -0.3965  0.4030
 7173TIP3    H242935   4.948   4.835  16.963 -0.5074 -1.1566 -1.7575
 7174TIP3   OH242936   0.388   5.684  15.403 -0.2789  0.1663 -0.2402
 7174TIP3    H142937   0.446   5.730  15.342  0.1182  0.8437  0.6164
 7174TIP3    H242938   0.309   5.665  15.353  0.9970 -1.6120 -1.7443
 7175TIP3   OH242939   5.183   0.969  12.030  0.0192  0.3043  0.0681
 7175TIP3    H142940   5.124   0.894  12.025  0.9939 -0.6267  1.7204
 7175TIP3    H242941   5.213   0.981  11.940 -0.3089 -1.1653 -0.2661
 7176TIP3   OH242942   1.128   4.701  12.572 -0.0468  0.4109  0.1633
 7176TIP3    H142943   1.086   4.784  12.549  0.8437  1.6158  2.5353
 7176TIP3    H242944   1.083   4.673  12.652 -0.0609 -1.2326 -0.3816
 7177TIP3   OH242945   2.181   6.676   2.678 -0.0926  0.0116 -0.6133
 7177TIP3    H142946   2.215   6.626   2.604 -1.5669  0.3925 -1.5840
 7177TIP3    H242947   2.086   6.672   2.669 -0.4609 -1.8407  2.5544
 7178TIP3   OH242948   0.905   6.523   4.261  0.4019  0.3729 -0.2242
 7178TIP3    H142949   0.963   6.596   4.241  2.2183 -0.7714  0.5493
 7178TIP3    H242950   0.821   6.564   4.283  1.2948  2.1938 -0.0120
 7179TIP3   OH242951   4.396   0.531   0.470  0.1695 -0.8221  0.4000
 7179TIP3    H142952   4.422   0.603   0.411  2.6564 -1.4450  0.6089
 7179TIP3    H242953   4.318   0.494   0.429  0.0543  0.6604 -0.8512
 7180TIP3   OH242954   6.619   4.186   3.335 -0.4717 -0.1574 -0.0813
 7180TIP3    H142955   6.588   4.275   3.348 -0.1234 -0.1462  0.7055
 7180TIP3    H242956   6.598   4.140   3.416  0.5756 -0.4268  0.0616
 7181TIP3   OH242957   6.331   6.524  10.889  0.5553  0.7630  0.6338
 7181TIP3    H142958   6.338   6.558  10.978  0.0483  1.5730  0.3694
 7181TIP3    H242959   6.419   6.530  10.853  0.3862  2.3315  0.4112
 7182TIP3   OH242960   4.164   4.448  15.772  0.0874  0.2942  0.4822
 7182TIP3    H142961   4.191   4.540  15.762 -0.9062  0.5769  0.3466
 7182TIP3    H242962   4.242   4.405  15.808  0.8953  0.9820 -0.3913
 7183TIP3   OH242963   6.329   2.347   5.494 -0.3824  0.6949 -0.0745
 7183TIP3    H142964   6.287   2.416   5.443 -1.7738 -0.4229 -0.4986
 7183TIP3    H242965   6.260   2.311   5.549  0.1983 -0.6372 -0.1750
 7184TIP3   OH242966   5.651   6.417   4.569 -0.7712 -0.6611  0.5813
 7184TIP3    H142967   5.587   6.356   4.604 -0.5540 -2.6166 -2.0836
 7184TIP3    H242968   5.616   6.443   4.484  1.7577 -1.6756 -0.9159
 7185TIP3   OH242969   2.941   0.314   1.021  0.0282  0.0799 -1.3283
 7185TIP3    H142970   2.906   0.310   0.932 -1.9387 -0.7634 -0.5777
 7185TIP3    H242971   2.891   0.249   1.069 -1.1017  2.5632  1.1116
 7186TIP3   OH242972   4.383   6.334   3.982  0.0547 -0.2645  0.5198
 7186TIP3    H142973   4.447   6.383   4.034 -0.8847  0.4773  0.9896
 7186TIP3    H242974   4.309   6.394   3.971  0.0957 -0.4900 -1.4430
 7187TIP3   OH242975   1.426   2.549  16.830  0.8608  0.2430 -0.4649
 7187TIP3    H142976   1.449   2.508  16.746  0.0333  1.2533 -1.2071
 7187TIP3    H242977   1.478   2.501  16.895  1.4971 -0.5780 -1.5456
 7188TIP3   OH242978   5.695   1.674   4.386  0.1777 -0.4665  0.1614
 7188TIP3    H142979   5.748   1.748   4.415 -2.0239  0.9975  0.6587
 7188TIP3    H242980   5.640   1.710   4.316 -1.1420 -1.5433  0.6045
 7189TIP3   OH242981   6.458   3.372  16.790 -0.1866  0.2442 -0.2739
 7189TIP3    H142982   6.533   3.392  16.845 -1.3940 -0.1116  1.6124
 7189TIP3    H242983   6.387   3.425  16.826 -1.1314 -0.2997 -1.2578
 7190TIP3   OH242984   5.226   5.956  12.617  0.7057 -0.3297 -0.4342
 7190TIP3    H142985   5.312   5.917  12.601  1.0295 -1.0517  2.4485
 7190TIP3    H242986   5.243   6.049  12.627  0.8041 -0.1796 -1.8767
 7191TIP3   OH242987   6.444   0.105  15.649 -0.2773 -0.1913  0.4285
 7191TIP3    H142988   6.359   0.095  15.692 -0.1553  0.0546  0.7313
 7191TIP3    H242989   6.438   0.051  15.570 -0.0473 -1.7299  1.4255
 7192TIP3   OH242990   1.280   4.599   5.182 -0.3111  0.0990  0.0954
 7192TIP3    H142991   1.294   4.504   5.187 -1.8448 -0.0949  1.6363
 7192TIP3    H242992   1.196   4.608   5.138 -0.9238  0.6450  1.3340
 7193TIP3   OH242993   0.202   5.676   3.609 -0.2774 -0.3456 -0.6855
 7193TIP3    H142994   0.143   5.671   3.534 -0.9441 -0.5456 -0.1547
 7193TIP3    H242995   0.245   5.590   3.612 -1.5384 -0.9747  0.1870
 7194TIP3   OH242996   1.015   3.855  12.711  0.0960 -0.1786  0.1037
 7194TIP3    H142997   1.008   3.760  12.723 -1.1225 -0.3669 -1.8162
 7194TIP3    H242998   0.926   3.883  12.688  0.4226  1.4596  0.7085
 7195TIP3   OH242999   5.780   1.095  14.456  0.2228  0.3569  0.2967
 7195TIP3    H143000   5.843   1.075  14.387 -0.6669  0.3831 -0.5516
 7195TIP3    H243001   5.833   1.117  14.533  1.2283  0.0456 -0.2985
 7196TIP3   OH243002   5.201   3.162  14.582 -0.4170  0.0287 -0.9466
 7196TIP3    H143003   5.174   3.111  14.659 -1.1363  0.3146 -1.0009
 7196TIP3    H243004   5.138   3.137  14.514  1.3295 -1.6715 -2.0424
 7197TIP3   OH243005   3.997   1.670  16.460  1.1730  0.7132  0.0735
 7197TIP3    H143006   3.959   1.757  16.446  0.1270  0.0459 -1.5721
 7197TIP3    H243007   4.076   1.685  16.511  1.2036  2.6621 -0.5043
 7198TIP3   OH243008   3.010   4.538  13.294  0.0958  1.0055  0.3597
 7198TIP3    H143009   3.089   4.501  13.333  0.2067 -1.1212 -1.7039
 7198TIP3    H243010   3.030   4.548  13.201 -2.4684 -1.0283 -0.5492
 7199TIP3   OH243011   0.008   2.653   3.938  0.1889  0.5705 -0.5020
 7199TIP3    H143012   0.035   2.581   3.883 -1.0276 -0.4749  0.2191
 7199TIP3    H243013   0.090   2.693   3.968  0.8714 -0.4769 -0.9449
 7200TIP3   OH243014   4.941   2.164   6.499 -0.5192  0.2888  0.3039
 7200TIP3    H143015   4.986   2.088   6.536 -0.3027  0.1768 -0.1818
 7200TIP3    H243016   5.005   2.235   6.506 -0.6590  0.3858  0.5996
 7201TIP3   OH243017   1.745   5.641   1.886 -0.2063 -0.1323 -0.2498
 7201TIP3    H143018   1.698   5.559   1.867 -0.4709 -0.3040  1.0248
 7201TIP3    H243019   1.719   5.700   1.816 -0.8302 -0.8207 -0.6190
 7202TIP3   OH243020   4.509   3.253   2.569 -0.3238 -0.3110 -0.4111
 7202TIP3    H143021   4.560   3.329   2.541  1.4072 -1.1424  0.2960
 7202TIP3    H243022   4.440   3.290   2.625  0.0347  0.7955 -0.6639
 7203TIP3   OH243023   2.815   5.321  16.720  0.4719  0.1812  0.1841
 7203TIP3    H143024   2.826   5.267  16.642  1.5230  2.6554 -1.5357
 7203TIP3    H243025   2.899   5.317  16.765  1.1376  1.5496 -0.8413
 7204TIP3   OH243026   2.470   4.014  12.508  0.6128  0.3182  0.1602
 7204TIP3    H143027   2.435   4.062  12.583  2.7438 -0.1264  1.5570
 7204TIP3    H243028   2.412   4.035  12.436 -1.0044  1.5172  1.7280
 7205TIP3   OH243029   2.253   6.039  16.795 -0.1904  0.7912 -0.4292
 7205TIP3    H143030   2.217   6.122  16.826  1.0420  0.8700  0.9241
 7205TIP3    H243031   2.195   5.972  16.831 -0.2479  1.0013 -0.1282
 7206TIP3   OH243032   6.696   2.692   3.446 -0.7662 -0.2028 -0.4117
 7206TIP3    H143033   6.648   2.775   3.438 -0.5312  0.0222  0.4814
 7206TIP3    H243034   6.781   2.716   3.482 -0.1980 -0.6844 -1.3837
 7207TIP3   OH243035   1.252   3.541  12.823 -0.4327  0.3880 -0.3355
 7207TIP3    H143036   1.276   3.618  12.771  1.7497  0.2771  0.4410
 7207TIP3    H243037   1.333   3.491  12.832 -1.3690 -1.0113  0.8587
 7208TIP3   OH243038   4.587   3.685   2.078  0.1517  0.7017  0.0432
 7208TIP3    H143039   4.636   3.605   2.100  0.5735  0.8436 -0.3749
 7208TIP3    H243040   4.651   3.743   2.038 -0.1947  1.1883  0.1756
 7209TIP3   OH243041   3.880   4.596   5.350 -0.2447  0.3959 -0.0625
 7209TIP3    H143042   3.906   4.661   5.416 -0.5968  1.7846 -1.2291
 7209TIP3    H243043   3.807   4.637   5.304 -2.1115 -1.8636  0.7048
 7210TIP3   OH243044   6.280   6.338  12.861  0.3748 -0.2938 -0.2674
 7210TIP3    H143045   6.366   6.360  12.896  0.4985 -0.0122 -0.7356
 7210TIP3    H243046   6.293   6.255  12.816  0.1372 -0.8325  0.6409
 7211TIP3   OH243047   6.625   5.190   0.910 -0.1413 -0.0073 -0.3047
 7211TIP3    H143048   6.679   5.163   0.984 -1.7043  0.7798  1.1884
 7211TIP3    H243049   6.621   5.113   0.853  1.2423 -0.5624  0.3133
 7212TIP3   OH243050   6.201   3.618  12.439 -0.3281 -0.2387  0.0063
 7212TIP3    H143051   6.238   3.589  12.522 -1.7435 -2.0441  0.0602
 7212TIP3    H243052   6.145   3.692  12.462  1.8574  1.4760  0.1331
 7213TIP3   OH243053   0.684   2.432  10.816  0.0662 -0.8541 -0.6459
 7213TIP3    H143054   0.687   2.337  10.814 -0.0056 -0.9341  1.4235
 7213TIP3    H243055   0.767   2.459  10.776 -0.7108 -1.6949 -2.9701
 7214TIP3   OH243056   4.207   3.262   3.970  0.3403 -0.0646 -0.3909
 7214TIP3    H143057   4.178   3.225   3.886  1.5331  1.3345 -1.4711
 7214TIP3    H243058   4.299   3.284   3.955 -0.1135  2.6123  0.4122
 7215TIP3   OH243059   1.119   4.899  13.135 -0.0153 -1.1728  0.2404
 7215TIP3    H143060   1.048   4.835  13.137  0.9020 -2.2935  3.2265
 7215TIP3    H243061   1.198   4.847  13.154  1.6880  0.0298 -2.8594
 7216TIP3   OH243062   4.289   6.499   4.455  0.6177 -0.0591  0.2049
 7216TIP3    H143063   4.345   6.572   4.479 -1.7397  1.6666  0.7513
 7216TIP3    H243064   4.207   6.539   4.427 -0.4423 -2.4670 -0.4279
 7217TIP3   OH243065   0.593   5.318   0.267 -0.0073  0.2738  0.1646
 7217TIP3    H143066   0.618   5.319   0.175  2.9132  2.3995  0.8362
 7217TIP3    H243067   0.522   5.381   0.274 -2.5067 -2.1775 -0.9909
 7218TIP3   OH243068   0.658   0.567   2.262  0.5928 -0.0725 -0.4654
 7218TIP3    H143069   0.586   0.546   2.321  0.3552 -0.6375 -0.9412
 7218TIP3    H243070   0.622   0.635   2.204  0.0683 -1.1101 -1.3904
 7219TIP3   OH243071   5.609   0.684   1.033 -0.3206 -0.6617  0.1416
 7219TIP3    H143072   5.614   0.764   0.980 -0.6824 -0.7269  0.0103
 7219TIP3    H243073   5.675   0.626   0.996  0.7282 -0.0183  0.9247
 7220TIP3   OH243074   6.682   3.022  13.374  0.2717  0.3722 -0.3013
 7220TIP3    H143075   6.706   2.934  13.343  0.5379  0.5081 -0.4860
 7220TIP3    H243076   6.659   3.070  13.294  0.0586  0.4525 -0.1939
 7221TIP3   OH243077   0.801   3.562  11.500  0.6359 -0.8849  0.2004
 7221TIP3    H143078   0.708   3.582  11.492  1.4917  3.3322 -1.7171
 7221TIP3    H243079   0.817   3.560  11.595 -0.9534  1.0492  0.5585
 7222TIP3   OH243080   1.662   3.849   0.562  0.7924 -0.4657 -0.1013
 7222TIP3    H143081   1.742   3.893   0.534  0.0789  0.4625 -0.7790
 7222TIP3    H243082   1.692   3.776   0.616  2.1890 -1.4123 -2.0303
 7223TIP3   OH243083   6.213   3.941  15.895  0.0327 -0.1015  0.0500
 7223TIP3    H143084   6.216   3.984  15.980  0.4971  0.4254 -0.2248
 7223TIP3    H243085   6.302   3.946  15.862  0.9515 -4.0797  1.3467
 7224TIP3   OH243086   0.298   4.750  14.177  0.2880  0.6711  0.3052
 7224TIP3    H143087   0.251   4.827  14.145  0.9305  0.9190 -0.0633
 7224TIP3    H243088   0.229   4.690  14.206 -0.5455 -0.4710 -3.5131
 7225TIP3   OH243089   5.275   1.630   2.192  0.1114 -0.7119 -0.6588
 7225TIP3    H143090   5.217   1.592   2.125 -1.3136  0.9983 -0.4601
 7225TIP3    H243091   5.313   1.554   2.236 -2.1194 -1.9282 -0.6886
 7226TIP3   OH243092   5.160   4.753  14.322 -0.0166  0.1987 -0.8434
 7226TIP3    H143093   5.165   4.771  14.416  0.1842  0.0667 -0.8285
 7226TIP3    H243094   5.067   4.736  14.306 -0.0402  0.1382 -0.6525
 7227TIP3   OH243095   0.229   2.607   3.402 -0.4215  0.6012  0.2596
 7227TIP3    H143096   0.317   2.640   3.421  0.0817 -0.4741 -0.1326
 7227TIP3    H243097   0.185   2.605   3.487 -0.1724  1.3998  0.4179
 7228TIP3   OH243098   1.763   3.605   0.685  0.7749  0.2021  0.0387
 7228TIP3    H143099   1.740   3.544   0.614 -0.2013  0.3726  0.2048
 7228TIP3    H243100   1.723   3.568   0.763  2.0109 -0.0889  0.5708
 7229TIP3   OH243101   0.932   4.894   6.340  0.3485  0.3925  0.0749
 7229TIP3    H143102   0.864   4.875   6.276  0.5102 -0.4816  0.1365
 7229TIP3    H243103   0.970   4.977   6.312 -1.3324  1.3658  0.5537
 7230TIP3   OH243104   1.653   2.956  13.046 -0.1589 -0.4421  0.3990
 7230TIP3    H143105   1.708   3.034  13.053 -0.0096 -0.3322 -1.5239
 7230TIP3    H243106   1.566   2.989  13.025 -1.0150 -0.6319  3.1672
 7231TIP3   OH243107   4.954   2.495   4.216 -0.3490 -0.4175 -0.2718
 7231TIP3    H143108   4.887   2.477   4.281 -2.1159  2.2149 -1.1740
 7231TIP3    H243109   4.942   2.427   4.149 -0.1651 -1.6465  0.9016
 7232TIP3   OH243110   3.183   6.710  10.431  0.7579 -0.0248  1.1000
 7232TIP3    H143111   3.104   6.681  10.477  0.7963 -0.9152  0.6184
 7232TIP3    H243112   3.179   6.667  10.346 -0.0783  2.7439 -0.3869
 7233TIP3   OH243113   0.348   5.428   5.568 -0.3171 -0.1003  0.5606
 7233TIP3    H143114   0.267   5.384   5.596 -0.4049 -1.5289 -1.6609
 7233TIP3    H243115   0.326   5.521   5.569 -0.8712 -0.1959  3.1884
 7234TIP3   OH243116   4.052   4.408  10.722 -0.3685 -0.1632 -0.1225
 7234TIP3    H143117   4.129   4.381  10.772 -1.6839 -1.3034  1.3674
 7234TIP3    H243118   4.082   4.409  10.631  1.4320 -0.4223  0.4265
 7235TIP3   OH243119   3.406   4.521   2.958  0.7463 -0.1386 -0.3049
 7235TIP3    H143120   3.419   4.427   2.970  1.5989 -0.0726 -0.6391
 7235TIP3    H243121   3.471   4.546   2.892  0.9136  0.7867  0.1907
 7236TIP3   OH243122   2.650   6.627   5.831  0.4367 -0.1060 -0.1247
 7236TIP3    H143123   2.689   6.703   5.874  1.7360  0.2502 -1.8478
 7236TIP3    H243124   2.633   6.566   5.902  2.3100  0.5412  0.9417
 7237TIP3   OH243125   1.635   5.319   6.065  0.1939 -0.2609  0.3424
 7237TIP3    H143126   1.711   5.290   6.016 -0.8462  1.1443 -2.2837
 7237TIP3    H243127   1.581   5.240   6.073  1.2618 -0.9499  1.0291
 7238TIP3   OH243128   4.708   1.714  12.631  0.0589 -0.4025 -0.0784
 7238TIP3    H143129   4.771   1.702  12.560 -0.5050  1.3563 -0.9420
 7238TIP3    H243130   4.761   1.737  12.707  0.5342 -0.2330 -0.4580
 7239TIP3   OH243131   1.708   1.165   5.771 -0.1122  0.0939  0.0293
 7239TIP3    H143132   1.725   1.194   5.860  1.0768 -0.9963  0.1839
 7239TIP3    H243133   1.642   1.097   5.780 -0.7373  0.6832 -0.0367
 7240TIP3   OH243134   0.784   6.508   0.158  0.0305 -0.8460 -0.2084
 7240TIP3    H143135   0.788   6.600   0.129  2.0145 -1.3052 -1.5999
 7240TIP3    H243136   0.691   6.488   0.161 -0.3965  0.6113 -1.9663
 7241TIP3   OH243137   5.353   6.559   5.097  0.4386 -0.4028  0.3697
 7241TIP3    H143138   5.411   6.496   5.053  0.0608 -0.8529  0.5103
 7241TIP3    H243139   5.412   6.618   5.143  0.7903 -0.7853  0.4119
 7242TIP3   OH243140   2.170   2.020   6.640 -0.2001  0.1673 -0.2761
 7242TIP3    H143141   2.102   2.074   6.680 -1.9567 -1.9907 -0.2002
 7242TIP3    H243142   2.164   2.039   6.546  0.6082  1.5672 -0.0780
 7243TIP3   OH243143   2.907   4.811  15.663  0.2101 -0.0758 -0.1058
 7243TIP3    H143144   2.814   4.834  15.663 -0.2304 -1.4834  2.3645
 7243TIP3    H243145   2.920   4.768  15.578 -0.6949  2.3351 -1.5823
 7244TIP3   OH243146   5.011   0.175   4.310  0.2287  0.0508  0.5420
 7244TIP3    H143147   5.098   0.213   4.296  2.3890 -4.0194  1.2192
 7244TIP3    H243148   4.993   0.193   4.402  1.7843 -1.4217  1.1932
 7245TIP3   OH243149   5.720   1.915   4.156 -0.1887  0.1461  0.1368
 7245TIP3    H143150   5.658   1.882   4.091 -0.6247 -0.6173  0.9192
 7245TIP3    H243151   5.793   1.949   4.105 -1.3268  1.2337 -0.8130
 7246TIP3   OH243152   0.447   5.729  14.138  0.4566 -0.0983  0.3651
 7246TIP3    H143153   0.504   5.656  14.115  1.0811  0.3741  0.3833
 7246TIP3    H243154   0.432   5.719  14.232 -1.3277 -1.4896 -0.0060
 7247TIP3   OH243155   0.067   1.754  11.545 -0.9255 -0.1899 -0.2845
 7247TIP3    H143156  -0.022   1.789  11.553 -1.0191 -0.3692 -0.5596
 7247TIP3    H243157   0.066   1.674  11.599 -0.5689  0.4868  0.7662
 7248TIP3   OH243158   2.393   6.082  15.498  0.2382 -0.7417 -0.3781
 7248TIP3    H143159   2.346   6.128  15.568  1.7145 -0.2046  0.2952
 7248TIP3    H243160   2.344   6.001  15.487 -0.1856 -0.7341  1.1233
 7249TIP3   OH243161   3.026   2.724   3.647  0.7146 -0.3352 -0.1557
 7249TIP3    H143162   3.056   2.811   3.622  3.6709 -1.1101  0.3258
 7249TIP3    H243163   2.951   2.739   3.703  1.0188  1.8830 -0.2819
 7250TIP3   OH243164   4.749   5.700  14.553 -0.1051  0.2963 -0.3747
 7250TIP3    H143165   4.696   5.663  14.483 -1.6057  0.8297  0.4312
 7250TIP3    H243166   4.821   5.638  14.564 -0.6145 -0.5095 -1.4411
 7251TIP3   OH243167   5.805   5.410  13.192 -0.0241  0.0262 -0.0852
 7251TIP3    H143168   5.836   5.349  13.125  0.3554 -0.0022  0.1142
 7251TIP3    H243169   5.884   5.456  13.221 -0.1261 -0.2217  0.6085
 7252TIP3   OH243170   2.182   6.119   3.988 -0.5738  0.4175 -0.1209
 7252TIP3    H143171   2.240   6.183   3.946 -1.6593  1.7386  0.3314
 7252TIP3    H243172   2.154   6.161   4.069 -0.2524 -1.2030  0.8834
 7253TIP3   OH243173   2.699   4.442   2.583  0.1456  0.4975 -0.3668
 7253TIP3    H143174   2.660   4.383   2.519 -1.1331 -0.3111  1.0690
 7253TIP3    H243175   2.626   4.466   2.640  1.1578  1.4721  0.5705
 7254TIP3   OH243176   5.871   1.108   3.036 -0.8279 -0.1438  0.3510
 7254TIP3    H143177   5.929   1.126   3.110 -0.9727  0.5655  0.2950
 7254TIP3    H243178   5.930   1.086   2.964 -0.6507  0.0190  0.4470
 7255TIP3   OH243179   1.692   2.137  17.080  0.1519 -0.2531 -0.3098
 7255TIP3    H143180   1.665   2.174  17.164 -0.2611 -0.0025 -0.5501
 7255TIP3    H243181   1.629   2.067  17.064 -0.9058  0.8537 -1.2606
 7256TIP3   OH243182   4.084   3.697   4.536 -0.3038 -0.1824 -0.3705
 7256TIP3    H143183   4.013   3.737   4.485 -1.9473 -1.6655  0.6246
 7256TIP3    H243184   4.042   3.625   4.583  1.9988 -1.4810 -0.1312
 7257TIP3   OH243185   3.460   3.446   3.539 -0.1967  0.0586  0.4607
 7257TIP3    H143186   3.453   3.519   3.478  0.1439  0.4565  0.8890
 7257TIP3    H243187   3.432   3.482   3.623  0.2318 -0.2269  0.7278
 7258TIP3   OH243188   2.078   2.167   0.645 -0.5422 -0.4042 -0.2878
 7258TIP3    H143189   2.095   2.232   0.577 -1.0755  0.5540  0.4716
 7258TIP3    H243190   2.116   2.086   0.611  1.2403  0.5583 -0.7354
 7259TIP3   OH243191   0.894   0.573   5.598  0.0566 -0.4185 -0.1762
 7259TIP3    H143192   0.933   0.596   5.682  2.2255 -3.2444 -0.2235
 7259TIP3    H243193   0.830   0.505   5.620 -0.5905  0.0174 -0.6844
 7260TIP3   OH243194   2.262   5.685  15.061 -0.1597 -0.0262 -0.1233
 7260TIP3    H143195   2.227   5.772  15.080 -1.2496 -0.2521 -0.9453
 7260TIP3    H243196   2.258   5.678  14.966  1.6348 -0.3148 -0.2103
 7261TIP3   OH243197   0.006   6.513  16.813  1.0881 -0.6114  0.2667
 7261TIP3    H143198  -0.052   6.570  16.762  2.8041  1.8885  0.9102
 7261TIP3    H243199  -0.047   6.435  16.831 -1.1443  0.4125 -1.3250
 7262TIP3   OH243200   2.173   0.043   0.418  0.6071  0.6274  0.0351
 7262TIP3    H143201   2.123  -0.032   0.386  3.1422 -0.9189 -0.5664
 7262TIP3    H243202   2.130   0.119   0.379 -1.3181 -0.5852 -0.3243
 7263TIP3   OH243203   4.961   3.750  13.583 -0.4738  0.2139  0.1297
 7263TIP3    H143204   4.975   3.656  13.597  2.6620  0.3643 -1.1665
 7263TIP3    H243205   5.023   3.793  13.643 -0.4047  1.3856 -0.7431
 7264TIP3   OH243206   0.599   4.607  13.120  0.7459  0.4061 -0.1308
 7264TIP3    H143207   0.523   4.626  13.176  0.2421  0.1975 -0.7343
 7264TIP3    H243208   0.674   4.635  13.172  0.2989  0.0986  0.7037
 7265TIP3   OH243209   1.539   6.408   1.683  0.8662 -0.3455  0.5317
 7265TIP3    H143210   1.582   6.481   1.726  0.2926  0.1985  0.2054
 7265TIP3    H243211   1.457   6.445   1.649 -0.2464 -1.5018  1.8012
 7266TIP3   OH243212   4.658   0.420   4.494  1.1270 -0.1069  0.2921
 7266TIP3    H143213   4.686   0.347   4.549 -0.4572 -1.7719 -1.0154
 7266TIP3    H243214   4.613   0.379   4.421  0.7178  2.1774 -0.8087
 7267TIP3   OH243215   5.225   2.564  11.772  0.2029 -0.0934  0.5417
 7267TIP3    H143216   5.200   2.628  11.706  0.0452  0.5295  1.2041
 7267TIP3    H243217   5.313   2.536  11.745  1.2873  2.1383  1.5360
 7268TIP3   OH243218   6.494   2.180  14.609 -0.2208  0.0648  0.0913
 7268TIP3    H143219   6.428   2.226  14.662  1.1220 -0.3331  2.2330
 7268TIP3    H243220   6.534   2.248  14.556 -0.7293  0.7334  0.5488
 7269TIP3   OH243221   4.245   3.835   3.277 -0.2229  0.1317 -0.3887
 7269TIP3    H143222   4.299   3.763   3.311  1.4154  1.3607 -0.2344
 7269TIP3    H243223   4.250   3.902   3.346 -2.4626  0.0875 -0.1293
 7270TIP3   OH243224   5.120   3.503   1.740  0.2488 -0.2756 -0.0888
 7270TIP3    H143225   5.212   3.530   1.743  0.0561  0.3381  0.4953
 7270TIP3    H243226   5.122   3.410   1.762  0.7209 -0.2478  0.0006
 7271TIP3   OH243227   0.833   4.710  15.379  0.0519  0.4286 -0.0192
 7271TIP3    H143228   0.763   4.741  15.321 -0.1996  0.2955  0.2093
 7271TIP3    H243229   0.909   4.701  15.323  0.4333  2.5161  0.0904
 7272TIP3   OH243230   4.313   5.249   1.711 -0.0040  0.2829 -0.5545
 7272TIP3    H143231   4.281   5.301   1.637 -0.7596 -1.2434 -1.3596
 7272TIP3    H243232   4.235   5.225   1.760  0.2555 -0.5546 -0.5291
 7273TIP3   OH243233   5.242   3.129   2.294 -0.2497 -0.0833  0.4219
 7273TIP3    H143234   5.306   3.059   2.280 -0.5639 -0.2079 -0.4300
 7273TIP3    H243235   5.185   3.096   2.363 -0.7704 -0.9362 -0.3942
 7274TIP3   OH243236   5.590   6.424  12.336 -0.1480 -0.1372  0.0440
 7274TIP3    H143237   5.502   6.458  12.350 -0.5479 -1.3472  0.6773
 7274TIP3    H243238   5.584   6.373  12.255  0.8492  2.5074 -1.8352
 7275TIP3   OH243239   3.681   5.500  15.383  0.0220 -0.2521 -0.0258
 7275TIP3    H143240   3.727   5.546  15.453 -2.4551  2.0488  0.3095
 7275TIP3    H243241   3.619   5.565  15.349 -0.3938 -1.9617 -2.9070
 7276TIP3   OH243242   4.636   0.232   1.175  0.1116 -0.2631 -0.4793
 7276TIP3    H143243   4.709   0.207   1.117  1.0196  1.3117 -0.0884
 7276TIP3    H243244   4.578   0.284   1.119 -0.3060 -0.8355 -0.5853
 7277TIP3   OH243245   6.168   0.779  13.257 -0.5756 -0.2321 -0.3820
 7277TIP3    H143246   6.195   0.855  13.207  1.4240 -0.1683  0.7081
 7277TIP3    H243247   6.215   0.705  13.218  0.2179 -0.3369  0.7319
 7278TIP3   OH243248   5.890   3.647  14.376 -0.3852 -0.3925  0.4113
 7278TIP3    H143249   5.983   3.652  14.358  0.0138 -2.2476  1.7420
 7278TIP3    H243250   5.851   3.714  14.320  1.7343  0.4667 -0.1038
 7279TIP3   OH243251   2.622   3.605  10.199  0.6869 -0.3894  0.5921
 7279TIP3    H143252   2.689   3.667  10.171  0.5833 -0.7524 -0.5017
 7279TIP3    H243253   2.539   3.651  10.185  0.6375 -0.5368  0.4016
 7280TIP3   OH243254   4.785   2.861   1.593  0.3224 -0.2219  0.2369
 7280TIP3    H143255   4.717   2.849   1.527  1.2961  0.2801 -0.9029
 7280TIP3    H243256   4.806   2.954   1.589  0.5166 -0.2220  1.1423
 7281TIP3   OH243257   2.127   3.875  16.829  0.3427 -0.8078  0.0810
 7281TIP3    H143258   2.220   3.877  16.806  0.4415 -0.0981  0.5378
 7281TIP3    H243259   2.082   3.908  16.751  0.5634  0.0600  0.3222
 7282TIP3   OH243260   4.675   5.377  13.883  0.1348 -0.2480 -0.1467
 7282TIP3    H143261   4.666   5.380  13.788  1.1507 -1.4316 -0.2994
 7282TIP3    H243262   4.725   5.456  13.905  0.6087 -0.3926 -0.6911
 7283TIP3   OH243263   2.837   0.089  12.821 -0.7046  0.3692  0.0325
 7283TIP3    H143264   2.746   0.119  12.818 -0.5759  0.9078  1.1377
 7283TIP3    H243265   2.850   0.062  12.912 -0.2152 -1.1893 -0.4768
 7284TIP3   OH243266   4.631   5.404   3.470 -0.1043  0.6862  0.5914
 7284TIP3    H143267   4.720   5.375   3.453  0.0513  0.1416  2.1394
 7284TIP3    H243268   4.588   5.327   3.510 -0.7425  1.4604  1.4481
 7285TIP3   OH243269   0.014   1.645  12.671  0.2205 -0.7625  0.0221
 7285TIP3    H143270  -0.017   1.714  12.729 -3.3195 -2.5567  0.5752
 7285TIP3    H243271   0.069   1.589  12.726  0.3141 -0.2192  0.4880
 7286TIP3   OH243272   5.528   1.433   0.238  0.2978 -0.1020  0.0620
 7286TIP3    H143273   5.572   1.514   0.263  1.0270 -0.4427 -0.0891
 7286TIP3    H243274   5.456   1.424   0.301 -0.3485  1.1301 -0.4894
 7287TIP3   OH243275   2.568   2.114  14.687 -0.6484  0.4965 -0.0639
 7287TIP3    H143276   2.574   2.119  14.783 -2.6310  1.2700  0.0799
 7287TIP3    H243277   2.539   2.025  14.670  1.8671 -0.3787 -0.1598
 7288TIP3   OH243278   2.668   6.154   3.136 -0.1626  0.2295 -0.3603
 7288TIP3    H143279   2.632   6.069   3.158  0.5598 -0.2952 -1.1580
 7288TIP3    H243280   2.628   6.214   3.200 -0.1028 -0.8105  0.6832
 7289TIP3   OH243281   6.625   4.535  11.215  0.4058 -0.1383  0.3746
 7289TIP3    H143282   6.610   4.571  11.127  0.0775 -0.7980  0.1533
 7289TIP3    H243283   6.710   4.569  11.241  1.5192 -1.6418 -1.0881
 7290TIP3   OH243284   3.185   3.515  12.000 -0.0001 -0.0804 -0.0785
 7290TIP3    H143285   3.241   3.528  12.077 -0.7335 -0.3557  0.5049
 7290TIP3    H243286   3.207   3.427  11.969 -0.3076 -0.2952  0.3122
 7291TIP3   OH243287   4.937   5.387   5.568  0.3386 -0.2164  0.7692
 7291TIP3    H143288   5.024   5.421   5.547 -0.6043  0.9662 -1.5538
 7291TIP3    H243289   4.906   5.442   5.640  0.5260  1.0543 -0.0962
 7292TIP3   OH243290   4.243   4.354   4.076 -0.0969 -0.3742  0.2264
 7292TIP3    H143291   4.227   4.403   4.156 -2.0649 -0.4802 -0.0448
 7292TIP3    H243292   4.194   4.272   4.088 -1.6020  0.1904 -1.5995
 7293TIP3   OH243293   0.693   5.455  11.186 -0.2966  0.7982  0.2531
 7293TIP3    H143294   0.667   5.547  11.184  0.5843  1.0449 -1.3367
 7293TIP3    H243295   0.636   5.413  11.122 -0.0183  0.4302  0.2482
 7294TIP3   OH243296   3.730   5.729   3.603 -0.1617  0.5438  0.5454
 7294TIP3    H143297   3.761   5.698   3.517 -1.2254  0.3007  0.2389
 7294TIP3    H243298   3.786   5.684   3.666 -0.5246 -0.6752  0.0396
 7295TIP3   OH243299   2.707   6.347  13.547  0.2500 -1.0894  0.2325
 7295TIP3    H143300   2.783   6.322  13.600  0.4150 -1.8864 -0.3583
 7295TIP3    H243301   2.646   6.388  13.609 -0.2501 -3.4135  1.3844
 7296TIP3   OH243302   3.419   3.650   4.664 -0.5505 -0.2040 -0.3495
 7296TIP3    H143303   3.371   3.733   4.661 -1.0041 -0.4241  0.3839
 7296TIP3    H243304   3.411   3.613   4.576 -1.4664 -0.0903 -0.3167
 7297TIP3   OH243305   3.026   3.650   2.140 -0.9262  0.0235 -0.4743
 7297TIP3    H143306   3.098   3.649   2.203  0.1784  1.5921 -1.6287
 7297TIP3    H243307   2.953   3.692   2.187 -1.5854 -2.7138  1.1197
 7298TIP3   OH243308   6.736   3.580  12.792 -0.2161 -0.5012 -0.3571
 7298TIP3    H143309   6.818   3.587  12.743 -0.2445  2.0952 -0.1330
 7298TIP3    H243310   6.676   3.538  12.731  1.3589 -3.0387 -0.3208
 7299TIP3   OH243311   4.613   2.157  13.315  0.3036  0.1255 -0.3931
 7299TIP3    H143312   4.529   2.176  13.357  0.6338 -0.4218  0.5412
 7299TIP3    H243313   4.595   2.165  13.221 -0.9903 -0.7309 -0.2509
 7300TIP3   OH243314   5.354   5.398   4.885  0.6116 -0.2735 -0.3946
 7300TIP3    H143315   5.439   5.368   4.854  1.0427 -0.8833  1.2890
 7300TIP3    H243316   5.372   5.442   4.968 -0.7804 -1.1155  0.4008
 7301TIP3   OH243317   1.812   5.008  13.398 -0.2335 -0.3039 -0.2784
 7301TIP3    H143318   1.819   5.103  13.408 -0.6784 -0.0983 -1.6543
 7301TIP3    H243319   1.792   4.976  13.486 -2.3202  1.1124 -0.1645
 7302TIP3   OH243320   3.972   4.573   4.147  0.2763  0.1713  0.0124
 7302TIP3    H143321   3.956   4.662   4.116  3.0950  0.6184 -0.4272
 7302TIP3    H243322   3.961   4.518   4.070  1.1804  0.5064 -0.3683
 7303TIP3   OH243323   1.416   2.076  11.193 -0.0945  0.1728 -0.1224
 7303TIP3    H143324   1.446   2.025  11.269 -1.0538 -0.8793 -0.4151
 7303TIP3    H243325   1.323   2.092  11.210 -0.0268  1.0122 -0.4991
 7304TIP3   OH243326   1.479   1.194  12.071 -0.4037  1.1490 -0.2595
 7304TIP3    H143327   1.427   1.267  12.106  1.3280  0.6798  3.7979
 7304TIP3    H243328   1.568   1.227  12.069 -0.0609  0.2479 -2.0548
 7305TIP3   OH243329   3.829   1.427  10.736 -0.6265  0.0808 -0.9767
 7305TIP3    H143330   3.824   1.337  10.706  1.2387 -0.3257 -0.1625
 7305TIP3    H243331   3.829   1.479  10.656  0.0560 -0.7408 -1.5259
 7306TIP3   OH243332   3.614   5.756  14.560  0.0582  0.0380 -0.0591
 7306TIP3    H143333   3.700   5.792  14.537  0.3030 -0.0324  0.7102
 7306TIP3    H243334   3.601   5.683  14.500  0.3493  0.3136 -0.4580
 7307TIP3   OH243335   6.661   2.219  15.216 -0.4505  0.2310  0.2257
 7307TIP3    H143336   6.612   2.143  15.187  0.9062  0.0239 -1.6856
 7307TIP3    H243337   6.753   2.192  15.211  0.0435  1.8677 -0.1966
 7308TIP3   OH243338   0.304   5.435  11.881  0.6804  0.0022  0.3545
 7308TIP3    H143339   0.271   5.494  11.813  0.7886 -0.5127 -0.1456
 7308TIP3    H243340   0.244   5.361  11.881  0.9404 -0.2139  0.5058
 7309TIP3   OH243341   6.791   5.718  16.981  0.0766  0.2616 -0.1221
 7309TIP3    H143342   6.701   5.734  16.954 -1.0781 -0.3084  2.9431
 7309TIP3    H243343   6.840   5.791  16.946 -1.7348  1.0192 -1.2161
 7310TIP3   OH243344   0.031   0.849  10.903  0.1043 -0.4767 -0.3666
 7310TIP3    H143345   0.002   0.758  10.913 -0.2790 -0.2283  1.0878
 7310TIP3    H243346   0.102   0.858  10.967  1.0617 -0.0971 -1.4430
 7311TIP3   OH243347   1.262   6.412   0.980  0.4702 -0.1845  0.5012
 7311TIP3    H143348   1.174   6.375   0.984  0.4066 -0.4041 -1.5655
 7311TIP3    H243349   1.273   6.458   1.063 -0.5946 -2.2836  1.8840
 7312TIP3   OH243350   0.300   5.700   5.555  0.4935 -0.3082  0.0345
 7312TIP3    H143351   0.335   5.736   5.637  0.1141 -0.2832  0.1868
 7312TIP3    H243352   0.303   5.774   5.494 -0.9830  0.2106  0.5543
 7313TIP3   OH243353   6.057   1.654  15.404  0.4792  0.4504  0.2901
 7313TIP3    H143354   6.080   1.574  15.451 -0.2865  0.4823  0.7520
 7313TIP3    H243355   6.098   1.724  15.454  1.8549  0.3054 -0.5895
 7314TIP3   OH243356   1.882   0.887   3.832 -0.2563 -0.2771 -0.2563
 7314TIP3    H143357   1.874   0.810   3.889 -0.3460 -0.4081 -0.4450
 7314TIP3    H243358   1.887   0.851   3.744  0.3778 -0.0990 -0.2995
 7315TIP3   OH243359   0.739   3.214  12.415 -0.1692  0.0065 -0.0230
 7315TIP3    H143360   0.776   3.235  12.329  0.8776  0.0296  0.4205
 7315TIP3    H243361   0.659   3.166  12.395  0.5465 -0.8314 -1.0187
 7316TIP3   OH243362   6.172   0.035   4.121 -0.4646  0.5072  0.3577
 7316TIP3    H143363   6.171   0.123   4.160  0.7370  0.5384  0.3570
 7316TIP3    H243364   6.263   0.020   4.098 -0.7864 -0.4351 -0.3781
 7317TIP3   OH243365   6.521   5.890   1.367  0.4691  0.0406 -0.2958
 7317TIP3    H143366   6.553   5.842   1.444 -0.5907  0.4668  0.4254
 7317TIP3    H243367   6.535   5.829   1.294  2.5812  0.0671  0.0132
 7318TIP3   OH243368   3.603   4.519  14.782  0.3398  0.0823  0.1215
 7318TIP3    H143369   3.665   4.592  14.784 -0.2920  0.6055  1.1085
 7318TIP3    H243370   3.657   4.441  14.799  0.4788  0.7292  3.1730
 7319TIP3   OH243371   1.502   0.656  10.890 -0.1280 -0.0992  0.2614
 7319TIP3    H143372   1.439   0.661  10.818 -0.2452 -0.6369  0.3239
 7319TIP3    H243373   1.540   0.569  10.883  0.0119 -0.0785  0.7260
 7320TIP3   OH243374   4.562   5.015  15.815  0.0963 -0.2915 -0.0338
 7320TIP3    H143375   4.550   5.098  15.768 -0.1808  0.3321  1.1237
 7320TIP3    H243376   4.645   4.981  15.781  1.1002  1.3087  0.6892
 7321TIP3   OH243377   1.022   3.735   6.434  0.5224 -0.1515  0.1259
 7321TIP3    H143378   1.075   3.808   6.403 -0.7239  1.4856  1.6704
 7321TIP3    H243379   1.081   3.683   6.488  1.1364  0.3309 -0.0801
 7322TIP3   OH243380   4.898   2.125   2.669 -0.4236 -0.2271  0.0067
 7322TIP3    H143381   4.810   2.134   2.706 -0.4208  0.2985 -0.1022
 7322TIP3    H243382   4.888   2.152   2.578  0.1997  1.6105  0.4468
 7323TIP3   OH243383   3.891   3.009  16.672 -0.0462  0.3392  0.9067
 7323TIP3    H143384   3.876   3.104  16.668 -0.4946  0.2450 -1.5546
 7323TIP3    H243385   3.816   2.975  16.721  0.1502  1.2420  1.8690
 7324TIP3   OH243386   2.040   5.355   3.479  0.5470 -0.4513  0.2917
 7324TIP3    H143387   2.052   5.300   3.556  2.1700  0.1887  0.5375
 7324TIP3    H243388   2.127   5.359   3.439  0.1850  0.9386 -0.3983
 7325TIP3   OH243389   5.563   5.367   5.332  0.5165 -0.6691  0.1448
 7325TIP3    H143390   5.617   5.333   5.404  1.8770  1.2648  0.1231
 7325TIP3    H243391   5.598   5.325   5.254 -0.2788 -1.9845  0.4619
 7326TIP3   OH243392   4.009   2.335   6.560  0.3440  0.9540  0.1974
 7326TIP3    H143393   4.050   2.328   6.474 -3.1905  2.9764 -1.9185
 7326TIP3    H243394   4.057   2.405   6.604  2.8674 -0.8046  0.4336
 7327TIP3   OH243395   3.531   2.002   2.638 -0.2827  0.0971 -0.5840
 7327TIP3    H143396   3.451   2.001   2.585 -0.6549 -1.1673 -0.0430
 7327TIP3    H243397   3.567   2.089   2.626 -1.6268  0.6151 -1.0287
 7328TIP3   OH243398   1.704   2.847   2.068  0.4270  0.3821  0.3356
 7328TIP3    H143399   1.776   2.907   2.087  0.6135  0.4919 -0.6335
 7328TIP3    H243400   1.703   2.786   2.142  0.6133  1.2172  1.0394
 7329TIP3   OH243401   6.165   5.308  13.225 -0.0809 -0.3090 -0.7944
 7329TIP3    H143402   6.229   5.377  13.242  0.5623 -1.2320  0.6839
 7329TIP3    H243403   6.164   5.300  13.130  1.4965  0.1869 -0.8823
 7330TIP3   OH243404   0.961   1.635   1.639  0.0594  0.2840  0.4971
 7330TIP3    H143405   0.896   1.629   1.709  0.3908 -2.0261  0.6769
 7330TIP3    H243406   0.970   1.546   1.606  2.7678  0.5859  0.1286
 7331TIP3   OH243407   3.980   5.255  13.220  0.8296 -0.1726  0.0390
 7331TIP3    H143408   3.887   5.275  13.213  0.2627 -2.4795  0.3884
 7331TIP3    H243409   3.984   5.162  13.244  3.2315 -0.2623 -0.4286
 7332TIP3   OH243410   5.412   2.180  14.943  0.2551 -0.0175 -0.1897
 7332TIP3    H143411   5.375   2.092  14.931 -1.1721  0.4028  0.8720
 7332TIP3    H243412   5.390   2.203  15.033 -0.9367  2.1020 -0.9498
 7333TIP3   OH243413   5.542   3.997  13.518  0.1260 -0.3211 -0.1022
 7333TIP3    H143414   5.586   3.950  13.588 -2.2607 -1.3701  0.7803
 7333TIP3    H243415   5.589   3.972  13.439  1.5409 -0.8022  0.8528
 7334TIP3   OH243416   4.711   1.784  13.961  0.7362 -0.1365 -0.2532
 7334TIP3    H143417   4.749   1.751  14.043 -0.0247 -3.0048 -0.9373
 7334TIP3    H243418   4.651   1.854  13.988  0.7999 -0.7437  1.5946
 7335TIP3   OH243419   0.112   4.363   1.216 -0.3345 -0.0232 -0.1376
 7335TIP3    H143420   0.167   4.314   1.276 -1.8938 -2.5328 -0.6414
 7335TIP3    H243421   0.174   4.416   1.165  1.1974  0.4106  2.0425
 7336TIP3   OH243422   3.787   6.422   4.506  0.3194  0.1276  0.1423
 7336TIP3    H143423   3.857   6.480   4.475  0.1842  0.1537 -0.1139
 7336TIP3    H243424   3.728   6.413   4.431 -0.6714  1.1833  0.7676
 7337TIP3   OH243425   1.060   5.856  16.210  0.3722  0.3427  0.2082
 7337TIP3    H143426   1.063   5.898  16.124  1.0415  0.6126  0.3621
 7337TIP3    H243427   1.140   5.804  16.215 -0.1487 -0.4827  0.2710
 7338TIP3   OH243428   1.131   0.656  11.846  0.4780 -0.2685  0.2170
 7338TIP3    H143429   1.086   0.740  11.853  0.5014 -0.3271  1.2863
 7338TIP3    H243430   1.179   0.661  11.764 -0.8995  0.0713 -0.5829
 7339TIP3   OH243431   0.186   2.947  12.679  0.1960 -0.1995 -0.0347
 7339TIP3    H143432   0.264   2.963  12.733  0.6003 -0.6050 -0.4751
 7339TIP3    H243433   0.114   2.941  12.741  0.0690  2.7206  0.2052
 7340TIP3   OH243434   0.561   1.242  11.080 -0.5195 -0.0638  0.1712
 7340TIP3    H143435   0.575   1.150  11.103 -0.5943 -0.0411  0.3084
 7340TIP3    H243436   0.593   1.249  10.990  0.2858 -0.0302  0.4558
 7341TIP3   OH243437   4.274   1.625  13.919  0.2120  0.5153  0.0434
 7341TIP3    H143438   4.324   1.676  13.982  2.4447 -0.2562 -0.9950
 7341TIP3    H243439   4.255   1.543  13.963  1.3598  0.1609 -0.0831
 7342TIP3   OH243440   6.732   3.464  13.037  0.8272  0.3458 -0.0658
 7342TIP3    H143441   6.810   3.411  13.020  0.5856 -0.4813  1.2499
 7342TIP3    H243442   6.722   3.518  12.958  3.0500  0.8882 -0.0439
 7343TIP3   OH243443   2.683   2.214   3.842 -0.3527  0.0646  0.3456
 7343TIP3    H143444   2.695   2.299   3.885  0.9568 -0.8479  1.8796
 7343TIP3    H243445   2.764   2.167   3.859 -0.3164 -0.8822 -2.0238
 7344TIP3   OH243446   2.058   0.272   1.777  0.2588  0.8846  0.2864
 7344TIP3    H143447   2.053   0.343   1.713 -0.7520  0.0452 -0.6122
 7344TIP3    H243448   2.093   0.197   1.728  1.5347  0.7970  1.2764
 7345TIP3   OH243449   6.381   4.815   2.385  0.2228  0.6472  0.2643
 7345TIP3    H143450   6.420   4.764   2.313  0.8125  0.6865  0.5586
 7345TIP3    H243451   6.307   4.860   2.344 -1.9336 -2.3696  0.4770
 7346TIP3   OH243452   5.409   2.013   1.132 -0.2424  0.1360  0.2637
 7346TIP3    H143453   5.348   2.029   1.061 -0.8395  2.7269  1.2406
 7346TIP3    H243454   5.436   2.100   1.161  0.5547 -0.8287  2.7205
 7347TIP3   OH243455   0.773   2.983  13.650 -0.2859 -0.0909  0.5827
 7347TIP3    H143456   0.729   2.901  13.674 -0.5069 -0.5687 -1.3432
 7347TIP3    H243457   0.860   2.976  13.689 -0.2045 -1.3698  0.1949
 7348TIP3   OH243458   4.222   0.083  11.933  0.8315 -0.0079  0.2465
 7348TIP3    H143459   4.307   0.126  11.919  1.2582 -0.6884  0.7291
 7348TIP3    H243460   4.190   0.120  12.015  1.9580 -1.7723  1.5416
 7349TIP3   OH243461   2.077   0.786  13.903  0.3053 -0.0299  0.0251
 7349TIP3    H143462   1.992   0.743  13.895  0.2205  0.2388 -0.5460
 7349TIP3    H243463   2.057   0.874  13.934  0.2342  0.5779 -1.6866
 7350TIP3   OH243464   1.539   4.143   5.050  0.3486 -0.1670 -0.9745
 7350TIP3    H143465   1.458   4.098   5.028  1.6046 -2.8052 -0.5902
 7350TIP3    H243466   1.571   4.098   5.129  3.1630 -0.6056 -2.2437
 7351TIP3   OH243467   2.753   5.332   5.708  0.0466  0.3132  0.7882
 7351TIP3    H143468   2.814   5.344   5.635  0.9983  0.4407  1.5791
 7351TIP3    H243469   2.666   5.331   5.667  0.6504 -1.7773 -0.6124
 7352TIP3   OH243470   1.250   6.008  12.653 -0.3464  0.2196  0.0491
 7352TIP3    H143471   1.251   6.045  12.565 -0.5368 -0.0285 -0.0583
 7352TIP3    H243472   1.297   5.925  12.645 -2.5360 -1.0616 -0.3909
 7353TIP3   OH243473   4.143   4.600  14.515  0.0444 -0.5857  0.4086
 7353TIP3    H143474   4.154   4.614  14.421  1.6536 -2.1465  0.3077
 7353TIP3    H243475   4.202   4.664  14.555 -0.6918  0.1263  0.3816
 7354TIP3   OH243476   3.835   4.524  10.904  0.1702 -0.3972  0.0074
 7354TIP3    H143477   3.865   4.607  10.942 -0.5340  0.3616 -1.0427
 7354TIP3    H243478   3.914   4.487  10.863  0.4372 -0.1338  0.2786
 7355TIP3   OH243479   1.309   0.086   3.178 -0.0282  0.0576 -0.3574
 7355TIP3    H143480   1.235   0.086   3.118 -0.2853 -1.8453 -0.0945
 7355TIP3    H243481   1.341   0.176   3.177 -1.3439  0.5399 -1.6994
 7356TIP3   OH243482   0.404   3.274  12.665  0.0308  0.1395  0.4163
 7356TIP3    H143483   0.310   3.270  12.683 -0.0314  0.9145  0.2863
 7356TIP3    H243484   0.412   3.254  12.572 -0.0935  0.9179  0.2293
 7357TIP3   OH243485   1.685   5.268  12.004 -0.4420  0.0524  0.5964
 7357TIP3    H143486   1.657   5.355  12.034 -0.1535 -0.2441  1.7696
 7357TIP3    H243487   1.621   5.245  11.937 -0.7495  1.0072  0.5409
 7358TIP3   OH243488   5.064   0.677   1.628 -0.2339 -0.1173 -0.6635
 7358TIP3    H143489   5.079   0.625   1.707 -2.1501 -0.6008 -0.5742
 7358TIP3    H243490   5.058   0.767   1.659  1.7908  0.0615 -0.6532
 7359TIP3   OH243491   3.149   0.674  14.688  0.0444 -0.3845  0.2110
 7359TIP3    H143492   3.124   0.589  14.724  1.4523 -0.6653  0.5726
 7359TIP3    H243493   3.163   0.657  14.595 -1.1860 -0.1836 -0.0389
 7360TIP3   OH243494   3.647   1.461   6.200 -0.2436 -0.2240  0.2619
 7360TIP3    H143495   3.734   1.497   6.217 -0.0574 -0.2768 -0.5449
 7360TIP3    H243496   3.598   1.534   6.162 -0.6825 -0.0782  1.0837
 7361TIP3   OH243497   0.450   1.536  15.650  0.5410  0.5138 -0.2279
 7361TIP3    H143498   0.397   1.609  15.619 -1.5623 -0.8121  0.0352
 7361TIP3    H243499   0.435   1.466  15.586 -0.3837 -0.8324  1.3762
 7362TIP3   OH243500   5.437   1.228   1.162  0.2453  0.4960  0.0015
 7362TIP3    H143501   5.421   1.242   1.255  3.8819 -0.6567  0.9362
 7362TIP3    H243502   5.427   1.315   1.122 -0.9855  1.0716  1.4640
 7363TIP3   OH243503   1.552   0.776  15.467  0.1691 -0.2645  0.2933
 7363TIP3    H143504   1.482   0.753  15.406  0.1918  0.6897 -0.1201
 7363TIP3    H243505   1.623   0.716  15.445 -0.9641 -2.2477  1.6888
 7364TIP3   OH243506   3.036   0.501  14.877 -0.2916  0.1392  0.1406
 7364TIP3    H143507   2.966   0.464  14.931 -1.2078  2.3612  0.5812
 7364TIP3    H243508   3.115   0.491  14.931 -0.5007 -1.0517  0.2647
 7365TIP3   OH243509   0.380   1.084   0.681  0.5204 -0.0338 -0.1205
 7365TIP3    H143510   0.347   0.994   0.677 -1.4620  0.3608  3.4337
 7365TIP3    H243511   0.301   1.138   0.677  1.2252  1.2781  2.2596
 7366TIP3   OH243512   4.093   0.320  11.448  0.0447  0.3364  0.5653
 7366TIP3    H143513   4.016   0.369  11.479 -0.7771 -0.8121  0.3832
 7366TIP3    H243514   4.138   0.293  11.528  0.2639  0.9869  0.6726
 7367TIP3   OH243515   5.553   0.925  13.161  0.3475 -0.5714 -0.1028
 7367TIP3    H143516   5.496   0.941  13.086 -0.1698 -0.7700  0.2379
 7367TIP3    H243517   5.594   1.009  13.179 -0.0205 -0.3645 -0.2138
 7368TIP3   OH243518   6.589   2.313  15.795  0.3058 -0.1549  0.2142
 7368TIP3    H143519   6.577   2.404  15.823  1.8506  0.8657 -2.0681
 7368TIP3    H243520   6.612   2.320  15.702  3.0609 -2.6568  0.5474
 7369TIP3   OH243521   6.430   1.974  10.920 -0.5890  0.4299 -0.1310
 7369TIP3    H143522   6.386   1.992  10.837  0.6247 -2.3676 -1.4973
 7369TIP3    H243523   6.514   2.019  10.913 -1.3157  2.0085  0.5937
 7370TIP3   OH243524   5.185   2.170   1.304 -0.1899 -0.5621 -0.0448
 7370TIP3    H143525   5.188   2.237   1.236  0.3966 -2.0670 -1.5527
 7370TIP3    H243526   5.092   2.159   1.323 -0.2633  1.2023  0.8106
 7371TIP3   OH243527   6.512   4.951   3.540 -0.3035 -0.2888 -0.3869
 7371TIP3    H143528   6.478   5.036   3.568 -2.2506 -0.7288 -1.2399
 7371TIP3    H243529   6.556   4.969   3.457  1.2760  0.2136  0.5133
 7372TIP3   OH243530   2.877   1.421   2.086  0.1892  0.0029 -0.1498
 7372TIP3    H143531   2.881   1.507   2.127  1.0679 -0.2934  0.3923
 7372TIP3    H243532   2.939   1.426   2.013 -0.1664 -0.0022 -0.4591
 7373TIP3   OH243533   0.711   2.146  16.597  0.1618  0.6588  0.2583
 7373TIP3    H143534   0.651   2.128  16.525  2.6820 -0.0864 -1.8311
 7373TIP3    H243535   0.762   2.222  16.567  2.0007 -0.3394  0.7032
 7374TIP3   OH243536   1.575   6.379  10.765 -0.5482  0.2675 -0.4649
 7374TIP3    H143537   1.603   6.394  10.675  0.0720  1.2611 -0.1251
 7374TIP3    H243538   1.550   6.466  10.798 -1.8396 -0.2392 -0.0144
 7375TIP3   OH243539   5.580   2.164   5.569 -0.0979  0.1979  0.0897
 7375TIP3    H143540   5.534   2.085   5.540  0.5693 -0.5732  1.0224
 7375TIP3    H243541   5.613   2.141   5.656  1.1006  1.1017 -0.0966
 7376TIP3   OH243542   6.612   6.039  10.539  0.3251 -0.1035 -0.3857
 7376TIP3    H143543   6.534   6.085  10.568 -0.9614 -0.5262 -2.9417
 7376TIP3    H243544   6.595   5.947  10.558 -0.1838 -0.2887 -1.6420
 7377TIP3   OH243545   5.225   0.993  11.213 -0.1174 -0.1101 -0.5660
 7377TIP3    H143546   5.290   1.063  11.201 -0.4767  0.3382  0.0251
 7377TIP3    H243547   5.141   1.036  11.198 -0.4293 -0.0975  0.9953
 7378TIP3   OH243548   5.370   5.890   5.198 -0.2086  0.3740  0.3654
 7378TIP3    H143549   5.379   5.899   5.293 -0.2263 -0.0995  0.4135
 7378TIP3    H243550   5.460   5.886   5.166 -0.1963 -0.6743  0.4864
 7379TIP3   OH243551   4.698   5.140  12.848 -0.0377 -0.5870  0.2724
 7379TIP3    H143552   4.718   5.049  12.827 -1.1377 -0.8262  0.1990
 7379TIP3    H243553   4.625   5.163  12.791  1.6311  1.0830 -1.3581
 7380TIP3   OH243554   5.986   3.099  12.974  0.8187 -0.4051 -0.0341
 7380TIP3    H143555   5.898   3.119  12.944  1.1890  0.6924 -0.4505
 7380TIP3    H243556   6.009   3.018  12.928  0.5260  0.0321 -0.9847
 7381TIP3   OH243557   2.176   5.708   0.930 -0.5636 -0.3907  0.3006
 7381TIP3    H143558   2.109   5.769   0.899  1.1317  1.5738  0.2047
 7381TIP3    H243559   2.129   5.643   0.981 -2.4505  1.4935  1.1267
 7382TIP3   OH243560   4.183   0.023   1.919 -0.4119 -0.6114  1.2331
 7382TIP3    H143561   4.163   0.117   1.912 -2.5949 -1.0344  1.3202
 7382TIP3    H243562   4.235   0.016   1.999 -0.4404  0.4840  1.3649
 7383TIP3   OH243563   4.799   6.201  15.537  0.0934 -0.3225  0.4065
 7383TIP3    H143564   4.764   6.117  15.566  1.8007 -1.4248 -0.6060
 7383TIP3    H243565   4.826   6.244  15.618 -0.0820 -1.0816  0.8785
 7384TIP3   OH243566   4.963   5.333  14.242 -0.3246 -0.0056  0.0983
 7384TIP3    H143567   5.003   5.364  14.324  1.3306 -0.8870 -0.3218
 7384TIP3    H243568   4.970   5.238  14.245  1.2063 -0.0277 -1.6870
 7385TIP3   OH243569   2.050   2.001   2.004  0.1931 -0.5172 -0.5513
 7385TIP3    H143570   1.973   1.957   1.969  0.4986  0.8262 -3.0851
 7385TIP3    H243571   2.118   1.985   1.940  0.4803  3.0192 -1.2927
 7386TIP3   OH243572   6.112   2.066  11.336  0.0104 -0.2119 -0.5532
 7386TIP3    H143573   6.043   2.052  11.401  0.8201  0.0910  0.3893
 7386TIP3    H243574   6.111   1.987  11.282 -0.9215 -0.3046 -0.4116
 7387TIP3   OH243575   4.354   1.726  16.942 -0.1649  0.0624 -0.0563
 7387TIP3    H143576   4.354   1.698  16.851  0.1257 -1.8517  0.4789
 7387TIP3    H243577   4.344   1.645  16.992  1.1371  0.8730  1.6492
 7388TIP3   OH243578   2.711   0.541   3.233  0.1121  0.4504 -0.4484
 7388TIP3    H143579   2.635   0.588   3.198 -0.2531 -0.7398 -1.3317
 7388TIP3    H243580   2.673   0.462   3.272  0.9098 -0.1913 -0.9709
 7389TIP3   OH243581   5.540   3.619   0.842  0.0935  0.0915 -0.5475
 7389TIP3    H143582   5.469   3.683   0.848 -0.6258 -0.7442 -0.0653
 7389TIP3    H243583   5.618   3.668   0.869 -0.6908  0.3635  1.3662
 7390TIP3   OH243584   4.029   2.775  15.744  0.2745  0.3501  0.2721
 7390TIP3    H143585   4.012   2.698  15.798  0.2506  0.4502  0.4082
 7390TIP3    H243586   4.070   2.741  15.665 -0.4755  0.1170 -0.0194
 7391TIP3   OH243587   5.701   3.231  16.670  0.0087  0.3966  0.3471
 7391TIP3    H143588   5.742   3.300  16.618 -1.0755 -0.7232 -2.2043
 7391TIP3    H243589   5.615   3.266  16.693 -0.3291  0.1403 -0.4783
 7392TIP3   OH243590   0.903   1.749  10.754  0.4621  0.1198  0.5261
 7392TIP3    H143591   0.985   1.797  10.740  0.1076  0.0713 -2.5134
 7392TIP3    H243592   0.929   1.668  10.798  2.1786 -0.1589 -0.8780
 7393TIP3   OH243593   6.806   3.546  15.299  0.2349  0.0125 -0.0947
 7393TIP3    H143594   6.713   3.539  15.317 -0.0045  1.0284 -0.8975
 7393TIP3    H243595   6.842   3.461  15.326 -0.7424 -0.0200  1.1952
 7394TIP3   OH243596   1.293   5.444  12.183  0.2886  0.6448  0.3365
 7394TIP3    H143597   1.262   5.427  12.272  1.1299  1.5423  0.8253
 7394TIP3    H243598   1.259   5.531  12.163  1.0493  0.9284  0.2381
 7395TIP3   OH243599   2.510   5.172  16.347 -0.2720 -0.0039 -0.2735
 7395TIP3    H143600   2.448   5.199  16.279  0.1975  0.7301 -0.4210
 7395TIP3    H243601   2.456   5.165  16.426 -0.9311 -1.4336 -0.8166
 7396TIP3   OH243602   3.143   5.248  12.694  0.0619  0.0809  0.3198
 7396TIP3    H143603   3.170   5.188  12.764  0.8590  0.0944  0.0294
 7396TIP3    H243604   3.187   5.214  12.616 -0.1268  0.5781 -0.0030
 7397TIP3   OH243605   4.193   5.296  12.993  0.0823 -0.4715  0.1767
 7397TIP3    H143606   4.199   5.216  13.045 -0.4284 -0.4945  0.2019
 7397TIP3    H243607   4.132   5.351  13.040 -0.3125 -0.4543 -0.3460
 7398TIP3   OH243608   5.880   4.687  12.706 -0.1723 -0.3511  0.4018
 7398TIP3    H143609   5.942   4.634  12.755 -0.3359 -0.0345  0.9690
 7398TIP3    H243610   5.882   4.772  12.750  0.4452  0.2630 -0.7858
 7399TIP3   OH243611   6.673   3.753  12.274 -0.5010 -0.4091 -0.3974
 7399TIP3    H143612   6.710   3.812  12.209  0.1165 -1.5617 -1.1318
 7399TIP3    H243613   6.623   3.690  12.222 -0.7246 -0.8315  0.3246
 7400TIP3   OH243614   1.617   1.283   0.995 -0.1009 -0.2718 -0.0317
 7400TIP3    H143615   1.695   1.297   1.049  1.0042 -1.5651 -1.2132
 7400TIP3    H243616   1.634   1.200   0.949 -1.8928 -0.2508 -0.8057
 7401TIP3   OH243617   4.756   1.507   2.843  0.5581  0.0959 -0.0218
 7401TIP3    H143618   4.698   1.497   2.918 -0.4245 -3.0613 -1.0269
 7401TIP3    H243619   4.819   1.574   2.869 -0.3340 -0.1665  3.1842
 7402TIP3   OH243620   6.732   0.532   5.501 -0.0860 -0.2514 -0.4221
 7402TIP3    H143621   6.730   0.456   5.560 -1.7206 -0.7767 -1.1081
 7402TIP3    H243622   6.648   0.575   5.514  0.9985  1.7870  0.3243
 7403TIP3   OH243623   2.422   3.066  14.517 -0.5491 -0.5522 -0.0673
 7403TIP3    H143624   2.471   3.147  14.503  1.0919 -1.7021 -1.3669
 7403TIP3    H243625   2.371   3.082  14.597  0.7130  1.2917  0.4261
 7404TIP3   OH243626   5.215   2.990   6.155 -0.4683 -0.0688 -0.1434
 7404TIP3    H143627   5.215   2.934   6.232  0.3134  0.3541  0.1783
 7404TIP3    H243628   5.150   3.057   6.173 -2.1611 -1.3968 -0.9569
 7405TIP3   OH243629   2.642   2.920   2.127 -0.1095 -0.1653  0.0403
 7405TIP3    H143630   2.657   2.969   2.047 -2.6877 -0.4837 -0.7210
 7405TIP3    H243631   2.610   2.985   2.190  1.0423 -0.0793  0.5656
 7406TIP3   OH243632   4.526   4.692  16.984 -0.8919 -0.2936 -0.4903
 7406TIP3    H143633   4.542   4.755  16.914 -0.6484 -0.6750 -0.7842
 7406TIP3    H243634   4.510   4.746  17.061 -0.4367  0.1286 -0.6824
 7407TIP3   OH243635   2.847   3.099  13.540  0.2402  0.1226 -0.2158
 7407TIP3    H143636   2.926   3.127  13.495 -0.1851 -0.6089 -1.4837
 7407TIP3    H243637   2.785   3.171  13.527  0.6867  0.7096  0.8064
 7408TIP3   OH243638   3.792   5.303  16.491 -0.6526  0.2070 -0.5114
 7408TIP3    H143639   3.762   5.321  16.581 -2.4147  0.0663 -1.0349
 7408TIP3    H243640   3.843   5.380  16.467  0.5302 -0.0909  0.8645
 7409TIP3   OH243641   5.468   5.526   3.584 -0.2308  0.3404  0.1240
 7409TIP3    H143642   5.412   5.586   3.633 -0.2682  0.8275 -0.4985
 7409TIP3    H243643   5.412   5.493   3.513  0.0537  0.2700 -0.0701
 7410TIP3   OH243644   3.399   0.479   4.024 -0.6295  0.6424 -0.2877
 7410TIP3    H143645   3.388   0.526   4.106 -0.0592  2.3065 -1.1266
 7410TIP3    H243646   3.442   0.397   4.049  1.9425  2.2189  0.8260
 7411TIP3   OH243647   4.593   0.134  16.869  0.4807 -0.0338  0.2587
 7411TIP3    H143648   4.588   0.177  16.954  2.3012 -1.7364  1.3103
 7411TIP3    H243649   4.681   0.155  16.836 -0.3089  0.8706 -1.3948
 7412TIP3   OH243650   2.757   5.404  14.211  0.6512  0.1105  0.2926
 7412TIP3    H143651   2.705   5.398  14.291  2.0210 -0.4996  1.1768
 7412TIP3    H243652   2.758   5.497  14.190 -0.3113  0.1974  0.5689
 7413TIP3   OH243653   0.038   5.578  11.198  0.4495 -0.3034  0.1781
 7413TIP3    H143654   0.063   5.568  11.106 -1.8986  2.7261 -0.9441
 7413TIP3    H243655   0.091   5.651  11.229 -2.0612  1.8849 -0.3291
 7414TIP3   OH243656   3.276   3.408   4.890  0.1202  0.2023  0.0939
 7414TIP3    H143657   3.200   3.367   4.932 -0.3242 -0.0175 -0.8915
 7414TIP3    H243658   3.240   3.486   4.847  0.9301  1.6042  1.8240
 7415TIP3   OH243659   5.172   2.951  15.966  0.1394  0.3342 -0.1365
 7415TIP3    H143660   5.094   2.954  16.021 -0.8250 -1.0102 -1.3448
 7415TIP3    H243661   5.143   2.983  15.881  0.4736 -1.5620 -1.0227
 7416TIP3   OH243662   6.461   2.514   1.846  0.7710  0.1688  0.4389
 7416TIP3    H143663   6.502   2.577   1.788  0.8970 -1.1426 -0.9587
 7416TIP3    H243664   6.372   2.547   1.861  1.0132  0.9396  0.1908
 7417TIP3   OH243665   2.398   6.735  13.134  0.1016 -0.0471  0.5939
 7417TIP3    H143666   2.367   6.650  13.164 -1.7830  1.0409  1.9454
 7417TIP3    H243667   2.410   6.786  13.214  0.1293  1.2930 -0.2281
 7418TIP3   OH243668   0.339   1.041   0.345  0.0372 -0.6874  0.5882
 7418TIP3    H143669   0.272   1.008   0.285 -0.3369  0.0500  0.6011
 7418TIP3    H243670   0.344   0.975   0.414 -1.8980  0.0627  1.4938
 7419TIP3   OH243671   6.548   0.832  14.679 -0.0671 -0.0770 -0.0683
 7419TIP3    H143672   6.541   0.832  14.775  1.6548  0.9917  0.0936
 7419TIP3    H243673   6.604   0.757  14.660  1.1920  0.8355 -0.0604
 7420TIP3   OH243674   3.431   2.973   2.490  0.0033  0.0387 -0.0509
 7420TIP3    H143675   3.489   2.996   2.563  0.1069 -0.2070 -0.0533
 7420TIP3    H243676   3.345   3.007   2.516  0.6555  2.9487 -1.2644
 7421TIP3   OH243677   0.917   6.750   5.693  0.3203  0.8558  0.2501
 7421TIP3    H143678   0.861   6.692   5.642  1.3400 -0.3175  0.4197
 7421TIP3    H243679   0.988   6.694   5.725 -0.2239  1.5419  2.9003
 7422TIP3   OH243680   1.645   4.021  13.871 -0.2555 -0.2177  0.5266
 7422TIP3    H143681   1.609   4.097  13.918 -1.0632 -0.1012 -0.2428
 7422TIP3    H243682   1.675   3.962  13.940 -0.6846  0.2961  1.1679
 7423TIP3   OH243683   6.483   1.134   4.358 -0.4218 -0.6968  0.0838
 7423TIP3    H143684   6.466   1.041   4.349 -2.5323 -0.3706  0.2512
 7423TIP3    H243685   6.509   1.146   4.450 -1.9859 -0.8957  0.5757
 7424TIP3   OH243686   2.259   6.098   1.363  0.1449  0.4336 -0.0896
 7424TIP3    H143687   2.332   6.051   1.323 -0.3902  0.8433 -1.5901
 7424TIP3    H243688   2.196   6.109   1.292 -1.3092  0.2475  1.1307
 7425TIP3   OH243689   1.369   2.686  13.483  0.7013 -0.4720 -0.0406
 7425TIP3    H143690   1.428   2.635  13.428 -1.1596 -0.9394 -1.7052
 7425TIP3    H243691   1.287   2.637  13.483 -0.1218  0.8223  1.1091
 7426TIP3   OH243692   2.325   0.152   2.996 -0.4835  0.1526 -0.3012
 7426TIP3    H143693   2.417   0.170   3.019 -0.4776 -0.2613  0.0055
 7426TIP3    H243694   2.275   0.211   3.052 -0.4478 -0.4993  0.4352
 7427TIP3   OH243695   5.155   3.696  11.407  0.1963  0.0750 -0.3987
 7427TIP3    H143696   5.237   3.703  11.359 -0.2695  0.8311 -1.1161
 7427TIP3    H243697   5.164   3.616  11.459  1.6598  0.5275  0.0931
 7428TIP3   OH243698   5.285   0.298  14.295 -0.3017 -0.0035  0.0715
 7428TIP3    H143699   5.215   0.363  14.282 -1.1184 -0.7045  0.7916
 7428TIP3    H243700   5.302   0.263  14.208 -0.3873  0.6451 -0.2093
 7429TIP3   OH243701   4.993   4.374  14.727 -0.3621 -0.2909  0.1967
 7429TIP3    H143702   5.032   4.346  14.645 -0.2077  0.2413  0.0793
 7429TIP3    H243703   4.899   4.373  14.710 -0.3093  0.3681 -0.1797
 7430TIP3   OH243704   5.970   1.075  12.131 -0.0646  0.5428 -0.8564
 7430TIP3    H143705   6.059   1.087  12.097  0.2658  0.8661  0.0903
 7430TIP3    H243706   5.967   1.130  12.210 -0.8926  0.0042 -0.5033
 7431TIP3   OH243707   0.913   1.394   0.701  0.0469  0.1903  0.5757
 7431TIP3    H143708   0.831   1.348   0.721  0.4991 -0.4230  1.1031
 7431TIP3    H243709   0.979   1.348   0.755  1.2415 -1.1342 -1.8471
 7432TIP3   OH243710   1.909   3.852   5.085  0.4767 -0.4631 -0.0759
 7432TIP3    H143711   1.837   3.796   5.114  2.1148 -2.1470  0.9420
 7432TIP3    H243712   1.919   3.916   5.156  0.1712 -0.4206 -0.0705
 7433TIP3   OH243713   0.639   1.842  15.191 -0.1615  0.4452 -0.4355
 7433TIP3    H143714   0.606   1.793  15.116  0.1584  0.9432 -0.9110
 7433TIP3    H243715   0.703   1.784  15.232 -0.3047  0.1910 -0.5745
 7434TIP3   OH243716   5.241   3.882  10.577  0.3612  0.0068  0.2884
 7434TIP3    H143717   5.321   3.927  10.602  0.7728 -0.9335  0.7497
 7434TIP3    H243718   5.264   3.789  10.583 -1.0558 -0.3086  1.5048
 7435TIP3   OH243719   0.972   5.282   1.469 -0.1538  0.1324 -0.8829
 7435TIP3    H143720   0.902   5.306   1.409 -2.0886 -0.0368  1.1660
 7435TIP3    H243721   0.948   5.196   1.501  0.9844  0.0815 -0.0942
 7436TIP3   OH243722   1.619   6.534  12.687  0.5558 -0.0531 -0.5152
 7436TIP3    H143723   1.692   6.555  12.745  1.1787 -0.0527 -1.2759
 7436TIP3    H243724   1.601   6.616  12.641  2.2791 -0.7978 -2.7061
 7437TIP3   OH243725   3.583   6.692  13.322 -0.1254  0.8327 -0.4304
 7437TIP3    H143726   3.662   6.637  13.324  0.6835  1.7537 -3.1116
 7437TIP3    H243727   3.522   6.643  13.267 -0.9956  0.7142  0.6154
 7438TIP3   OH243728   1.163   2.988  12.505  0.5454  0.6902 -0.1486
 7438TIP3    H143729   1.237   2.936  12.536 -0.6472 -0.5221  0.8197
 7438TIP3    H243730   1.176   3.074  12.546  1.0862  0.3016  0.5302
 7439TIP3   OH243731   6.438   1.369  11.497 -0.2629 -0.9478  0.0632
 7439TIP3    H143732   6.402   1.281  11.506  0.2634 -1.1382  0.3980
 7439TIP3    H243733   6.388   1.409  11.426  0.1493 -1.8606 -0.7606
 7440TIP3   OH243734   1.873   1.795   0.740 -0.2446  0.3379 -0.1988
 7440TIP3    H143735   1.959   1.781   0.701  0.0187  1.8233 -0.2017
 7440TIP3    H243736   1.851   1.710   0.780  0.9706 -0.2144 -0.6413
 7441TIP3   OH243737   3.982   6.404   3.757 -0.3233  0.1630 -0.4456
 7441TIP3    H143738   3.933   6.323   3.775 -0.1846 -0.0392 -0.9860
 7441TIP3    H243739   3.916   6.464   3.722 -0.3742  0.1998 -0.2864
 7442TIP3   OH243740   1.384   2.302   4.404 -0.2114 -0.4765  0.2409
 7442TIP3    H143741   1.359   2.277   4.493  0.1809 -3.5201 -0.3889
 7442TIP3    H243742   1.324   2.254   4.347  0.9500 -0.3504 -1.1531
 7443TIP3   OH243743   0.037   0.723  14.489 -0.3817  0.1969 -0.4307
 7443TIP3    H143744   0.058   0.686  14.575 -3.1607 -0.1681  0.1763
 7443TIP3    H243745   0.079   0.809  14.489  0.9698 -0.4249  0.6277
 7444TIP3   OH243746   2.229   3.733   1.296  0.2852 -0.1826 -0.8049
 7444TIP3    H143747   2.232   3.714   1.202  0.7959 -0.6165 -0.7059
 7444TIP3    H243748   2.140   3.711   1.322 -0.2283  1.0967 -1.4201
 7445TIP3   OH243749   4.341   3.645   0.342 -0.0562 -0.1417 -0.1126
 7445TIP3    H143750   4.363   3.553   0.337  1.8543  0.3124 -4.1738
 7445TIP3    H243751   4.420   3.687   0.376 -0.1496  0.1387 -0.2375
 7446TIP3   OH243752   2.166   5.910   0.403  0.6534 -0.4548 -0.0740
 7446TIP3    H143753   2.150   5.862   0.484  0.2946  0.4460  0.4089
 7446TIP3    H243754   2.084   5.904   0.355  0.2416  0.5284  0.4627
 7447TIP3   OH243755   1.926   1.652   1.406 -0.2565 -0.3688 -0.1321
 7447TIP3    H143756   1.926   1.558   1.389  0.2619 -0.9270  2.4394
 7447TIP3    H243757   1.990   1.664   1.476 -1.6539  1.5967  0.9285
 7448TIP3   OH243758   3.884   1.169  11.172 -0.3855  0.1348 -0.0760
 7448TIP3    H143759   3.871   1.241  11.109 -1.6179  0.3847  0.4339
 7448TIP3    H243760   3.860   1.090  11.123  0.0756  0.1677 -0.3581
 7449TIP3   OH243761   0.158   1.567   5.299 -0.1119 -0.1200  0.1710
 7449TIP3    H143762   0.251   1.574   5.323  0.4045  0.5816 -1.8579
 7449TIP3    H243763   0.158   1.529   5.212 -1.7282  0.1629  0.0123
 7450TIP3   OH243764   1.588   6.436   3.906 -0.5620 -0.4746  1.1161
 7450TIP3    H143765   1.629   6.473   3.828 -0.8161  0.9699  1.6242
 7450TIP3    H243766   1.638   6.356   3.924 -0.9274 -1.1921 -0.8707
 7451TIP3   OH243767   6.417   1.680   5.653 -0.2888  0.3657 -0.0702
 7451TIP3    H143768   6.497   1.632   5.673  0.7995  1.3949 -1.6826
 7451TIP3    H243769   6.412   1.747   5.721  0.7746  0.8867 -0.4753
 7452TIP3   OH243770   2.597   5.749  11.111 -0.1747  0.3570  0.2024
 7452TIP3    H143771   2.585   5.746  11.016  2.6786  0.6296 -0.2815
 7452TIP3    H243772   2.692   5.744  11.123 -0.4704 -0.2577  3.0963
 7453TIP3   OH243773   5.959   4.452   3.933  0.8768  0.4491  0.3346
 7453TIP3    H143774   6.020   4.520   3.905 -0.3433  0.3449 -3.0653
 7453TIP3    H243775   5.874   4.494   3.935  0.4653 -0.3721  0.8549
 7454TIP3   OH243776   4.260   3.170  16.329 -0.0103  0.2120  1.1253
 7454TIP3    H143777   4.351   3.143  16.313  0.6256  2.4473  0.6244
 7454TIP3    H243778   4.262   3.211  16.415  0.1035  2.6148  0.0641
 7455TIP3   OH243779   6.715   2.428   0.141  0.5112 -0.0561  0.4927
 7455TIP3    H143780   6.678   2.508   0.104 -1.8023 -0.8820  0.8601
 7455TIP3    H243781   6.670   2.357   0.096  2.4408 -1.2031  0.2522
 7456TIP3   OH243782   3.958   4.319  13.544 -0.1023 -0.7894  0.1624
 7456TIP3    H143783   3.882   4.351  13.494  0.7839  3.6780  1.2510
 7456TIP3    H243784   4.033   4.360  13.502  1.2648 -1.5206  1.7940
 7457TIP3   OH243785   3.750   5.899   3.294 -0.2977  0.0717  0.2481
 7457TIP3    H143786   3.775   5.869   3.206 -0.2994 -0.6179  0.4835
 7457TIP3    H243787   3.654   5.898   3.293 -0.2969 -0.0090  0.2845
 7458TIP3   OH243788   4.065   0.346   0.983  0.1816  0.1404  0.0556
 7458TIP3    H143789   4.117   0.302   0.915 -3.4051 -0.0358 -2.8831
 7458TIP3    H243790   4.039   0.276   1.043 -1.5925 -1.0520 -1.9510
 7459TIP3   OH243791   2.121   6.552  11.396 -0.3538 -0.2300 -0.1003
 7459TIP3    H143792   2.204   6.595  11.373 -0.9608 -0.5381 -3.2265
 7459TIP3    H243793   2.141   6.459  11.391 -0.4965 -0.3356  0.9563
 7460TIP3   OH243794   3.639   3.215   2.375  0.7659 -0.1615  0.5465
 7460TIP3    H143795   3.585   3.143   2.344 -0.0393  0.3104  0.8105
 7460TIP3    H243796   3.621   3.219   2.469  2.0901 -0.6798  0.8313
 7461TIP3   OH243797   5.309   4.182  11.293 -0.2936  0.0854  0.4924
 7461TIP3    H143798   5.261   4.236  11.230  1.0578  1.9572  0.9847
 7461TIP3    H243799   5.243   4.121  11.327 -1.3848 -0.0094 -1.6368
 7462TIP3   OH243800   4.825   1.964  13.711  0.3861  0.3903 -0.4411
 7462TIP3    H143801   4.823   2.042  13.765  1.1622  0.2886 -0.2576
 7462TIP3    H243802   4.733   1.948  13.687 -0.0939 -0.0561  1.5595
 7463TIP3   OH243803   4.532   6.142   2.740 -0.2055  0.1389  0.3417
 7463TIP3    H143804   4.535   6.103   2.652  0.3957  0.4694  0.2035
 7463TIP3    H243805   4.463   6.208   2.734 -0.8163 -0.4882  0.4006
 7464TIP3   OH243806   4.910   3.122  11.485 -0.1564 -0.4821  0.2262
 7464TIP3    H143807   4.949   3.042  11.449  3.3786  1.5565 -0.8554
 7464TIP3    H243808   4.951   3.133  11.571  0.0758  0.6511 -0.0216
 7465TIP3   OH243809   2.001   6.468  15.715 -0.1268  0.0665 -0.0204
 7465TIP3    H143810   2.043   6.418  15.785 -0.0427  0.5560  0.2808
 7465TIP3    H243811   1.937   6.407  15.678  0.9058 -0.7232 -0.5526
 7466TIP3   OH243812   6.337   2.864   2.421 -0.1149  0.3253 -0.3784
 7466TIP3    H143813   6.402   2.804   2.456 -0.0409  0.6509  0.0448
 7466TIP3    H243814   6.263   2.808   2.397 -0.0721  0.0758  0.0745
 7467TIP3   OH243815   4.585   4.787   1.496  0.6555  0.1111 -0.2585
 7467TIP3    H143816   4.549   4.868   1.533 -1.1426 -1.5811  1.9375
 7467TIP3    H243817   4.680   4.794   1.510  0.3656  1.1183  1.4572
 7468TIP3   OH243818   4.700   1.593   2.114 -0.0845 -0.5365  0.3015
 7468TIP3    H143819   4.786   1.559   2.091 -0.4592 -0.3148 -1.6571
 7468TIP3    H243820   4.639   1.524   2.087 -0.5942 -0.0672  0.2392
 7469TIP3   OH243821   0.401   5.841   2.542 -0.7404 -0.1440  0.1299
 7469TIP3    H143822   0.380   5.756   2.581  0.1516 -0.7770 -0.7405
 7469TIP3    H243823   0.319   5.870   2.503 -0.6148 -1.5311 -1.2601
 7470TIP3   OH243824   6.503   3.627  14.461 -0.4434 -0.5531 -0.2791
 7470TIP3    H143825   6.535   3.570  14.532 -0.1222 -1.7094 -1.3225
 7470TIP3    H243826   6.534   3.715  14.486  2.1083 -1.3534 -0.3477
 7471TIP3   OH243827   0.724   3.959   5.558  0.1136 -0.2503  0.5312
 7471TIP3    H143828   0.793   4.025   5.565 -0.3308  0.3787 -0.7486
 7471TIP3    H243829   0.643   4.007   5.576 -0.2162 -0.4356 -0.4041
 7472TIP3   OH243830   5.391   3.897   2.431 -0.1169  0.0484 -0.6658
 7472TIP3    H143831   5.481   3.866   2.440 -0.2779 -0.3287 -0.3332
 7472TIP3    H243832   5.376   3.950   2.509 -1.3387 -2.7913  1.1543
 7473TIP3   OH243833   3.386   5.338   3.406  0.1781  0.0425  0.3480
 7473TIP3    H143834   3.321   5.323   3.337  0.6849 -1.7056  0.2066
 7473TIP3    H243835   3.463   5.371   3.359  0.0862  0.1109  0.2444
 7474TIP3   OH243836   1.399   2.330  12.188 -0.3909  0.9034 -0.0780
 7474TIP3    H143837   1.305   2.325  12.168 -0.4020  1.2226 -0.1103
 7474TIP3    H243838   1.439   2.367  12.110 -0.3720  1.7010  0.3013
 7475TIP3   OH243839   1.338   3.402  13.791  0.0296 -0.6878 -0.2402
 7475TIP3    H143840   1.380   3.462  13.729 -0.7496 -0.4766 -0.5713
 7475TIP3    H243841   1.298   3.460  13.856  1.4717 -0.9151  0.9080
 7476TIP3   OH243842   1.495   1.502   1.499  0.6193  0.5964 -0.3952
 7476TIP3    H143843   1.433   1.564   1.463  1.3122  1.1451 -0.6718
 7476TIP3    H243844   1.486   1.424   1.444 -0.5861  0.2657  0.2438
 7477TIP3   OH243845   4.406   1.404   4.827 -0.0357  0.4490  0.0375
 7477TIP3    H143846   4.499   1.397   4.809 -0.2083 -0.2130 -0.6605
 7477TIP3    H243847   4.373   1.314   4.819 -0.9561  0.8534 -1.0070
 7478TIP3   OH243848   4.371   5.271   1.327 -0.2043 -0.4162 -0.1273
 7478TIP3    H143849   4.362   5.185   1.286 -3.0642 -1.3035  1.9603
 7478TIP3    H243850   4.281   5.304   1.332  0.4745  1.3692  1.7434
 7479TIP3   OH243851   5.606   6.693   4.625  0.4082  0.6238 -0.2936
 7479TIP3    H143852   5.641   6.609   4.596 -0.3098  0.7005 -1.4460
 7479TIP3    H243853   5.640   6.756   4.562  0.7128  1.1721  0.4026
 7480TIP3   OH243854   1.167   5.459  11.722 -0.0801 -1.0227 -0.1223
 7480TIP3    H143855   1.262   5.461  11.714 -0.1869  1.0863 -1.9542
 7480TIP3    H243856   1.151   5.456  11.816  1.7653 -1.7569  0.2177
 7481TIP3   OH243857   2.923   5.776  11.663 -0.5011 -0.0776 -0.1474
 7481TIP3    H143858   2.968   5.845  11.712  0.7826 -0.3504 -0.8898
 7481TIP3    H243859   2.992   5.737  11.609 -1.2814 -1.6931 -0.0164
 7482TIP3   OH243860   0.206   6.459  12.583  0.1696 -0.1995  0.1567
 7482TIP3    H143861   0.131   6.514  12.558  0.9571  1.4686  1.2604
 7482TIP3    H243862   0.215   6.474  12.677  1.4567 -0.9498  0.1683
 7483TIP3   OH243863   0.444   3.235  13.066  0.5353 -0.0011 -0.5253
 7483TIP3    H143864   0.436   3.324  13.101 -0.7263  0.5056 -1.9754
 7483TIP3    H243865   0.485   3.185  13.136 -0.4111  1.2998  1.0144
 7484TIP3   OH243866   2.737   3.615  11.007 -0.1151  0.6004  0.4926
 7484TIP3    H143867   2.821   3.655  10.984  0.7984 -1.1273  0.6500
 7484TIP3    H243868   2.710   3.659  11.087  0.5861  1.2671  0.3750
 7485TIP3   OH243869   2.164   0.340  15.182  0.3099 -0.3779  0.1789
 7485TIP3    H143870   2.252   0.368  15.210 -0.2991  1.2268  0.5935
 7485TIP3    H243871   2.169   0.245  15.182  1.7928 -0.3462  1.0942
 7486TIP3   OH243872   3.141   2.315   1.896 -0.3872 -0.1290  0.5084
 7486TIP3    H143873   3.079   2.353   1.834  0.4255  1.5798  0.6882
 7486TIP3    H243874   3.220   2.298   1.844 -0.5887 -1.2124  0.5276
 7487TIP3   OH243875   6.429   0.388   3.624 -0.0219 -0.1331  0.3098
 7487TIP3    H143876   6.374   0.426   3.693 -0.3229 -1.0201  0.5808
 7487TIP3    H243877   6.405   0.295   3.624  0.4991 -0.2718 -0.5068
 7488TIP3   OH243878   6.434   1.230  16.073 -0.1985 -0.4179  0.4633
 7488TIP3    H143879   6.407   1.235  16.165 -1.3874  0.0090  0.1045
 7488TIP3    H243880   6.530   1.238  16.076 -0.2324 -0.2970  1.6550
 7489TIP3   OH243881   2.747   1.438  16.276 -0.2609  0.3185  0.3047
 7489TIP3    H143882   2.728   1.476  16.190 -1.7461 -0.8807  0.0538
 7489TIP3    H243883   2.836   1.465  16.295 -0.0579  0.9881 -1.4118
 7490TIP3   OH243884   4.975   2.008  16.824  0.4371 -0.2408 -0.2580
 7490TIP3    H143885   4.956   1.915  16.820  1.3470 -0.4101 -1.1390
 7490TIP3    H243886   4.893   2.049  16.850 -0.3330 -1.1795 -1.1363
 7491TIP3   OH243887   4.857   4.688   1.181 -0.5505 -0.1890 -0.0101
 7491TIP3    H143888   4.891   4.703   1.269  0.3204 -2.7777  0.1816
 7491TIP3    H243889   4.777   4.741   1.177  0.4984  1.6804  1.5152
 7492TIP3   OH243890   5.736   6.577  14.633  0.3951 -0.0503 -0.1236
 7492TIP3    H143891   5.790   6.498  14.627  1.0289  0.5001 -2.1771
 7492TIP3    H243892   5.718   6.601  14.543 -0.6221  1.6089  0.4839
 7493TIP3   OH243893   4.490   2.435  15.218 -0.3700  0.5892  0.0167
 7493TIP3    H143894   4.561   2.459  15.159 -1.0735  1.5599 -0.4491
 7493TIP3    H243895   4.535   2.400  15.295  0.5754  0.0691 -0.7411
 7494TIP3   OH243896   0.526   2.777  14.332 -0.8629 -0.0262  0.2542
 7494TIP3    H143897   0.583   2.720  14.382  0.3371  0.7377 -0.2104
 7494TIP3    H243898   0.474   2.718  14.278  1.4951 -0.6691 -1.4489
 7495TIP3   OH243899   2.025   5.692  14.425  0.3249 -0.1162 -0.7360
 7495TIP3    H143900   2.101   5.695  14.366 -0.8765 -1.7627 -2.4709
 7495TIP3    H243901   2.027   5.603  14.461  0.0657  0.3310  0.4171
 7496TIP3   OH243902   2.079   0.189   6.752  0.0033  0.4352 -0.2696
 7496TIP3    H143903   2.118   0.125   6.693 -0.2218 -0.2923  0.3397
 7496TIP3    H243904   2.112   0.274   6.723 -1.5317  0.3133 -2.5795
 7497TIP3   OH243905   5.373   1.000  15.623  0.0388  0.1861  0.5971
 7497TIP3    H143906   5.446   0.947  15.655  0.6737  0.9892  0.5243
 7497TIP3    H243907   5.358   0.969  15.534  2.1103  1.7964 -0.4118
 7498TIP3   OH243908   6.109   3.136  16.787  0.1341 -0.1689  0.1577
 7498TIP3    H143909   6.086   3.200  16.719 -2.0777 -0.2126  0.7901
 7498TIP3    H243910   6.138   3.059  16.738  1.1354  0.6894 -0.6466
 7499TIP3   OH243911   6.728   2.758   1.062 -0.6621  0.3514  0.2740
 7499TIP3    H143912   6.683   2.678   1.032  0.3214  0.0672 -0.5005
 7499TIP3    H243913   6.726   2.815   0.985  2.4779 -0.6317 -0.6684
 7500TIP3   OH243914   4.730   1.216  13.167  0.4698 -0.3323  0.0659
 7500TIP3    H143915   4.737   1.163  13.247  0.4461 -1.1673 -0.4646
 7500TIP3    H243916   4.798   1.180  13.110 -0.5476 -0.8100 -0.8698
 7501TIP3   OH243917   1.584   6.404  14.181  0.4709  0.4476 -0.5590
 7501TIP3    H143918   1.652   6.345  14.149 -0.6410 -0.9805 -0.4066
 7501TIP3    H243919   1.519   6.406  14.110 -2.1349 -2.9180  1.4180
 7502TIP3   OH243920   6.293   2.788  12.566  0.1169  0.4673  0.4823
 7502TIP3    H143921   6.333   2.763  12.482 -0.8392  0.0741  0.1259
 7502TIP3    H243922   6.202   2.761  12.558 -0.0073  0.4947  1.6337
 7503TIP3   OH243923   6.529   5.287  14.929 -0.1186 -0.5216  0.2239
 7503TIP3    H143924   6.597   5.237  14.883  1.3665  1.5865 -0.0091
 7503TIP3    H243925   6.513   5.237  15.009 -0.0347 -2.3004 -0.8296
 7504TIP3   OH243926   0.179   5.724   6.425  0.4506  0.0901 -0.5013
 7504TIP3    H143927   0.259   5.682   6.394 -0.6364 -0.7724 -2.2701
 7504TIP3    H243928   0.165   5.798   6.365  0.1872  0.5394  0.1022
 7505TIP3   OH243929   5.531   0.617   0.091  0.2723  0.0672 -0.0163
 7505TIP3    H143930   5.532   0.551   0.161 -2.5819 -0.7730 -0.6738
 7505TIP3    H243931   5.532   0.701   0.138 -0.5794 -0.4842  1.0351
 7506TIP3   OH243932   3.555   3.090  11.575  0.1160  0.3309  0.1676
 7506TIP3    H143933   3.460   3.088  11.583 -0.0481 -0.8111 -1.5070
 7506TIP3    H243934   3.582   2.999  11.581  1.3927  0.7757  2.7425
 7507TIP3   OH243935   5.062   3.170   0.995  0.7138 -0.5409  0.0891
 7507TIP3    H143936   5.017   3.207   1.071  0.1406 -1.4420  0.2087
 7507TIP3    H243937   4.994   3.120   0.949  1.1835 -0.4681 -0.7075
 7508TIP3   OH243938   2.833   2.060   5.866  0.1733 -0.3360  0.1997
 7508TIP3    H143939   2.804   2.151   5.857  2.2953  0.2691 -1.4220
 7508TIP3    H243940   2.859   2.053   5.958 -0.1835  0.6448  0.3931
 7509TIP3   OH243941   5.597   2.201  17.079 -0.2510  0.1025  0.3670
 7509TIP3    H143942   5.601   2.232  17.170 -0.8911  0.8379  0.1613
 7509TIP3    H243943   5.662   2.253  17.032 -0.7609  0.5698  0.1757
 7510TIP3   OH243944   5.584   5.657   4.621  0.3108 -0.7896  0.1101
 7510TIP3    H143945   5.659   5.626   4.570  0.8597 -4.2987  2.6674
 7510TIP3    H243946   5.507   5.625   4.574  0.5537 -0.0275 -0.8215
 7511TIP3   OH243947   6.375   5.526  11.170 -0.1541 -0.4652  0.2152
 7511TIP3    H143948   6.436   5.601  11.169 -0.5880 -0.0838  1.2160
 7511TIP3    H243949   6.295   5.560  11.131 -1.1938  0.3833  2.8740
 7512TIP3   OH243950   3.013   3.708  11.920  0.6149 -0.7896  0.0144
 7512TIP3    H143951   3.010   3.690  11.826  1.5908 -2.0767  0.2031
 7512TIP3    H243952   3.082   3.651  11.953  1.9437  1.3479  1.1448
 7513TIP3   OH243953   6.525   1.997  13.423 -0.3067  0.5316 -0.1167
 7513TIP3    H143954   6.608   1.950  13.415 -0.8246 -0.7735  1.6360
 7513TIP3    H243955   6.498   2.014  13.333 -0.6790 -3.6021 -0.9585
 7514TIP3   OH243956   5.319   5.146  10.821  0.1333  0.2806 -0.2910
 7514TIP3    H143957   5.303   5.229  10.775  0.3616  0.8948  0.7115
 7514TIP3    H243958   5.242   5.093  10.801 -0.7835  1.3291  0.3370
 7515TIP3   OH243959   5.342   5.382   2.085 -0.0334  0.4863  0.1880
 7515TIP3    H143960   5.423   5.332   2.074 -0.3746  0.0738 -0.5295
 7515TIP3    H243961   5.311   5.397   1.996 -0.4806  1.0896  0.4402
 7516TIP3   OH243962   0.097   3.289  14.060 -0.3388  0.0314 -0.2074
 7516TIP3    H143963   0.043   3.366  14.077 -1.3026 -0.9683  1.6473
 7516TIP3    H243964   0.171   3.298  14.121  0.7685  0.5752 -1.5795
 7517TIP3   OH243965   5.981   1.915  12.928  0.2678 -0.3702  0.6675
 7517TIP3    H143966   5.928   1.846  12.887  0.5024 -0.9328  1.3030
 7517TIP3    H243967   5.955   1.995  12.881 -0.5433 -0.7640  0.4128
 7518TIP3   OH243968   4.189   5.760   0.774 -0.3548 -0.2487  0.0001
 7518TIP3    H143969   4.161   5.787   0.861 -2.2088  1.8374 -1.1312
 7518TIP3    H243970   4.219   5.840   0.732  0.6804 -1.2396 -1.2566
 7519TIP3   OH243971   5.219   3.730   5.809  0.2412 -0.1766 -0.2608
 7519TIP3    H143972   5.130   3.719   5.776  0.2024 -0.1489 -0.1678
 7519TIP3    H243973   5.274   3.677   5.751  0.0094 -1.1785  0.4183
 7520TIP3   OH243974   1.552   3.765  13.426 -0.2329 -0.6598 -0.1145
 7520TIP3    H143975   1.571   3.851  13.389 -1.6674 -0.3514 -0.1663
 7520TIP3    H243976   1.572   3.775  13.520  0.3819 -0.5295 -0.2500
 7521TIP3   OH243977   6.179   3.429  16.391 -0.4017  0.0831 -0.1399
 7521TIP3    H143978   6.261   3.379  16.384 -1.2919 -1.9396  2.2285
 7521TIP3    H243979   6.125   3.395  16.320  0.0641 -0.1426 -0.3927
 7522TIP3   OH243980   3.490   2.426   1.021  0.1475 -0.5187  0.1945
 7522TIP3    H143981   3.426   2.362   0.989 -0.3348 -1.0134  2.0450
 7522TIP3    H243982   3.439   2.483   1.079  0.9066  0.5807 -0.1842
 7523TIP3   OH243983   1.484   4.851   5.388 -0.0602  0.5357 -0.2412
 7523TIP3    H143984   1.522   4.792   5.454  0.2980  0.1322 -0.8011
 7523TIP3    H243985   1.485   4.800   5.307 -0.8832  0.8783 -0.4772
 7524TIP3   OH243986   5.892   6.533   1.219 -0.1257  0.2597 -0.4287
 7524TIP3    H143987   5.830   6.495   1.282  0.1964 -0.0477 -0.2940
 7524TIP3    H243988   5.950   6.461   1.196 -0.5526  0.2318 -1.4760
 7525TIP3   OH243989   1.146   5.155  14.408  0.0975 -0.1283  0.4981
 7525TIP3    H143990   1.213   5.151  14.477 -1.3434 -0.3711  1.9572
 7525TIP3    H243991   1.070   5.193  14.451 -1.7050 -2.6403 -0.2087
 7526TIP3   OH243992   3.065   5.146   4.981 -0.2619  0.0038 -0.4150
 7526TIP3    H143993   3.012   5.167   4.904  0.9014 -0.0051 -1.2534
 7526TIP3    H243994   3.140   5.099   4.945  0.4665  0.2885  0.6925
 7527TIP3   OH243995   3.358   1.770  16.798 -0.1028 -0.2756  0.1160
 7527TIP3    H143996   3.396   1.806  16.718 -1.7313  0.0631 -0.5444
 7527TIP3    H243997   3.433   1.738  16.849  1.1039  1.1236 -0.7311
 7528TIP3   OH243998   1.611   6.626   2.195  0.2858 -0.4873 -0.1956
 7528TIP3    H143999   1.707   6.617   2.189  0.5856  2.2576 -1.3167
 7528TIP3    H244000   1.592   6.620   2.288  1.9984  1.7159  0.3743
 7529TIP3   OH244001   1.075   3.136  14.240 -0.3972  0.0323  0.2267
 7529TIP3    H144002   1.040   3.086  14.165  2.0755 -2.4175  0.5590
 7529TIP3    H244003   1.163   3.161  14.213 -0.1249  0.7329  1.6757
 7530TIP3   OH244004   6.578   1.715   6.537 -0.1178  0.2186  0.2695
 7530TIP3    H144005   6.492   1.673   6.534 -0.5429  1.1279 -1.9946
 7530TIP3    H244006   6.641   1.643   6.528 -0.6765 -0.3064  0.5033
 7531TIP3   OH244007   3.530   4.860   3.080  0.3172 -0.2685  0.1958
 7531TIP3    H144008   3.529   4.950   3.111 -0.7475  0.4816 -1.8386
 7531TIP3    H244009   3.567   4.810   3.152 -0.5721  1.5552  2.0018
 7532TIP3   OH244010   3.355   0.659  16.606 -0.0609 -0.0984 -0.4811
 7532TIP3    H144011   3.317   0.579  16.642  1.6254 -0.5610  0.4023
 7532TIP3    H244012   3.330   0.728  16.668 -0.2411 -0.2257 -0.4142
 7533TIP3   OH244013   2.652   6.771  11.842  0.7882 -0.1505 -0.1518
 7533TIP3    H144014   2.642   6.703  11.776  0.2462 -0.8753  0.6414
 7533TIP3    H244015   2.563   6.804  11.856  1.1551  1.4089 -1.1970
 7534TIP3   OH244016   1.992   1.704   2.080 -0.0310 -0.2622 -0.0364
 7534TIP3    H144017   1.917   1.760   2.100 -2.3840 -3.3013  0.1531
 7534TIP3    H244018   2.041   1.700   2.163 -0.2317  0.8294  0.1525
 7535TIP3   OH244019   5.231   5.819  13.419 -0.2758 -0.3783  0.4556
 7535TIP3    H144020   5.299   5.826  13.351 -1.5462  1.3824 -0.7183
 7535TIP3    H244021   5.178   5.744  13.392 -0.3655 -0.1123 -0.1230
 7536TIP3   OH244022   4.081   1.508   1.001 -0.0331  0.0354  0.1035
 7536TIP3    H144023   4.139   1.440   0.965  1.0430  1.4527 -0.9649
 7536TIP3    H244024   4.116   1.525   1.089 -1.6577 -2.2675  1.2980
 7537TIP3   OH244025   0.506   4.290   4.497  0.0455 -0.5247  0.0497
 7537TIP3    H144026   0.554   4.220   4.542  1.1312 -0.0193 -0.2974
 7537TIP3    H244027   0.420   4.291   4.541  1.2302  0.3573  2.5529
 7538TIP3   OH244028   4.998   4.489   5.216  0.0801  0.4336 -0.6176
 7538TIP3    H144029   4.953   4.567   5.183 -2.2131  0.2510  1.7489
 7538TIP3    H244030   5.039   4.518   5.298  1.0672 -0.3477 -0.8230
 7539TIP3   OH244031   5.949   1.883   6.120  0.0143  0.2078  0.2867
 7539TIP3    H144032   5.914   1.968   6.094  0.0780  0.5534  1.2672
 7539TIP3    H244033   5.967   1.893   6.214  0.7540 -0.6387  0.2456
 7540TIP3   OH244034   3.456   2.112  12.811 -0.0166 -0.4962 -0.1027
 7540TIP3    H144035   3.513   2.043  12.846 -0.5348 -1.5488 -1.2683
 7540TIP3    H244036   3.428   2.161  12.888  2.1959 -0.1410  0.5468
 7541TIP3   OH244037   2.223   0.019   5.971 -0.6398 -0.8843  0.7011
 7541TIP3    H144038   2.150  -0.041   5.981  0.6042 -2.7722 -0.9654
 7541TIP3    H244039   2.283  -0.025   5.911  0.6215  1.7723 -0.1459
 7542TIP3   OH244040   0.443   2.486   4.641 -0.8506  0.0038  0.8198
 7542TIP3    H144041   0.514   2.424   4.656  0.4812  0.9535 -1.1416
 7542TIP3    H244042   0.484   2.572   4.649 -1.0957  0.6056 -2.6700
 7543TIP3   OH244043   5.812   1.630  13.780 -0.3911 -0.2427  0.0710
 7543TIP3    H144044   5.804   1.647  13.687  0.2449  0.8397  0.1894
 7543TIP3    H244045   5.899   1.590  13.790 -2.0546 -4.4272 -0.2686
 7544TIP3   OH244046   6.191   5.110   1.430  0.3488 -0.9817 -0.1964
 7544TIP3    H144047   6.245   5.083   1.355  0.7921 -1.4622  0.2834
 7544TIP3    H244048   6.116   5.051   1.428  0.6946 -1.4339  0.1257
 7545TIP3   OH244049   2.256   6.198  15.701 -0.1609  0.0471 -0.0649
 7545TIP3    H144050   2.260   6.285  15.662  0.1542 -0.2185 -0.6423
 7545TIP3    H244051   2.254   6.213  15.795  1.6963  0.6467 -0.0813
 7546TIP3   OH244052   5.052   2.399  14.454  0.0315 -0.1122  0.3966
 7546TIP3    H144053   5.053   2.304  14.460 -1.9731 -0.2089 -0.1473
 7546TIP3    H244054   4.961   2.423  14.469  0.8013  1.8931  2.5083
 7547TIP3   OH244055   5.632   2.751   6.573  0.4187 -0.1432 -0.3054
 7547TIP3    H144056   5.580   2.815   6.620  0.3991  0.2402 -0.8471
 7547TIP3    H244057   5.625   2.776   6.481  1.5527 -0.0779 -0.3947
 7548TIP3   OH244058   2.491   5.582   3.305 -0.3390 -0.3910 -0.3189
 7548TIP3    H144059   2.506   5.660   3.358 -1.5288 -0.2486 -0.1669
 7548TIP3    H244060   2.430   5.529   3.356 -1.3541 -0.3433 -1.4200
 7549TIP3   OH244061   2.373   1.281   3.514  0.3833  0.3054  0.4122
 7549TIP3    H144062   2.460   1.297   3.480  0.5739 -1.4323 -0.0192
 7549TIP3    H244063   2.314   1.329   3.455  0.8618 -0.8736 -1.0851
 7550TIP3   OH244064   1.806   2.233   1.185 -0.3639 -0.2398  0.6786
 7550TIP3    H144065   1.718   2.260   1.211 -0.8492 -0.0170 -1.0562
 7550TIP3    H244066   1.800   2.138   1.175 -0.1801 -0.3242  1.3048
 7551TIP3   OH244067   1.639   4.493   5.701  0.6097  1.0265  0.0378
 7551TIP3    H144068   1.709   4.454   5.649 -0.3825 -0.1379 -0.4932
 7551TIP3    H244069   1.601   4.559   5.643 -0.1189  0.1329 -0.5401
 7552TIP3   OH244070   0.916   3.331  12.849 -0.1812  0.7761 -0.0635
 7552TIP3    H144071   0.945   3.281  12.773  0.1660  2.2008 -0.9005
 7552TIP3    H244072   0.847   3.277  12.888  0.1186 -0.3035 -0.9778
 7553TIP3   OH244073   2.852   2.417  12.220 -0.2796  0.3401  0.1914
 7553TIP3    H144074   2.935   2.374  12.239  0.0924  0.3562 -1.2749
 7553TIP3    H244075   2.786   2.349  12.235 -0.1701  0.7109  2.6928
 7554TIP3   OH244076   6.620   4.881   1.989 -0.2916  0.3781  0.6851
 7554TIP3    H144077   6.651   4.914   1.905 -1.7208 -0.3592 -0.1747
 7554TIP3    H244078   6.559   4.948   2.021 -0.9805 -0.0589  0.3284
 7555TIP3   OH244079   1.003   3.300   5.084  0.6124  0.2397  0.3029
 7555TIP3    H144080   0.909   3.301   5.103  0.5745 -0.9360  0.2492
 7555TIP3    H244081   1.008   3.300   4.988  0.6594 -0.1091  0.3056
 7556TIP3   OH244082   1.951   2.522   2.349  0.2217  0.3173 -0.2297
 7556TIP3    H144083   1.999   2.550   2.271  0.1053  0.0730 -0.3913
 7556TIP3    H244084   1.916   2.603   2.386  0.7805  0.5029 -0.0899
 7557TIP3   OH244085   4.021   2.308  14.225  0.4047  0.1678  0.7212
 7557TIP3    H144086   4.079   2.319  14.300  1.7027  2.7842 -0.5049
 7557TIP3    H244087   3.979   2.394  14.215 -0.1413 -0.2719 -1.1848
 7558TIP3   OH244088   4.735   5.888   3.845  0.0472 -0.0179  0.6030
 7558TIP3    H144089   4.748   5.818   3.910  1.1179 -0.1903  0.2236
 7558TIP3    H244090   4.785   5.859   3.769  0.1419  0.9629  0.2855
 7559TIP3   OH244091   4.796   1.394  11.848 -0.2414  0.3802  0.1854
 7559TIP3    H144092   4.711   1.421  11.813 -0.2740  0.9565  0.6902
 7559TIP3    H244093   4.827   1.470  11.898 -1.0141 -0.9669  2.9227
 7560TIP3   OH244094   3.296   6.537   0.335 -0.0880  0.0549  0.1035
 7560TIP3    H144095   3.359   6.468   0.311  0.5088  0.5793  0.1322
 7560TIP3    H244096   3.333   6.616   0.296 -1.2545  0.2029 -0.7273
 7561TIP3   OH244097   0.550   0.828  14.083 -0.0835 -0.1945  0.1646
 7561TIP3    H144098   0.531   0.736  14.099 -0.2043 -0.0729  0.7422
 7561TIP3    H244099   0.490   0.853  14.012 -1.8404  0.0558  1.6376
 7562TIP3   OH244100   6.512   0.753   1.936 -0.3657  0.3891 -0.3450
 7562TIP3    H144101   6.421   0.760   1.906 -0.2953 -0.2302 -0.7290
 7562TIP3    H244102   6.563   0.799   1.869 -0.4626  1.4724  0.3026
 7563TIP3   OH244103   0.584   3.766  12.239  0.5852  0.0616 -0.6542
 7563TIP3    H144104   0.500   3.741  12.275  0.7881 -0.6791 -0.6882
 7563TIP3    H244105   0.563   3.823  12.165  0.1504  0.9777  0.1440
 7564TIP3   OH244106   4.472   0.756  10.512 -0.2841 -0.4055 -0.0578
 7564TIP3    H144107   4.424   0.700  10.451 -2.9463  1.8017 -0.1766
 7564TIP3    H244108   4.523   0.815  10.455  1.3236 -1.6422  0.0389
 7565TIP3   OH244109   1.529   6.386  15.886 -0.3166 -0.3438 -0.5535
 7565TIP3    H144110   1.502   6.294  15.897 -1.1790 -0.1398 -0.8660
 7565TIP3    H244111   1.612   6.382  15.840 -0.6118 -0.9596 -1.0434
 7566TIP3   OH244112   4.711   2.556  12.796  0.1777  0.7119  0.4498
 7566TIP3    H144113   4.800   2.534  12.769  0.9059  0.5891  2.7759
 7566TIP3    H244114   4.690   2.636  12.747  0.5807 -0.5610 -1.9610
 7567TIP3   OH244115   0.718   4.043   5.849 -0.2796  0.1876 -0.3150
 7567TIP3    H144116   0.752   4.089   5.925  0.1711  0.9834 -0.9893
 7567TIP3    H244117   0.651   3.985   5.885  0.1374  0.3199  0.7249
 7568TIP3   OH244118   0.128   1.606  11.321 -0.2618  0.6541 -0.0819
 7568TIP3    H144119   0.105   1.678  11.380  0.8014  2.0299 -1.2710
 7568TIP3    H244120   0.208   1.636  11.277  1.8885 -2.3825  1.3669
 7569TIP3   OH244121   1.219   1.943  10.985  0.3628  0.3431  0.4352
 7569TIP3    H144122   1.215   1.848  10.983  1.6340  0.2768 -1.0205
 7569TIP3    H244123   1.191   1.970  10.897 -4.6868  1.6590  2.1423
 7570TIP3   OH244124   1.224   0.649  11.590  0.0256  0.1327 -0.9405
 7570TIP3    H144125   1.306   0.600  11.590 -0.6189 -1.0149  0.6750
 7570TIP3    H244126   1.195   0.646  11.499  0.7512 -1.2189 -1.1532
 7571TIP3   OH244127   3.935   1.987   1.391  0.4238  0.6467 -0.2107
 7571TIP3    H144128   3.882   1.935   1.452  0.7065  0.8591  0.2252
 7571TIP3    H244129   3.913   1.953   1.304  1.1414 -0.7021  0.0990
 7572TIP3   OH244130   1.945   2.774  14.191  0.1414 -0.1389  0.1131
 7572TIP3    H144131   1.966   2.783  14.284 -1.5428 -1.7806  0.7345
 7572TIP3    H244132   2.002   2.703  14.160 -0.0519 -0.3200  0.1721
 7573TIP3   OH244133   3.661   2.306   0.824 -0.0029 -0.0410  0.3563
 7573TIP3    H144134   3.585   2.362   0.839 -0.3219  0.1649 -1.7368
 7573TIP3    H244135   3.624   2.219   0.811  0.2784 -0.2555  0.9474
 7574TIP3   OH244136   6.584   3.304   1.912  0.2794  0.7916  0.2982
 7574TIP3    H144137   6.583   3.242   1.839 -0.9047  2.3083 -1.0530
 7574TIP3    H244138   6.609   3.251   1.988  0.7240 -1.0184 -1.0327
 7575TIP3   OH244139   3.321   6.116   2.358  0.3034  0.3502 -0.2277
 7575TIP3    H144140   3.281   6.068   2.285  0.2595 -0.0239  0.0383
 7575TIP3    H244141   3.260   6.187   2.376  0.4975  0.6682 -0.7967
 7576TIP3   OH244142   6.543   6.757  16.016 -1.0690 -0.0125 -0.1382
 7576TIP3    H144143   6.499   6.673  16.027  0.8163 -1.2494 -1.3881
 7576TIP3    H244144   6.502   6.795  15.938 -1.8337  0.1850  0.3510
 7577TIP3   OH244145   6.709   1.395  13.324 -0.0157 -0.6668  0.1529
 7577TIP3    H144146   6.697   1.487  13.303 -0.1806 -0.6033  0.5350
 7577TIP3    H244147   6.621   1.362  13.342 -0.0583 -1.0874 -0.7526
 7578TIP3   OH244148   6.623   3.961  14.112  0.5615  0.1242  1.1158
 7578TIP3    H144149   6.703   4.014  14.112 -0.8002  2.2720  0.8080
 7578TIP3    H244150   6.612   3.934  14.203  0.7720  1.1847  1.4668
 7579TIP3   OH244151   6.504   5.078   2.492  0.0060 -0.2212  0.0725
 7579TIP3    H144152   6.514   5.004   2.432  1.4192  1.0771 -1.3878
 7579TIP3    H244153   6.538   5.046   2.576  0.2867 -1.3250 -0.4456
 7580TIP3   OH244154   3.802   2.194  14.329 -0.4987  0.2057  0.4830
 7580TIP3    H144155   3.736   2.148  14.278 -1.4253  0.8348  1.0899
 7580TIP3    H244156   3.876   2.205  14.269 -0.9932 -0.3754 -0.2487
 7581TIP3   OH244157   5.750   6.249  15.487  0.4808  0.4077 -0.2479
 7581TIP3    H144158   5.821   6.262  15.549  0.8120  0.1956 -0.5776
 7581TIP3    H244159   5.690   6.322  15.503 -0.4530 -0.6978  1.6885
 7582TIP3   OH244160   4.246   2.843   6.064 -0.2909 -0.3007 -0.6338
 7582TIP3    H144161   4.290   2.833   6.148 -1.2450 -1.8262 -0.2681
 7582TIP3    H244162   4.153   2.853   6.086 -0.6844 -1.6603 -1.4912
 7583TIP3   OH244163   3.243   3.477  15.450  0.3330 -0.4803 -0.5235
 7583TIP3    H144164   3.155   3.498  15.481  0.7492  1.1344 -0.3010
 7583TIP3    H244165   3.257   3.536  15.376  2.0153  0.9707  0.8579
 7584TIP3   OH244166   5.745   4.322  13.554 -0.5233 -0.3056 -0.1200
 7584TIP3    H144167   5.707   4.374  13.625  0.1792 -0.6685  0.5292
 7584TIP3    H244168   5.778   4.243  13.597  0.7445 -0.1111 -0.7059
 7585TIP3   OH244169   4.052   0.236   3.833  0.2869 -0.4528 -0.3513
 7585TIP3    H144170   4.068   0.213   3.742  0.3625 -0.0895 -0.4308
 7585TIP3    H244171   3.997   0.314   3.829 -1.0388 -1.3471 -0.0808
 7586TIP3   OH244172   4.952   5.500  16.710 -0.6920 -0.2234 -0.3350
 7586TIP3    H144173   5.030   5.447  16.695 -0.0158  0.2478  1.2642
 7586TIP3    H244174   4.910   5.507  16.624  1.7625  0.7041 -1.5294
 7587TIP3   OH244175   4.753   0.798   1.564 -0.0545 -0.1589 -0.1323
 7587TIP3    H144176   4.719   0.870   1.511 -2.1795 -0.6980  0.4010
 7587TIP3    H244177   4.847   0.796   1.544 -0.5263  0.4785 -2.8564
 7588TIP3   OH244178   2.479   4.317   2.087  0.3918  0.0706  0.4671
 7588TIP3    H144179   2.392   4.306   2.048  0.6331 -0.7389  0.1340
 7588TIP3    H244180   2.466   4.384   2.154 -0.3041  0.5775 -0.1491
 7589TIP3   OH244181   1.150   2.604  13.048 -0.4267 -0.1848 -0.2522
 7589TIP3    H144182   1.112   2.620  12.961  2.0224 -2.1090 -1.8365
 7589TIP3    H244183   1.225   2.663  13.052 -0.6094 -0.0048  0.6382
 7590TIP3   OH244184   3.675   2.748  14.872 -0.2678 -0.5079 -0.3676
 7590TIP3    H144185   3.669   2.701  14.789  1.5716 -0.8724 -0.3341
 7590TIP3    H244186   3.720   2.829  14.850  2.5858 -1.6989  0.6016
 7591TIP3   OH244187   6.543   4.447   3.370  0.3328  1.0051 -0.2343
 7591TIP3    H144188   6.456   4.442   3.331  1.0338  0.8001 -1.8630
 7591TIP3    H244189   6.537   4.519   3.433 -0.7555  1.6798 -1.0704
 7592TIP3   OH244190   0.373   1.995  14.561  0.4676  0.2609  0.1845
 7592TIP3    H144191   0.397   2.086  14.582 -2.4428  1.2196 -0.1828
 7592TIP3    H244192   0.329   2.001  14.476 -0.1035 -1.4417  0.3232
 7593TIP3   OH244193   5.815   0.152   2.782 -0.1380 -0.1759 -0.4366
 7593TIP3    H144194   5.823   0.104   2.865 -2.6784 -1.7466 -0.9789
 7593TIP3    H244195   5.846   0.090   2.716  0.6024  0.5740 -0.8152
 7594TIP3   OH244196   1.443   4.729  11.087  0.2679  0.3271  0.1292
 7594TIP3    H144197   1.467   4.736  10.995  0.1187  0.8716  0.1236
 7594TIP3    H244198   1.453   4.819  11.120  1.4888 -0.0856  0.9401
 7595TIP3   OH244199   1.960   6.810   6.269  0.2400  0.0898 -0.0822
 7595TIP3    H144200   1.940   6.891   6.222  0.4147 -1.1312 -2.3979
 7595TIP3    H244201   2.021   6.837   6.337  2.4450  1.5867 -2.4592
 7596TIP3   OH244202   5.442   0.055  12.108  0.1334  0.3618  0.0112
 7596TIP3    H144203   5.501   0.103  12.051  1.2164 -0.8632  0.0512
 7596TIP3    H244204   5.443  -0.035  12.074 -0.1640 -0.1200  1.2045
 7597TIP3   OH244205   3.131   2.966  15.423 -0.1203  0.3494  0.5260
 7597TIP3    H144206   3.134   3.062  15.422 -3.4759  0.7043 -3.4956
 7597TIP3    H244207   3.058   2.946  15.483 -1.3240  0.6130 -0.7927
 7598TIP3   OH244208   2.108   6.801  12.781 -0.0564  0.3187 -0.0524
 7598TIP3    H144209   2.128   6.894  12.773  3.4913 -0.4017 -0.8701
 7598TIP3    H244210   2.118   6.782  12.875  0.6002  0.4814 -0.0901
 7599TIP3   OH244211   4.519   5.623  17.074  0.4527  0.8735 -0.1817
 7599TIP3    H144212   4.482   5.642  17.160 -0.3888  1.3351 -0.6359
 7599TIP3    H244213   4.448   5.642  17.013  1.1605  0.9028 -1.0064
 7600TIP3   OH244214   3.980   3.902  14.451 -0.3867  0.1104  0.3966
 7600TIP3    H144215   4.073   3.888  14.431 -0.3408  1.5997 -0.5278
 7600TIP3    H244216   3.935   3.832  14.402  0.2590 -1.1261  1.4917
 7601TIP3   OH244217   6.172   1.403   4.152  0.1475 -0.5630  0.0999
 7601TIP3    H144218   6.206   1.389   4.241  0.6590 -0.3840 -0.0642
 7601TIP3    H244219   6.229   1.350   4.096 -0.5946 -1.2133 -0.0535
 7602TIP3   OH244220   0.496   0.797   6.178 -0.3250  0.4433 -0.5224
 7602TIP3    H144221   0.557   0.816   6.106 -1.6678  0.4448 -1.7088
 7602TIP3    H244222   0.456   0.881   6.198 -0.9671  0.2036 -0.7560
 7603TIP3   OH244223   6.614   2.013  14.881 -0.4400  0.1974 -0.4215
 7603TIP3    H144224   6.532   2.060  14.864 -0.4548 -0.1281 -1.3544
 7603TIP3    H244225   6.648   1.993  14.793  0.4544  0.0156 -0.0417
 7604TIP3   OH244226   0.359   1.668  12.705  0.3073 -0.0884  0.2206
 7604TIP3    H144227   0.433   1.607  12.705  1.1192  0.8822  0.0838
 7604TIP3    H244228   0.297   1.629  12.766  1.7590  0.0326  1.8640
 7605TIP3   OH244229   0.904   1.289  10.473  0.2194 -0.6927  0.3260
 7605TIP3    H144230   0.944   1.223  10.529  0.3061 -1.1535 -0.2635
 7605TIP3    H244231   0.813   1.260  10.462  0.2060 -0.6131  0.2233
 7606TIP3   OH244232   0.170   2.102   4.619  0.5353  1.0453  0.4916
 7606TIP3    H144233   0.193   2.192   4.598  0.2371  1.3493  1.4334
 7606TIP3    H244234   0.227   2.079   4.693  1.1652  0.1901 -0.2373
 7607TIP3   OH244235   1.599   4.994   4.185 -0.1484 -0.6730  0.1633
 7607TIP3    H144236   1.575   4.976   4.276  0.3836  0.8257  0.6375
 7607TIP3    H244237   1.540   5.064   4.158  1.9256  1.3796  0.5671
 7608TIP3   OH244238   4.508   5.812  15.991 -0.3809  0.0785 -0.1525
 7608TIP3    H144239   4.539   5.722  15.999 -0.8850 -0.2716 -1.8287
 7608TIP3    H244240   4.580   5.865  16.027  0.8313 -0.8883 -1.0580
 7609TIP3   OH244241   5.621   1.166   0.245 -0.1450  0.2523 -0.1249
 7609TIP3    H144242   5.577   1.249   0.226  1.6181  0.6448 -3.1839
 7609TIP3    H244243   5.709   1.191   0.275  0.2636 -0.4787 -0.6643
 7610TIP3   OH244244   4.516   3.786   5.223  0.4814 -0.1848  0.3584
 7610TIP3    H144245   4.574   3.728   5.175 -0.8404 -1.1606 -0.1125
 7610TIP3    H244246   4.447   3.809   5.160 -0.0834  0.2983  1.1316
 7611TIP3   OH244247   4.729   1.753  11.297  0.4525  0.1681 -0.1091
 7611TIP3    H144248   4.753   1.661  11.286  1.6223  0.2818  1.1988
 7611TIP3    H244249   4.755   1.795  11.216 -0.0270 -0.6271 -0.6955
 7612TIP3   OH244250   5.989   5.570   1.746 -0.1843  0.2154  0.1680
 7612TIP3    H144251   6.071   5.620   1.736  0.2568 -0.4828  0.2103
 7612TIP3    H244252   5.924   5.635   1.770  0.7701  0.5027  2.1214
 7613TIP3   OH244253   3.489   3.651   5.590  0.0983  0.4181 -0.5139
 7613TIP3    H144254   3.570   3.610   5.559  1.0033  2.0930 -0.4858
 7613TIP3    H244255   3.429   3.645   5.515  0.0462 -1.2528 -0.3806
 7614TIP3   OH244256   3.807   0.104   3.667 -0.1456  0.1024 -0.2975
 7614TIP3    H144257   3.896   0.119   3.636 -0.4810  1.8226 -0.5032
 7614TIP3    H244258   3.809   0.129   3.759  0.1142 -2.1185  0.3599
 7615TIP3   OH244259   1.213   2.462   4.635  0.1508 -0.6880 -0.5934
 7615TIP3    H144260   1.207   2.557   4.641  0.8272 -0.7184  1.3995
 7615TIP3    H244261   1.130   2.435   4.595  0.1815  0.7582 -1.6943
 7616TIP3   OH244262   3.914   5.746  13.347 -0.2269 -0.8389 -0.7075
 7616TIP3    H144263   3.908   5.656  13.379 -3.6110 -1.4548 -2.5593
 7616TIP3    H244264   3.862   5.797  13.409 -0.3883 -0.6546 -0.9883
 7617TIP3   OH244265   4.701   1.682  15.794 -0.1943  0.3451  0.0694
 7617TIP3    H144266   4.658   1.744  15.734 -1.8242  0.3783  1.1950
 7617TIP3    H244267   4.647   1.603  15.788  0.3702 -0.0828  0.5628
 7618TIP3   OH244268   1.168   1.487   2.638  0.6070  0.5638  0.4321
 7618TIP3    H144269   1.108   1.557   2.613  0.5250  1.3350  2.5777
 7618TIP3    H244270   1.136   1.410   2.591 -1.2702  1.2562  0.4889
 7619TIP3   OH244271   5.820   4.524   4.957 -0.1055  0.1562  0.3386
 7619TIP3    H144272   5.786   4.451   5.009 -1.4725  0.6845  0.2273
 7619TIP3    H244273   5.816   4.494   4.867 -2.8434  1.0982  0.0462
 7620TIP3   OH244274   0.338   5.510  16.729  0.2610  0.0340  0.3374
 7620TIP3    H144275   0.256   5.477  16.693  1.1086  0.1307 -1.8715
 7620TIP3    H244276   0.318   5.600  16.755 -0.4129 -0.0414  0.0959
 7621TIP3   OH244277   5.861   5.397   3.706 -0.1290  0.2847  0.1697
 7621TIP3    H144278   5.898   5.353   3.630 -1.2745 -0.1594 -0.1608
 7621TIP3    H244279   5.918   5.371   3.779  1.2193  1.0545 -0.5831
 7622TIP3   OH244280   4.585   5.701  15.171  0.3720 -0.1344  0.3083
 7622TIP3    H144281   4.644   5.639  15.129 -0.9536  0.2164 -2.2185
 7622TIP3    H244282   4.498   5.681  15.135 -0.1075  3.1669 -0.6723
 7623TIP3   OH244283   2.778   1.830   5.752  0.0317 -0.4133  0.0549
 7623TIP3    H144284   2.795   1.920   5.780 -0.6292 -0.1915 -0.2217
 7623TIP3    H244285   2.730   1.791   5.825 -1.5593  0.1197 -0.6607
 7624TIP3   OH244286   4.814   0.284  11.248 -0.2924  0.3988 -0.1503
 7624TIP3    H144287   4.825   0.284  11.344 -1.1154 -0.0273 -0.0490
 7624TIP3    H244288   4.898   0.316  11.215 -0.1232  0.9148  0.7303
 7625TIP3   OH244289   2.354   4.033   5.838 -0.0045 -0.0352  0.2280
 7625TIP3    H144290   2.263   4.045   5.864  0.0781 -0.6785  0.8448
 7625TIP3    H244291   2.398   4.002   5.917  0.4386 -1.1702 -0.4262
 7626TIP3   OH244292   1.463   6.629  11.871  0.0824 -0.4149  0.1580
 7626TIP3    H144293   1.483   6.536  11.883  3.2224  0.3057  1.7437
 7626TIP3    H244294   1.484   6.647  11.779 -2.2302 -1.5027 -0.6747
 7627TIP3   OH244295   4.018   6.178   5.839 -0.5865  0.0743 -0.4775
 7627TIP3    H144296   4.069   6.203   5.916 -2.7106  3.1627  0.0709
 7627TIP3    H244297   3.959   6.110   5.871  1.0094 -1.3512 -0.3930
 7628TIP3   OH244298   4.020   4.131  13.277  0.2028  0.2439  0.1478
 7628TIP3    H144299   4.087   4.177  13.329  0.3371  0.3186 -0.0880
 7628TIP3    H244300   4.040   4.038  13.288  2.0344  0.2854 -2.0679
 7629TIP3   OH244301   0.189   0.200  16.882  0.2128 -0.1591  0.3644
 7629TIP3    H144302   0.094   0.197  16.868  0.0819  0.6472  0.9620
 7629TIP3    H244303   0.224   0.131  16.826 -0.4517  1.4519 -2.2631
 7630TIP3   OH244304   3.982   1.433   4.081 -0.0338  0.0204 -0.3272
 7630TIP3    H144305   4.051   1.422   4.147  0.0648 -0.5368 -0.5257
 7630TIP3    H244306   4.026   1.476   4.008  0.3598 -1.3016 -0.8814
 7631TIP3   OH244307   4.917   0.963   4.245 -0.1005  0.2903 -0.2233
 7631TIP3    H144308   4.970   1.007   4.178  0.1571 -1.4589 -1.2448
 7631TIP3    H244309   4.833   0.946   4.201  0.1164 -0.9980 -0.1664
 7632TIP3   OH244310   5.442   4.095  13.742 -0.3229  0.0896  0.1419
 7632TIP3    H144311   5.471   4.046  13.665  0.3893  1.1952 -0.3117
 7632TIP3    H244312   5.511   4.080  13.807 -1.4074 -1.6802  0.9755
 7633TIP3   OH244313   2.591   5.477  13.852 -0.0966 -0.4695  0.3303
 7633TIP3    H144314   2.547   5.437  13.777  1.3071 -1.6475  0.0726
 7633TIP3    H244315   2.527   5.472  13.923 -1.1403 -0.1114 -0.5509
 7634TIP3   OH244316   3.411   0.661   2.134 -0.0173 -0.0477  0.3059
 7634TIP3    H144317   3.323   0.636   2.160 -0.3753  0.1682 -0.6877
 7634TIP3    H244318   3.468   0.596   2.176 -0.6907 -0.5642  0.4249
 7635TIP3   OH244319   2.447   5.571  15.426  0.7233  0.0853 -0.3121
 7635TIP3    H144320   2.370   5.558  15.482  1.6760  0.1236  1.0624
 7635TIP3    H244321   2.485   5.654  15.457  2.6935 -1.1444  0.7724
 7636TIP3   OH244322   3.150   2.786  11.422 -0.3495  0.4223  0.1504
 7636TIP3    H144323   3.207   2.769  11.497  0.6374 -1.4433 -0.9393
 7636TIP3    H244324   3.185   2.731  11.352 -1.3213  1.9656 -1.6619
 7637TIP3   OH244325   3.183   1.612   4.950 -0.3084 -0.7589 -0.2546
 7637TIP3    H144326   3.161   1.631   4.859 -0.0256  0.1474 -0.1439
 7637TIP3    H244327   3.101   1.625   4.998 -0.1338  0.2022 -0.1875
 7638TIP3   OH244328   3.960   4.427  15.573 -0.0883  0.2771  0.3168
 7638TIP3    H144329   3.898   4.375  15.624  1.6931 -0.0745  2.2812
 7638TIP3    H244330   4.036   4.437  15.630  1.0820  1.9936 -1.3854
 7639TIP3   OH244331   4.658   5.892   3.419 -0.0538 -0.1069 -0.5862
 7639TIP3    H144332   4.706   5.880   3.501 -0.5113  0.6069 -0.2078
 7639TIP3    H244333   4.716   5.947   3.366  0.2690 -0.6187 -0.7725
 7640TIP3   OH244334   6.736   3.057  10.924 -0.0685 -0.1265  0.2832
 7640TIP3    H144335   6.697   3.000  10.990 -0.0307  0.5076  0.8624
 7640TIP3    H244336   6.769   2.997  10.857 -1.1841 -0.7173  0.2436
 7641TIP3   OH244337   5.864   6.413  12.404 -0.0535 -0.7091  0.1648
 7641TIP3    H144338   5.773   6.444  12.399 -0.1547 -1.0734 -0.3185
 7641TIP3    H244339   5.858   6.334  12.459 -0.4553 -2.2121 -1.9015
 7642TIP3   OH244340   0.842   2.605   4.759 -0.0281  0.1216 -0.3216
 7642TIP3    H144341   0.792   2.616   4.840  0.5479  0.5871 -0.0256
 7642TIP3    H244342   0.829   2.688   4.712 -0.9815 -0.4248 -1.0638
 7643TIP3   OH244343   1.462   2.192  14.451 -0.2344  0.2357 -0.2005
 7643TIP3    H144344   1.445   2.200  14.358  1.8539  1.4183 -0.5339
 7643TIP3    H244345   1.532   2.128  14.458 -0.0139  0.5364  0.5138
 7644TIP3   OH244346   2.651   6.119   0.002  0.0177 -0.2322 -0.2046
 7644TIP3    H144347   2.584   6.128   0.071 -0.9285 -2.0277 -0.8159
 7644TIP3    H244348   2.602   6.085  -0.073  0.9767  1.9514 -1.8889
 7645TIP3   OH244349   0.023   0.601   3.271  0.3353 -0.2167  0.3027
 7645TIP3    H144350  -0.045   0.566   3.214 -1.8092  0.1192  2.4824
 7645TIP3    H244351   0.039   0.531   3.334  0.6544  0.3949  0.9089
 7646TIP3   OH244352   3.118   2.065   2.959  0.4063 -0.2458 -0.0345
 7646TIP3    H144353   3.146   1.974   2.949  1.3809  0.1695 -1.5011
 7646TIP3    H244354   3.191   2.116   2.923 -0.6183  1.0651 -0.3261
 7647TIP3   OH244355   1.734   3.459   0.426 -0.1445 -0.3340 -0.2520
 7647TIP3    H144356   1.804   3.454   0.361  1.2049  2.2995  0.8515
 7647TIP3    H244357   1.728   3.369   0.461  1.4745 -1.0190 -1.5898
 7648TIP3   OH244358   6.113   5.619  16.795 -0.1811  0.2331 -0.4902
 7648TIP3    H144359   6.169   5.571  16.855 -2.1154 -1.3569  0.1669
 7648TIP3    H244360   6.133   5.711  16.812  0.6079 -0.2288  1.3331
 7649TIP3   OH244361   2.683   3.294  13.469  0.0780  0.6656  0.0559
 7649TIP3    H144362   2.720   3.279  13.383 -1.6840 -1.9525 -0.3524
 7649TIP3    H244363   2.606   3.349  13.453 -1.7739 -1.9327 -0.5168
 7650TIP3   OH244364   3.150   4.899  14.052 -0.1982  0.5588  0.0299
 7650TIP3    H144365   3.133   4.939  13.966  0.7538 -0.1061 -0.4884
 7650TIP3    H244366   3.218   4.834  14.035 -1.5288 -1.1376  0.8796
 7651TIP3   OH244367   5.221   0.446  13.691  0.3400 -0.8246 -0.0459
 7651TIP3    H144368   5.173   0.402  13.620  3.8458 -2.4581 -1.6577
 7651TIP3    H244369   5.275   0.511  13.647  0.4698  0.1617  1.5149
 7652TIP3   OH244370   4.964   2.465  11.538  0.5440  0.4902  0.2858
 7652TIP3    H144371   4.904   2.405  11.495  2.5024  0.1337 -2.1862
 7652TIP3    H244372   5.013   2.411  11.600  0.7530  0.0012 -0.3006
 7653TIP3   OH244373   5.310   2.319   5.542  0.2965  0.2448 -0.5139
 7653TIP3    H144374   5.247   2.367   5.595  0.3133 -2.0259  1.7270
 7653TIP3    H244375   5.343   2.250   5.599  2.0545 -0.9551 -2.7921
 7654TIP3   OH244376   4.330   5.076  16.312 -0.0615  0.1101  0.4780
 7654TIP3    H144377   4.350   5.061  16.220 -2.1037  0.9138 -0.1486
 7654TIP3    H244378   4.311   5.170  16.318  1.2826  0.3351  2.0037
 7655TIP3   OH244379   6.317   6.464  15.786  0.3490  0.2862 -0.5559
 7655TIP3    H144380   6.384   6.470  15.854 -1.4402 -2.0147  1.6537
 7655TIP3    H244381   6.237   6.495  15.829 -0.6963 -0.4497 -1.8973
 7656TIP3   OH244382   3.051   3.168   1.169 -0.2744  0.3452 -0.0113
 7656TIP3    H144383   3.036   3.088   1.119 -0.6570  1.1978 -1.2971
 7656TIP3    H244384   3.109   3.141   1.240  0.2801 -0.9109 -0.9047
 7657TIP3   OH244385   5.268   2.932   4.747  0.2995 -0.2806  0.3124
 7657TIP3    H144386   5.361   2.915   4.734  0.2242 -0.3002 -0.2295
 7657TIP3    H244387   5.260   2.955   4.839  1.0424  1.0197  0.0803
 7658TIP3   OH244388   0.374   0.970   3.487  0.0326 -0.4514 -0.0140
 7658TIP3    H144389   0.380   1.053   3.534 -0.5491 -0.3700 -0.0764
 7658TIP3    H244390   0.461   0.957   3.450 -0.0039  0.3751 -0.4097
 7659TIP3   OH244391   0.236   1.074   2.062 -0.2582 -0.6832 -0.2234
 7659TIP3    H144392   0.306   1.082   1.997 -0.1741 -0.1625 -0.0700
 7659TIP3    H244393   0.225   1.162   2.097 -1.1301 -0.7194 -0.3861
 7660TIP3   OH244394   3.571   5.830   1.016  0.1627  0.1485  0.5408
 7660TIP3    H144395   3.502   5.816   1.081  1.9644 -0.1355  2.4870
 7660TIP3    H244396   3.613   5.912   1.042  0.9207  0.0436 -0.2953
 7661TIP3   OH244397   5.502   1.592   4.138  0.3276 -0.1888 -0.4039
 7661TIP3    H144398   5.519   1.648   4.063  1.2308  1.2871  0.8338
 7661TIP3    H244399   5.576   1.532   4.140  0.5533  0.0859 -0.4270
 7662TIP3   OH244400   2.986   0.003   1.549 -0.0503 -0.0261 -0.7337
 7662TIP3    H144401   2.953   0.015   1.638 -0.5103  1.3460 -1.0752
 7662TIP3    H244402   2.928   0.056   1.494  0.5137 -0.4835 -1.7972
 7663TIP3   OH244403   4.313   2.667  11.411  0.5089  0.0616  0.1186
 7663TIP3    H144404   4.378   2.689  11.478 -0.8141  0.6818  1.2383
 7663TIP3    H244405   4.267   2.749  11.394 -1.2733 -0.7575  0.7926
 7664TIP3   OH244406   6.359   3.484  10.944  0.4203  0.0614 -0.3507
 7664TIP3    H144407   6.279   3.533  10.927  0.2512 -0.5206 -1.2861
 7664TIP3    H244408   6.380   3.442  10.861  2.7263  1.6511 -0.6702
 7665TIP3   OH244409   2.955   1.490  13.803  0.4922  0.2742 -0.1871
 7665TIP3    H144410   2.940   1.473  13.896 -0.5004  1.0773 -0.1738
 7665TIP3    H244411   3.008   1.570  13.801 -0.6532  1.0665 -0.2951
 7666TIP3   OH244412   2.723   3.996   5.127 -0.0466 -0.2013  0.1500
 7666TIP3    H144413   2.697   4.047   5.050  2.5563  1.3211  0.1521
 7666TIP3    H244414   2.712   3.905   5.099  0.1814  0.3071 -1.8062
 7667TIP3   OH244415   0.956   0.975   0.119  0.0644  0.1875 -0.0848
 7667TIP3    H144416   0.893   1.029   0.072 -1.0353 -0.3083  0.7663
 7667TIP3    H244417   0.967   1.018   0.204  1.4178  0.6371 -0.4614
 7668TIP3   OH244418   3.628   4.638   1.280 -0.2126  0.9293  0.6366
 7668TIP3    H144419   3.688   4.710   1.259  0.6655  0.5873  1.8455
 7668TIP3    H244420   3.579   4.624   1.199  2.3206  0.2901 -0.9236
 7669TIP3   OH244421   5.519   5.821   2.098  0.3610 -0.7560  0.1380
 7669TIP3    H144422   5.444   5.782   2.143 -0.0674 -1.0883 -0.8356
 7669TIP3    H244423   5.593   5.765   2.123 -0.0197 -1.4275 -0.2294
 7670TIP3   OH244424   0.355   4.758   4.328 -0.0727 -0.7193 -0.4616
 7670TIP3    H144425   0.287   4.704   4.367  0.0356 -0.9774 -0.6286
 7670TIP3    H244426   0.423   4.696   4.302  1.1904 -0.3200  1.6102
 7671TIP3   OH244427   1.137   1.982   2.323 -0.3117 -0.2830 -0.3598
 7671TIP3    H144428   1.153   2.030   2.405  2.2522 -1.4310 -0.0691
 7671TIP3    H244429   1.133   2.050   2.256  0.1164  0.5253  0.4001
 7672TIP3   OH244430   3.827   1.813  17.048 -0.2882  0.1009 -0.0823
 7672TIP3    H144431   3.915   1.776  17.042 -1.2461 -2.2078 -0.8212
 7672TIP3    H244432   3.838   1.892  17.100  1.9198 -1.1506  1.4965
 7673TIP3   OH244433   1.769   1.060  14.214 -0.1915  0.5557  0.1016
 7673TIP3    H144434   1.742   1.151  14.202 -1.4474  0.3450  1.1122
 7673TIP3    H244435   1.842   1.065  14.276  0.0740  0.8975 -0.2312
 7674TIP3   OH244436   1.757   0.841  13.970 -0.5565  0.6493  0.0769
 7674TIP3    H144437   1.779   0.923  14.014 -1.2436  0.1386  1.4402
 7674TIP3    H244438   1.665   0.849  13.947 -0.7262  0.1489  0.5382
 7675TIP3   OH244439   2.995   2.701   5.460 -0.1386  0.4589  0.4912
 7675TIP3    H144440   2.939   2.719   5.384 -0.4656 -0.1633  0.5717
 7675TIP3    H244441   2.985   2.777   5.516 -0.9348  0.3441  0.5157
 7676TIP3   OH244442   3.332   3.043  15.839 -0.4592 -0.8245  0.6166
 7676TIP3    H144443   3.253   3.008  15.796 -0.0430 -0.6773 -0.2797
 7676TIP3    H244444   3.326   3.138  15.826 -1.3360 -0.5582  2.6231
 7677TIP3   OH244445   5.395   6.706   0.658  0.0844  0.1000  0.0277
 7677TIP3    H144446   5.307   6.678   0.683  0.3946  1.1304  2.6415
 7677TIP3    H244447   5.386   6.740   0.569 -1.6041 -2.0844 -0.7112
 7678TIP3   OH244448   2.568   6.733  15.573  0.4307  0.5156  0.1095
 7678TIP3    H144449   2.604   6.645  15.588 -0.3138  0.0211 -0.9119
 7678TIP3    H244450   2.642   6.792  15.591  1.3642 -0.4003 -0.5674
 7679TIP3   OH244451   2.658   5.524   1.209  0.0359 -0.8209  0.3500
 7679TIP3    H144452   2.570   5.557   1.227 -0.2665 -1.0986 -0.5352
 7679TIP3    H244453   2.687   5.575   1.133  0.9437 -0.2139  1.0770
 7680TIP3   OH244454   3.700   2.700  15.583 -0.5434 -0.3559 -0.2004
 7680TIP3    H144455   3.667   2.789  15.591 -0.3103 -0.0777 -1.8160
 7680TIP3    H244456   3.766   2.706  15.514 -0.9839 -1.8902 -0.7939
 7681TIP3   OH244457   0.863   6.168  13.841 -0.5028 -0.9770  0.2672
 7681TIP3    H144458   0.814   6.138  13.764  1.8279  0.9570 -2.1566
 7681TIP3    H244459   0.954   6.144  13.821  0.6166  2.3416  0.8613
 7682TIP3   OH244460   1.697   1.345  12.042  0.5483 -0.2453  0.2156
 7682TIP3    H144461   1.713   1.429  12.084  1.8963 -0.4168  0.1000
 7682TIP3    H244462   1.728   1.357  11.952 -0.6895 -0.4090 -0.2590
 7683TIP3   OH244463   5.694   5.657  13.094 -0.3763 -0.3915 -0.5758
 7683TIP3    H144464   5.648   5.626  13.016  0.2269 -0.1900 -1.0153
 7683TIP3    H244465   5.766   5.595  13.106 -0.0556 -0.0207 -0.5839
 7684TIP3   OH244466   0.602   2.292   3.839  0.5068 -0.3891  0.3436
 7684TIP3    H144467   0.651   2.279   3.920 -0.2438 -0.0678  0.8602
 7684TIP3    H244468   0.660   2.260   3.770  0.8323 -1.4407  1.0829
 7685TIP3   OH244469   6.427   0.582   2.618 -0.6462  0.1842 -0.4479
 7685TIP3    H144470   6.347   0.621   2.654 -0.9465 -2.1428  1.6797
 7685TIP3    H244471   6.497   0.617   2.672 -0.6662 -0.5115  0.0378
 7686TIP3   OH244472   1.266   3.015   6.068 -0.3290  0.0595  0.1665
 7686TIP3    H144473   1.269   2.921   6.086  0.3622 -0.1070 -0.7107
 7686TIP3    H244474   1.190   3.047   6.116 -1.4181 -1.2013 -0.6632
 7687TIP3   OH244475   3.448   5.218   6.405  0.1818 -0.1015 -0.5632
 7687TIP3    H144476   3.505   5.158   6.452  0.9202 -0.7510 -2.1963
 7687TIP3    H244477   3.434   5.291   6.465  2.9008  0.1712 -0.1330
 7688TIP3   OH244478   4.498   1.658   5.137 -0.1425 -0.3757 -0.2084
 7688TIP3    H144479   4.587   1.690   5.123  1.2439 -3.5401  0.3503
 7688TIP3    H244480   4.496   1.635   5.230 -1.9944  0.7112  0.0608
 7689TIP3   OH244481   3.616   5.421   3.224 -0.6293 -0.1799  0.6542
 7689TIP3    H144482   3.549   5.489   3.217 -0.0498  0.3469  0.1209
 7689TIP3    H244483   3.619   5.381   3.137 -1.4711 -1.4023  1.1441
 7690TIP3   OH244484   4.457   3.327  16.867  0.1096  0.5972 -0.1799
 7690TIP3    H144485   4.533   3.275  16.892  2.7993  3.0403 -2.5199
 7690TIP3    H244486   4.456   3.399  16.930 -1.3163 -0.1876  0.7639
 7691TIP3   OH244487   2.383   6.724  14.295  0.3274  0.5974 -0.0435
 7691TIP3    H144488   2.412   6.793  14.354  0.1332  1.2179 -0.6723
 7691TIP3    H244489   2.393   6.761  14.207  0.6805 -0.3365 -0.4148
 7692TIP3   OH244490   2.922   5.638   3.180 -0.5430 -0.0577 -0.2962
 7692TIP3    H144491   2.974   5.666   3.105  1.8771  0.0765  1.3354
 7692TIP3    H244492   2.877   5.717   3.209  0.8100  0.6020  0.0952
 7693TIP3   OH244493   3.831   6.747   5.919 -0.2348  0.2413 -0.2511
 7693TIP3    H144494   3.922   6.726   5.900 -0.1004  0.0379  0.6104
 7693TIP3    H244495   3.781   6.678   5.875  0.1668 -1.5115  1.9044
 7694TIP3   OH244496   6.412   6.345   0.498 -0.3329 -0.3209  0.0640
 7694TIP3    H144497   6.433   6.396   0.576  3.2205  1.7945 -2.0162
 7694TIP3    H244498   6.475   6.272   0.500 -1.5276 -1.3820  0.0958
 7695TIP3   OH244499   3.983   1.089   3.624  0.4874  0.4798 -0.1394
 7695TIP3    H144500   4.019   1.161   3.676  1.6616  0.8340 -1.3873
 7695TIP3    H244501   3.893   1.116   3.605  0.1097  0.4437  1.4761
 7696TIP3   OH244502   0.251   4.981  17.006  0.5711  0.1096  0.1263
 7696TIP3    H144503   0.192   4.974  16.930 -1.4009  0.1683  1.5525
 7696TIP3    H244504   0.339   4.981  16.969 -0.2989  3.2378 -2.4330
 7697TIP3   OH244505   6.621   1.633  14.120 -0.4237 -0.9207 -0.2340
 7697TIP3    H144506   6.579   1.627  14.206  0.5330  0.4267  0.3500
 7697TIP3    H244507   6.687   1.702  14.130  0.0520 -1.1010 -1.9064
 7698TIP3   OH244508   6.146   4.600   1.137 -0.6174  0.9458  0.3334
 7698TIP3    H144509   6.115   4.575   1.050 -0.7964 -0.5054  0.7784
 7698TIP3    H244510   6.235   4.632   1.123 -0.6821  0.8153 -0.3885
 7699TIP3   OH244511   5.682   2.661  15.305  0.0413 -0.8674  0.4164
 7699TIP3    H144512   5.742   2.594  15.338  0.5077 -0.2334  0.8780
 7699TIP3    H244513   5.644   2.700  15.383  0.1621 -0.2469  0.1731
 7700TIP3   OH244514   1.353   6.147   3.690 -0.2977 -0.3620 -0.1776
 7700TIP3    H144515   1.357   6.053   3.709 -1.8830 -0.8804 -2.0597
 7700TIP3    H244516   1.444   6.172   3.673  0.0139 -1.8319 -0.8304
 7701TIP3   OH244517   0.812   2.473  14.675 -0.2360 -0.4430  0.7350
 7701TIP3    H144518   0.892   2.460  14.726 -0.0082 -0.1881  0.4454
 7701TIP3    H244519   0.742   2.461  14.739  0.0668  0.9689  1.3772
 7702TIP3   OH244520   1.721   0.658   2.550  0.3603  0.2181 -0.4671
 7702TIP3    H144521   1.636   0.684   2.514  0.1395  0.8759  0.4735
 7702TIP3    H244522   1.717   0.563   2.554 -0.2040  0.2230 -0.7539
 7703TIP3   OH244523   4.518   4.693  14.804 -0.2199 -0.0519  0.5762
 7703TIP3    H144524   4.495   4.754  14.874 -0.9957 -0.2837  0.5295
 7703TIP3    H244525   4.609   4.714  14.782 -0.5076  1.1416  0.4935
 7704TIP3   OH244526   0.817   5.998   0.971 -0.7363  0.0004  0.5761
 7704TIP3    H144527   0.892   6.057   0.973 -0.3708 -0.4876  1.6200
 7704TIP3    H244528   0.769   6.024   0.892  0.3704  0.4952  0.0484
 7705TIP3   OH244529   0.735   2.564  13.993 -0.8463  0.2709 -0.5301
 7705TIP3    H144530   0.691   2.479  13.998 -1.5407  0.6805  0.6648
 7705TIP3    H244531   0.826   2.543  13.976 -0.8330 -0.7608  0.7041
 7706TIP3   OH244532   5.804   4.154   0.105  0.8059  0.4008  0.0178
 7706TIP3    H144533   5.833   4.111   0.186  0.1075 -0.0395  0.0449
 7706TIP3    H244534   5.840   4.242   0.110  1.2511  0.1944  0.5405
 7707TIP3   OH244535   4.347   0.270  14.060  0.1506 -0.4741 -0.6832
 7707TIP3    H144536   4.440   0.247  14.052  0.5142  0.8501 -0.5656
 7707TIP3    H244537   4.318   0.286  13.970 -0.4173 -2.4128 -0.8921
 7708TIP3   OH244538   5.557   2.427  12.563  0.2833  0.3695  0.4001
 7708TIP3    H144539   5.522   2.516  12.561  1.2362  0.7406 -0.5379
 7708TIP3    H244540   5.480   2.370  12.558 -0.2778  1.1475  0.1266
 7709TIP3   OH244541   5.060   2.010  15.309  0.7154 -0.0779 -0.7948
 7709TIP3    H144542   5.006   1.933  15.295  0.9171 -0.3725  0.0243
 7709TIP3    H244543   5.103   2.024  15.224  1.7227 -1.6865 -0.6034
 7710TIP3   OH244544   1.999   3.784  13.446  0.2720 -0.4650  0.0678
 7710TIP3    H144545   2.048   3.771  13.527  0.9559 -3.6458 -0.7193
 7710TIP3    H244546   2.066   3.796  13.379 -0.0122 -2.4611 -0.6517
 7711TIP3   OH244547   1.462   0.412   2.461  0.3133  0.2976 -0.2116
 7711TIP3    H144548   1.405   0.370   2.396  0.2250  1.4219 -0.8842
 7711TIP3    H244549   1.499   0.487   2.415 -1.2383  2.2799  1.5782
 7712TIP3   OH244550   1.775   5.275   5.410 -0.8709 -0.6953 -0.0289
 7712TIP3    H144551   1.751   5.355   5.363  0.8430 -0.5292 -0.6725
 7712TIP3    H244552   1.710   5.211   5.382 -0.6356 -0.2551 -1.6586
 7713TIP3   OH244553   3.214   0.967   3.819 -0.3644 -0.5200 -0.5135
 7713TIP3    H144554   3.241   0.941   3.908  0.4473 -1.9220 -1.1377
 7713TIP3    H244555   3.184   0.886   3.779 -1.1767  0.1949 -1.3817
 7714TIP3   OH244556   1.485   1.242   4.263  0.2634 -0.1021 -0.1847
 7714TIP3    H144557   1.447   1.187   4.194  0.4972 -1.3731  0.6505
 7714TIP3    H244558   1.534   1.180   4.318  2.5759  1.3076 -0.5547
 7715TIP3   OH244559   6.375   6.119   5.949  0.2189  0.3158 -0.0811
 7715TIP3    H144560   6.416   6.036   5.976  1.8560  1.2532  0.4384
 7715TIP3    H244561   6.449   6.177   5.931 -0.8999  1.2451 -1.8487
 7716TIP3   OH244562   5.237   4.559  16.547  0.0896  0.2578  0.3594
 7716TIP3    H144563   5.162   4.590  16.598 -1.1174 -0.1812 -1.0901
 7716TIP3    H244564   5.259   4.475  16.586  0.4747  0.8402  1.4207
 7717TIP3   OH244565   0.817   0.611   0.248  0.3786 -0.1084 -0.6107
 7717TIP3    H144566   0.735   0.627   0.202  0.4237 -1.0665 -1.0437
 7717TIP3    H244567   0.882   0.598   0.178  0.5977 -0.8329 -0.2855
 7718TIP3   OH244568   5.998   3.331   5.417  0.0527  0.3486 -0.8711
 7718TIP3    H144569   5.922   3.289   5.378  0.4515 -0.2451 -1.0261
 7718TIP3    H244570   6.072   3.295   5.368  0.5842 -0.5487  0.5444
 7719TIP3   OH244571   3.350   1.340   3.256 -0.0388 -0.2463  0.2881
 7719TIP3    H144572   3.405   1.296   3.321 -1.0326  0.2120  1.4839
 7719TIP3    H244573   3.263   1.302   3.268 -0.2865  0.0106 -0.6355
 7720TIP3   OH244574   3.443   5.459  11.225  0.2853 -0.2915 -0.5864
 7720TIP3    H144575   3.463   5.372  11.190 -1.7284 -0.4868 -1.3799
 7720TIP3    H244576   3.507   5.517  11.184  0.1194 -1.0436 -1.9543
 7721TIP3   OH244577   1.591   0.601  13.747  0.0232  0.1064  0.3772
 7721TIP3    H144578   1.547   0.620  13.831 -1.2494 -1.8805  0.2226
 7721TIP3    H244579   1.560   0.671  13.689 -0.1971  0.6995  1.1739
 7722TIP3   OH244580   0.039   4.966   3.490  0.2160  0.0684 -0.0239
 7722TIP3    H144581  -0.030   5.032   3.484  0.9725  0.8616 -0.1180
 7722TIP3    H244582   0.073   4.958   3.401  0.2850 -0.2701  0.0332
 7723TIP3   OH244583   2.978   6.097   4.239  0.2916  0.4632 -0.2128
 7723TIP3    H144584   2.907   6.072   4.298 -0.4789  1.8666 -0.5118
 7723TIP3    H244585   3.047   6.129   4.297  0.6725 -0.7867  0.0689
 7724TIP3   OH244586   5.809   4.720   2.211  0.5524 -0.2449  1.0787
 7724TIP3    H144587   5.752   4.663   2.159  0.5703 -0.3570  1.1812
 7724TIP3    H244588   5.766   4.805   2.210 -0.3542 -0.6593  2.3269
 7725TIP3   OH244589   4.209   5.026  12.276  0.1954 -0.4644  0.4159
 7725TIP3    H144590   4.182   4.944  12.318 -1.3839  0.1940  0.7549
 7725TIP3    H244591   4.238   5.000  12.189  0.4444 -1.4774  0.7943
 7726TIP3   OH244592   1.369   0.030   3.456 -0.4036  0.1696  0.2423
 7726TIP3    H144593   1.332  -0.051   3.491  2.0283 -0.3069  1.9430
 7726TIP3    H244594   1.364   0.020   3.361 -1.7551 -1.1556  0.4142
 7727TIP3   OH244595   6.143   1.347  12.839  0.3317 -0.1290  0.2797
 7727TIP3    H144596   6.048   1.346  12.833  0.3832 -2.2875 -1.5990
 7727TIP3    H244597   6.172   1.391  12.759  0.9029 -0.4875  0.2755
 7728TIP3   OH244598   3.956   6.330   5.359  0.5515 -0.1195 -0.4204
 7728TIP3    H144599   3.928   6.404   5.412 -0.5107  2.4199 -4.1232
 7728TIP3    H244600   3.884   6.318   5.296  1.2522 -3.5631 -0.7585
 7729TIP3   OH244601   5.423   5.325   0.107  0.3263 -0.0972  0.5123
 7729TIP3    H144602   5.480   5.355   0.036  0.2465  0.8326  0.8203
 7729TIP3    H244603   5.335   5.333   0.072  0.3080 -0.0232  0.5751
 7730TIP3   OH244604   2.053   1.353   1.987  0.6825 -0.1475 -0.0756
 7730TIP3    H144605   2.084   1.443   1.977  2.3278 -0.6508  0.0878
 7730TIP3    H244606   2.000   1.354   2.066 -0.6420  0.9843 -0.9384
 7731TIP3   OH244607   6.167   3.272   1.332 -0.0466  0.3172 -0.2613
 7731TIP3    H144608   6.098   3.327   1.295  0.0583  0.5498 -0.1165
 7731TIP3    H244609   6.126   3.228   1.406 -0.2758 -0.2010 -0.6952
 7732TIP3   OH244610   1.000   6.561   5.477  0.0142  0.0135 -0.0846
 7732TIP3    H144611   0.924   6.531   5.427 -0.1174 -1.6774  1.0324
 7732TIP3    H244612   1.064   6.588   5.412 -0.5095 -1.1905 -1.1165
 7733TIP3   OH244613   5.743   6.717   5.409 -0.1194 -0.4952  0.0806
 7733TIP3    H144614   5.783   6.692   5.326  0.0814 -0.4860  0.1760
 7733TIP3    H244615   5.807   6.692   5.475  0.1658  0.4429  0.1693
 7734TIP3   OH244616   5.846   0.773  13.960 -0.5750 -0.0540 -0.0866
 7734TIP3    H144617   5.820   0.765  13.868 -2.8008  0.4593  0.4537
 7734TIP3    H244618   5.855   0.867  13.975  0.1475 -0.1543  0.1396
 7735TIP3   OH244619   0.212   1.167   1.718  0.5757  0.1640 -0.2232
 7735TIP3    H144620   0.147   1.237   1.728  1.5370  1.0354  0.1728
 7735TIP3    H244621   0.160   1.088   1.702 -0.5105  1.1231 -1.7278
 7736TIP3   OH244622   0.755   4.786  13.616  0.1286  0.3059 -0.8000
 7736TIP3    H144623   0.676   4.732  13.627 -1.0955  2.3248  1.5026
 7736TIP3    H244624   0.780   4.809  13.706  2.9469  0.3666 -1.5210
 7737TIP3   OH244625   3.401   4.889  11.665 -0.0923  0.1306 -0.2942
 7737TIP3    H144626   3.456   4.851  11.597  0.4880  0.7387 -0.1798
 7737TIP3    H244627   3.315   4.898  11.624  0.2662  0.5619 -0.9822
 7738TIP3   OH244628   3.887   5.050  12.965 -0.2934 -0.4528  0.3300
 7738TIP3    H144629   3.889   5.117  13.033 -0.7912 -0.5226  0.4143
 7738TIP3    H244630   3.947   5.083  12.898 -0.6189  0.1304  0.3214
 7739TIP3   OH244631   5.576   2.191   0.287 -0.2709  0.0905  0.2234
 7739TIP3    H144632   5.544   2.214   0.373 -1.9167 -0.0906 -0.2997
 7739TIP3    H244633   5.639   2.259   0.265 -1.1880  1.1648  0.8241
 7740TIP3   OH244634   6.717   6.760   0.230 -0.2868  0.4386 -0.4299
 7740TIP3    H144635   6.671   6.778   0.148 -1.5079 -1.3113 -0.1941
 7740TIP3    H244636   6.787   6.699   0.206 -2.3497 -2.3484  0.1039
 7741TIP3   OH244637   1.158   3.092   2.021 -0.6618  0.1878 -0.5698
 7741TIP3    H144638   1.107   3.150   2.078 -0.6173  2.0685 -2.3662
 7741TIP3    H244639   1.248   3.124   2.029 -0.5018 -0.1649 -0.9450
 7742TIP3   OH244640   5.112   1.236  14.735  0.1755 -0.0549 -0.3675
 7742TIP3    H144641   5.138   1.246  14.827  2.0724 -0.5055 -0.8171
 7742TIP3    H244642   5.076   1.147  14.730  0.5938 -0.2412 -0.1593
 7743TIP3   OH244643   6.680   5.551  13.600  0.0729  0.6187  0.1023
 7743TIP3    H144644   6.664   5.456  13.606  0.5766  0.4472 -1.0487
 7743TIP3    H244645   6.721   5.573  13.683 -1.1418  0.0620  0.8847
 7744TIP3   OH244646   0.300   4.805   2.593  0.2434  0.2293  0.2690
 7744TIP3    H144647   0.332   4.715   2.590  0.0730  0.1466  0.8839
 7744TIP3    H244648   0.379   4.859   2.594  0.3574  0.0562  0.7992
 7745TIP3   OH244649   2.371   2.987   1.977 -0.5919 -0.2772  0.3764
 7745TIP3    H144650   2.386   3.040   2.055  0.9623 -0.0002 -0.0858
 7745TIP3    H244651   2.458   2.960   1.948 -1.2806 -2.6474  0.2731
 7746TIP3   OH244652   2.083   6.285   5.953 -0.3433 -0.0428 -0.1168
 7746TIP3    H144653   2.094   6.362   5.897  0.8765 -1.8198 -2.4734
 7746TIP3    H244654   2.101   6.317   6.041  0.2572  2.3369 -1.0178
 7747TIP3   OH244655   4.972   6.394  11.563  0.4900 -0.8971  0.0079
 7747TIP3    H144656   4.929   6.315  11.532  1.2889 -0.8726 -1.2257
 7747TIP3    H244657   4.902   6.459  11.567 -0.0543 -1.5010  0.4587
 7748TIP3   OH244658   1.892   5.639  12.851 -0.5963 -0.6064  0.1810
 7748TIP3    H144659   1.875   5.694  12.927  0.6629 -1.2466  0.9457
 7748TIP3    H244660   1.805   5.607  12.825 -1.0811 -0.1065  1.1271
 7749TIP3   OH244661   3.757   5.059  12.563 -0.2620 -0.6092  0.0757
 7749TIP3    H144662   3.745   4.991  12.497  1.1894  1.2893 -2.3280
 7749TIP3    H244663   3.839   5.036  12.607  0.2980 -0.3715 -0.8256
 7750TIP3   OH244664   4.412   0.176   5.467 -0.1190  0.0555 -0.5239
 7750TIP3    H144665   4.328   0.139   5.440 -0.4145  0.8871 -0.7929
 7750TIP3    H244666   4.388   0.258   5.512  0.4253 -0.6450  1.1395
 7751TIP3   OH244667   1.034   2.806   4.508  0.1890  0.1836 -0.5650
 7751TIP3    H144668   0.945   2.808   4.472  0.0940 -2.2247 -0.6316
 7751TIP3    H244669   1.082   2.871   4.458 -0.6945 -0.9276 -2.9841
 7752TIP3   OH244670   4.529   5.145   3.492  0.9719 -0.1702 -0.2492
 7752TIP3    H144671   4.573   5.089   3.429 -0.2495 -0.4504 -0.8850
 7752TIP3    H244672   4.508   5.088   3.566 -1.5564 -1.0109 -1.4890
 7753TIP3   OH244673   0.075   3.987  10.917  0.7616  0.4559  0.3199
 7753TIP3    H144674   0.132   3.985  10.840  0.3195  2.2515 -0.1139
 7753TIP3    H244675   0.135   3.981  10.991  1.2430 -0.6732 -0.1326
 7754TIP3   OH244676   5.903   0.847  11.347 -0.1678  0.2422  0.5211
 7754TIP3    H144677   5.993   0.861  11.377  0.1772 -1.8236  0.6264
 7754TIP3    H244678   5.857   0.815  11.425 -0.3415 -1.0842 -0.1058
 7755TIP3   OH244679   1.867   5.032   4.104 -0.9648  0.0097  0.0682
 7755TIP3    H144680   1.928   5.066   4.169  1.0967 -1.6033 -0.8716
 7755TIP3    H244681   1.782   5.029   4.148 -0.1940  1.4518  1.7526
 7756TIP3   OH244682   3.204   2.509  13.171  0.4829 -0.1277  0.0251
 7756TIP3    H144683   3.188   2.417  13.147 -3.0645  0.5301 -0.7173
 7756TIP3    H244684   3.244   2.547  13.093  1.5391 -0.8925  0.1680
 7757TIP3   OH244685   1.923   1.309  14.831 -0.0152  0.4070 -0.2646
 7757TIP3    H144686   1.902   1.216  14.834  0.2538  0.3453 -0.2940
 7757TIP3    H244687   1.840   1.353  14.847  0.2553  0.1453  2.2672
 7758TIP3   OH244688   2.295   2.133  11.321  0.4017 -0.2717 -0.1746
 7758TIP3    H144689   2.253   2.047  11.318 -1.4901  0.6319 -1.0796
 7758TIP3    H244690   2.288   2.166  11.232  0.0337  1.3077  0.4148
 7759TIP3   OH244691   6.169   2.116  15.284 -0.3375  0.0194  0.0333
 7759TIP3    H144692   6.174   2.195  15.231  0.8914  1.2092  1.8085
 7759TIP3    H244693   6.077   2.110  15.310 -1.2149 -1.1646 -2.9104
 7760TIP3   OH244694   1.111   2.565   2.200 -0.5836  0.2517 -0.1544
 7760TIP3    H144695   1.151   2.540   2.283  1.0518 -2.5641 -1.6442
 7760TIP3    H244696   1.135   2.657   2.189 -0.3326  0.5382  2.1570
 7761TIP3   OH244697   0.917   5.887  11.348 -0.4543  0.0316 -0.2201
 7761TIP3    H144698   0.933   5.912  11.438 -1.2204  1.1615 -0.3828
 7761TIP3    H244699   0.919   5.969  11.299 -0.4384 -0.5182 -1.1722
 7762TIP3   OH244700   1.442   5.493  15.372 -0.4797  0.8710  0.4802
 7762TIP3    H144701   1.399   5.541  15.301  1.0138 -0.3699 -1.4028
 7762TIP3    H244702   1.371   5.445  15.415 -1.2710  0.4471 -1.2011
 7763TIP3   OH244703   4.358   0.433   5.544 -0.3575 -0.8469  0.0896
 7763TIP3    H144704   4.292   0.432   5.475  1.4418  1.1912 -1.8259
 7763TIP3    H244705   4.340   0.514   5.593 -0.5456 -1.3844  0.9341
 7764TIP3   OH244706   6.250   3.718   5.565  0.1118 -0.5730  0.0469
 7764TIP3    H144707   6.220   3.809   5.559 -0.8183 -0.7615  1.3181
 7764TIP3    H244708   6.308   3.717   5.641  1.7928 -0.6466 -1.1881
 7765TIP3   OH244709   0.460   1.286   1.669  0.4659 -0.5274  0.3141
 7765TIP3    H144710   0.377   1.240   1.679  1.3415 -2.1849  0.3223
 7765TIP3    H244711   0.452   1.333   1.586 -0.6532 -0.2397  0.5675
 7766TIP3   OH244712   2.283   2.801  13.260 -0.0532 -0.6351  0.9638
 7766TIP3    H144713   2.335   2.723  13.276 -0.8392 -0.9534  2.0609
 7766TIP3    H244714   2.198   2.769  13.231 -0.3187 -0.1936  1.2284
 7767TIP3   OH244715   3.028   5.891   5.237 -0.3953  0.1970 -0.0678
 7767TIP3    H144716   2.943   5.916   5.272  0.4687  2.1686  0.7573
 7767TIP3    H244717   3.071   5.843   5.307 -0.3472  0.3077 -0.0210
 7768TIP3   OH244718   2.503   2.240  12.106 -1.0926  0.2951 -0.2316
 7768TIP3    H144719   2.514   2.202  12.019  0.5267 -0.6302  0.3366
 7768TIP3    H244720   2.565   2.192  12.161  0.5476  3.2129  0.6854
 7769TIP3   OH244721   5.178   5.852  13.701 -0.0367 -0.4590 -0.5033
 7769TIP3    H144722   5.150   5.848  13.609  2.5883 -0.4603 -1.3934
 7769TIP3    H244723   5.154   5.767  13.737 -0.9158 -0.5438 -1.2561
 7770TIP3   OH244724   2.182   5.950  15.200 -0.3310  0.4527  0.2509
 7770TIP3    H144725   2.243   6.023  15.189  0.1641 -0.1071 -0.8351
 7770TIP3    H244726   2.111   5.986  15.254 -0.2345  1.8074 -0.4913
 7771TIP3   OH244727   1.894   5.542  10.464 -0.1970  0.0200 -0.6597
 7771TIP3    H144728   1.971   5.592  10.439  1.3012 -0.1089  3.1037
 7771TIP3    H244729   1.827   5.609  10.483  0.5312  0.4510  0.5092
 7772TIP3   OH244730   0.450   3.138   3.385  0.1460  0.0203 -0.3195
 7772TIP3    H144731   0.498   3.144   3.467  1.2525 -0.6653 -0.8960
 7772TIP3    H244732   0.498   3.196   3.325 -1.6055  1.8421 -0.0717
 7773TIP3   OH244733   1.087   4.494   6.347 -0.0954 -0.3157  0.1791
 7773TIP3    H144734   1.032   4.440   6.291 -0.0859 -0.4464  0.2952
 7773TIP3    H244735   1.081   4.582   6.309 -0.1936 -0.3773  0.0514
 7774TIP3   OH244736   2.047   4.654   2.405 -0.1548  0.0456  0.1173
 7774TIP3    H144737   1.954   4.662   2.423 -0.3059 -1.7796  0.3011
 7774TIP3    H244738   2.059   4.698   2.321 -1.4114 -0.7036 -0.4803
 7775TIP3   OH244739   5.400   0.247  13.780 -0.1335  0.9292  0.3207
 7775TIP3    H144740   5.330   0.299  13.742 -1.9676 -0.5193  1.5314
 7775TIP3    H244741   5.468   0.311  13.804 -1.5556  2.5266  0.2475
 7776TIP3   OH244742   4.214   0.603  11.549 -0.3170 -0.3387 -0.4628
 7776TIP3    H144743   4.278   0.667  11.519 -0.4158 -0.5120 -1.0467
 7776TIP3    H244744   4.143   0.656  11.585  1.0592 -0.1255  2.2593
 7777TIP3   OH244745   4.370   0.329   0.174 -0.0857  0.1265 -0.7265
 7777TIP3    H144746   4.300   0.275   0.210 -0.6113  0.7313 -0.8440
 7777TIP3    H244747   4.326   0.399   0.126  0.5769  1.1617  0.1322
 7778TIP3   OH244748   2.154   1.097   3.527 -0.1531  0.3866 -0.9346
 7778TIP3    H144749   2.176   1.027   3.588  0.7015  0.8961 -0.6375
 7778TIP3    H244750   2.233   1.150   3.521 -0.6176  1.0397 -1.5485
 7779TIP3   OH244751   4.621   0.242  12.095 -0.0111 -0.0405 -0.1102
 7779TIP3    H144752   4.696   0.232  12.154  1.4197  1.8103 -1.4852
 7779TIP3    H244753   4.594   0.153  12.075  0.3699 -0.7287  2.1622
 7780TIP3   OH244754   5.387   6.637  12.310 -0.0434 -0.1784 -0.0687
 7780TIP3    H144755   5.442   6.650  12.388 -1.1906  0.3063  0.6753
 7780TIP3    H244756   5.401   6.716  12.258 -0.7142  0.3536  0.5476
 7781TIP3   OH244757   1.979   2.544   3.530 -0.0116  0.1265 -0.2976
 7781TIP3    H144758   1.893   2.583   3.547 -0.2691 -0.8970  0.8943
 7781TIP3    H244759   2.004   2.505   3.613  0.8643 -1.0203 -1.0731
 7782TIP3   OH244760   3.784   0.931   5.064  0.1647  0.0509  0.2623
 7782TIP3    H144761   3.860   0.986   5.080  0.2726  0.0353 -0.1857
 7782TIP3    H244762   3.812   0.871   4.995  0.0117 -0.4879  0.6586
 7783TIP3   OH244763   6.389   1.884   1.497  0.3281 -0.1740  0.2023
 7783TIP3    H144764   6.377   1.979   1.501 -0.2543 -0.0246 -2.8627
 7783TIP3    H244765   6.484   1.872   1.501  0.4202  0.5497  0.3126
 7784TIP3   OH244766   6.404   6.509  13.161  0.2961 -0.0015 -0.4767
 7784TIP3    H144767   6.321   6.537  13.123  0.5118  1.9154  0.3483
 7784TIP3    H244768   6.402   6.542  13.251  1.9648  0.1874 -0.4621
 7785TIP3   OH244769   5.294   2.887   3.705  0.5817  0.1856 -0.4995
 7785TIP3    H144770   5.325   2.858   3.791  0.3939 -1.0410 -0.8387
 7785TIP3    H244771   5.356   2.848   3.643 -0.2900 -0.3770 -1.0313
 7786TIP3   OH244772   5.413   6.792   5.262 -0.1444 -0.1996  0.0956
 7786TIP3    H144773   5.486   6.839   5.303  1.4153 -1.3226 -1.2628
 7786TIP3    H244774   5.335   6.838   5.292  1.2090  2.2445  0.1063
 7787TIP3   OH244775   1.031   6.628   5.060 -0.0440  0.1460 -0.1229
 7787TIP3    H144776   0.999   6.713   5.091  1.4584  0.9674 -0.7097
 7787TIP3    H244777   1.089   6.598   5.130 -0.1638 -0.1529 -0.1508
 7788TIP3   OH244778   5.977   2.674  15.550 -0.4478  0.5391 -0.3953
 7788TIP3    H144779   5.963   2.604  15.614  1.2218  0.3120 -0.2301
 7788TIP3    H244780   5.969   2.630  15.465  2.2098 -0.2950 -0.3021
 7789TIP3   OH244781   4.191   2.121   3.603  0.8475 -0.6486 -0.2107
 7789TIP3    H144782   4.280   2.088   3.590  0.0731 -2.7144 -0.7189
 7789TIP3    H244783   4.202   2.213   3.627  3.0620 -0.5756 -1.2911
 7790TIP3   OH244784   0.374   1.980   3.426  0.0512  0.4592 -0.5291
 7790TIP3    H144785   0.381   1.973   3.521  1.0311 -0.2058 -0.6303
 7790TIP3    H244786   0.300   2.039   3.411  0.0060  0.7188  0.6410
 7791TIP3   OH244787   0.466   0.187  12.085  0.5991  0.0358 -0.1160
 7791TIP3    H144788   0.445   0.177  12.177  0.3744 -1.0912 -0.2739
 7791TIP3    H244789   0.561   0.199  12.083  0.4376  1.5930  0.3495
 7792TIP3   OH244790   5.073   6.616  11.687  0.0598 -0.0297 -0.0260
 7792TIP3    H144791   5.040   6.536  11.647 -0.7532  0.1570  0.2430
 7792TIP3    H244792   5.067   6.600  11.781 -1.7855  0.9599  0.0796
 7793TIP3   OH244793   1.779   4.552  15.841 -0.1688 -0.3468 -0.1121
 7793TIP3    H144794   1.794   4.469  15.795 -2.2313 -1.1590  0.5595
 7793TIP3    H244795   1.803   4.533  15.932 -1.3791 -0.4913  0.1971
 7794TIP3   OH244796   5.290   2.271   5.282 -0.0456  0.6187 -0.6610
 7794TIP3    H144797   5.249   2.358   5.282 -1.1752  0.1098 -0.0407
 7794TIP3    H244798   5.321   2.259   5.371 -0.4584  0.1450 -0.5722
 7795TIP3   OH244799   2.083   3.116  14.268  0.5097  0.2291 -0.2233
 7795TIP3    H144800   2.169   3.110  14.227  0.0276 -1.4288 -1.0944
 7795TIP3    H244801   2.093   3.070  14.351  0.7470  1.0468  0.2061
 7796TIP3   OH244802   3.794   4.249   5.560  0.1310 -0.1162  0.0799
 7796TIP3    H144803   3.859   4.294   5.505  3.6727 -1.5481  2.7269
 7796TIP3    H244804   3.825   4.262   5.649 -1.9772 -2.8806  1.3613
 7797TIP3   OH244805   4.990   2.327   3.971 -0.0829  0.0199  0.0028
 7797TIP3    H144806   4.940   2.356   3.895 -0.1823 -1.5877 -0.5875
 7797TIP3    H244807   5.081   2.348   3.950 -0.0348 -1.0060 -0.8735
 7798TIP3   OH244808   1.385   1.341   4.644 -0.0806  0.1578 -0.5652
 7798TIP3    H144809   1.373   1.373   4.734 -0.3910 -1.5689  0.0595
 7798TIP3    H244810   1.459   1.280   4.651 -1.4129 -1.5957 -1.0009
 7799TIP3   OH244811   4.482   2.891  13.310 -0.0706 -0.8312  0.0040
 7799TIP3    H144812   4.551   2.957  13.316  0.8730 -1.8415  0.7215
 7799TIP3    H244813   4.408   2.929  13.357  0.6878 -0.5472  1.0016
 7800TIP3   OH244814   3.796   4.461  16.535  0.5296 -0.2700  0.2817
 7800TIP3    H144815   3.777   4.519  16.609  0.2880 -0.2187  0.1806
 7800TIP3    H244816   3.892   4.452  16.535  0.6514  0.8789 -0.2699
 7801TIP3   OH244817   5.743   2.323   3.565 -0.9238 -0.4149  0.7760
 7801TIP3    H144818   5.801   2.248   3.575  0.3873  0.4084 -0.2902
 7801TIP3    H244819   5.661   2.285   3.534 -0.3504 -1.4374  0.4623
 7802TIP3   OH244820   1.188   1.480  16.476  0.1847 -0.1252  0.5394
 7802TIP3    H144821   1.115   1.438  16.522  1.4726 -2.2950  0.8051
 7802TIP3    H244822   1.168   1.573  16.478 -1.9398 -0.5351  1.6882
 7803TIP3   OH244823   3.680   1.901  11.215  0.0410  0.2468 -0.1820
 7803TIP3    H144824   3.641   1.988  11.222 -1.3347 -0.5058  3.3225
 7803TIP3    H244825   3.764   1.909  11.261  0.2124 -0.1357 -0.4196
 7804TIP3   OH244826   4.410   5.966  13.571 -0.7288  0.1427  0.4538
 7804TIP3    H144827   4.404   5.967  13.476 -0.2240 -3.1817  0.2817
 7804TIP3    H244828   4.498   6.001  13.589  0.7576 -2.6869 -0.6648
 7805TIP3   OH244829   4.420   0.608   1.903 -0.2640  0.6007  0.2745
 7805TIP3    H144830   4.459   0.650   1.827 -1.9797  1.6093 -0.1023
 7805TIP3    H244831   4.434   0.671   1.975  1.2087 -0.2765  0.8035
 7806TIP3   OH244832   6.378   3.070  11.193 -0.0392  0.1211  0.1792
 7806TIP3    H144833   6.396   2.977  11.181 -3.4478 -0.8224  1.3070
 7806TIP3    H244834   6.373   3.082  11.287  2.1686  1.9404  0.1384
 7807TIP3   OH244835   4.176   3.068   5.424 -0.3276 -0.4356  0.4979
 7807TIP3    H144836   4.150   3.023   5.344 -2.3918 -0.8790  1.3540
 7807TIP3    H244837   4.108   3.133   5.439  0.6297  0.4219  1.2994
 7808TIP3   OH244838   4.412   4.625   0.525  0.1753  0.0369  0.3047
 7808TIP3    H144839   4.465   4.636   0.604  0.7721  0.7320 -0.1793
 7808TIP3    H244840   4.414   4.710   0.482  0.6832 -0.5838 -0.9716
 7809TIP3   OH244841   3.924   1.567   2.428  0.0694  0.0501 -0.6324
 7809TIP3    H144842   3.852   1.629   2.412  0.2183  0.7894  1.2839
 7809TIP3    H244843   3.996   1.621   2.458  1.5665 -0.6690 -2.7346
 7810TIP3   OH244844   6.034   4.108  16.559  0.3588 -0.9513 -0.1439
 7810TIP3    H144845   6.041   4.169  16.632  0.5494 -1.5487  0.3360
 7810TIP3    H244846   6.074   4.027  16.590  1.2882 -0.9346 -1.2183
 7811TIP3   OH244847   0.050   0.329  14.607 -0.1038 -0.6050  0.3331
 7811TIP3    H144848   0.086   0.257  14.659 -1.6476 -0.6404  1.4287
 7811TIP3    H244849   0.122   0.393  14.601  0.9036 -1.7059  0.3443
 7812TIP3   OH244850   5.937   4.605  16.896  0.5484  0.2471 -0.0501
 7812TIP3    H144851   5.886   4.681  16.867  2.2199  0.9944 -1.2313
 7812TIP3    H244852   5.891   4.573  16.974 -1.1765  1.3978 -0.5269
 7813TIP3   OH244853   0.161   0.869  10.612  0.2324 -0.0072  0.3138
 7813TIP3    H144854   0.135   0.924  10.538  0.7397 -1.0034 -0.6211
 7813TIP3    H244855   0.142   0.923  10.689 -2.3050  0.2735 -0.4110
 7814TIP3   OH244856   1.944   5.720  12.434 -0.3118 -0.3282  1.2912
 7814TIP3    H144857   1.998   5.691  12.507 -1.9673  0.0314  2.7154
 7814TIP3    H244858   1.938   5.815  12.443  2.9390  0.4120 -1.8583
 7815TIP3   OH244859   2.141   3.696  15.046  0.4912  0.2336  0.2507
 7815TIP3    H144860   2.142   3.740  14.961  2.0514 -1.5354 -0.7215
 7815TIP3    H244861   2.227   3.654  15.053  0.7303  0.9941  3.0972
 7816TIP3   OH244862   3.500   3.201  10.738 -0.6227 -0.1371  0.4237
 7816TIP3    H144863   3.519   3.295  10.745 -1.2123 -0.1055  2.4218
 7816TIP3    H244864   3.536   3.163  10.818 -0.9967 -1.5126 -0.0306
 7817TIP3   OH244865   0.044   6.800  12.571  0.4485  0.1229 -0.5689
 7817TIP3    H144866   0.005   6.887  12.558 -0.4904 -0.2466 -0.3432
 7817TIP3    H244867  -0.006   6.743  12.512  1.8594 -0.0693 -1.6295
 7818TIP3   OH244868   5.887   2.200  15.839  0.5272  0.0709 -0.0228
 7818TIP3    H144869   5.957   2.180  15.900 -2.6232 -1.3681  3.5196
 7818TIP3    H244870   5.891   2.130  15.774  2.6099  0.3482 -0.2551
 7819TIP3   OH244871   6.057   1.711   4.327 -0.3692 -0.4131 -0.3555
 7819TIP3    H144872   6.143   1.699   4.288 -0.8406 -1.7552 -1.0241
 7819TIP3    H244873   6.056   1.651   4.402 -0.8343 -0.6412 -0.5414
 7820TIP3   OH244874   2.842   3.696  15.310 -0.0959  0.2115  0.3325
 7820TIP3    H144875   2.781   3.631  15.276  1.2499 -0.7485 -0.3492
 7820TIP3    H244876   2.920   3.686  15.256  0.8159  1.1222  1.4275
 7821TIP3   OH244877   6.104   1.846  14.037  0.7173 -0.2796  0.2829
 7821TIP3    H144878   6.102   1.929  14.085  0.9186  0.0190 -0.2273
 7821TIP3    H244879   6.012   1.828  14.018  0.6054 -0.5428  1.0159
 7822TIP3   OH244880   4.183   3.630   1.003 -0.4381  0.3296 -0.1046
 7822TIP3    H144881   4.243   3.555   1.007  1.8686  2.0858  0.7895
 7822TIP3    H244882   4.097   3.592   0.988  0.5210 -2.5304  1.0641
 7823TIP3   OH244883   2.535   4.608  13.883 -0.4184 -0.9334  0.4496
 7823TIP3    H144884   2.455   4.557  13.872 -1.1309 -0.0441  1.2475
 7823TIP3    H244885   2.538   4.665  13.806 -2.2403  1.1625  1.7813
 7824TIP3   OH244886   0.978   5.918   4.649  0.6451 -0.1305  0.1286
 7824TIP3    H144887   0.945   5.846   4.702  0.8067 -0.0006  0.4093
 7824TIP3    H244888   1.025   5.974   4.711  0.3415  0.3263 -0.0453
 7825TIP3   OH244889   4.737   1.221  14.581 -0.6214 -0.0487 -0.0416
 7825TIP3    H144890   4.687   1.265  14.512 -0.5313 -2.4578 -1.7624
 7825TIP3    H244891   4.826   1.256  14.572 -1.3083  2.3713  1.3888
 7826TIP3   OH244892   4.554   3.479   1.422 -0.2533 -0.5264 -0.1949
 7826TIP3    H144893   4.489   3.493   1.490  0.6755 -1.0657  0.8300
 7826TIP3    H244894   4.638   3.498   1.464  0.1908  1.4608 -1.8589
 7827TIP3   OH244895   2.396   1.945  12.333 -0.3711  0.2222  0.1796
 7827TIP3    H144896   2.314   1.981  12.300 -0.9296 -2.9977 -2.4888
 7827TIP3    H244897   2.458   1.958  12.261  0.6940  0.1199  1.0559
 7828TIP3   OH244898   1.667   3.855   2.302  0.5871 -0.4723  0.3810
 7828TIP3    H144899   1.651   3.869   2.209 -1.5433 -0.3027  0.7350
 7828TIP3    H244900   1.692   3.941   2.335 -0.3499 -0.1559  0.2769
 7829TIP3   OH244901   6.293   0.983   5.462  0.0022  0.0606  0.1182
 7829TIP3    H144902   6.209   1.000   5.506  0.9615  3.5635  0.9278
 7829TIP3    H244903   6.276   1.000   5.370 -0.0118  1.8210  0.4150
 7830TIP3   OH244904   3.509   0.913   4.669  0.3782 -0.4952 -0.3411
 7830TIP3    H144905   3.549   0.826   4.669  0.7274 -0.3356 -0.6634
 7830TIP3    H244906   3.429   0.902   4.721  1.9390 -0.2989  2.2827
 7831TIP3   OH244907   3.583   1.667   3.292 -0.1525  0.6072 -0.0722
 7831TIP3    H144908   3.641   1.734   3.329  0.1574  0.8905 -1.0245
 7831TIP3    H244909   3.577   1.690   3.199 -2.3127  0.9506  0.1042
 7832TIP3   OH244910   4.021   1.870   0.333  0.5968 -0.5486  0.2760
 7832TIP3    H144911   4.104   1.866   0.286  0.5804 -0.7291  0.2596
 7832TIP3    H244912   3.990   1.959   0.319 -0.0313 -0.9527 -1.1585
 7833TIP3   OH244913   6.295   2.991  14.838  0.0785  0.1136  0.4917
 7833TIP3    H144914   6.361   3.060  14.831  0.5761 -0.4541 -0.5416
 7833TIP3    H244915   6.233   3.008  14.767  1.3275 -1.6530 -1.1084
 7834TIP3   OH244916   2.101   0.790  14.209  0.0171  0.2392 -1.1207
 7834TIP3    H144917   2.107   0.783  14.114  1.2505  2.2278 -1.2455
 7834TIP3    H244918   2.047   0.868  14.223 -2.7700 -1.7090 -0.0983
 7835TIP3   OH244919   5.653   5.146   0.652 -0.2708  0.1401  0.5695
 7835TIP3    H144920   5.675   5.228   0.607 -0.9657  0.4604  0.7882
 7835TIP3    H244921   5.559   5.153   0.668 -0.5865 -1.2401 -0.5016
 7836TIP3   OH244922   1.787   3.887   3.340 -0.2191  0.0591  0.6535
 7836TIP3    H144923   1.855   3.821   3.355 -0.4278 -0.3556 -0.1722
 7836TIP3    H244924   1.711   3.854   3.388 -0.3216 -0.3074  0.2465
 7837TIP3   OH244925   0.340   2.185   3.807  0.2932  0.0350 -0.6590
 7837TIP3    H144926   0.412   2.242   3.779  2.1802 -0.8831  1.8934
 7837TIP3    H244927   0.356   2.103   3.762  0.3387  0.0866 -0.7379
 7838TIP3   OH244928   5.642   5.717  15.381 -0.2586 -0.1122 -0.1052
 7838TIP3    H144929   5.638   5.803  15.422 -1.9050  0.4518 -1.3666
 7838TIP3    H244930   5.694   5.730  15.302  1.0886 -0.7352  0.6290
 7839TIP3   OH244931   3.145   6.151  16.659  0.5557 -0.2218  0.1568
 7839TIP3    H144932   3.055   6.184  16.669 -0.3498 -1.9841 -1.5822
 7839TIP3    H244933   3.161   6.101  16.739  1.1299  2.3359  1.7929
 7840TIP3   OH244934   1.939   5.308  12.630 -0.0958  0.1702  0.1266
 7840TIP3    H144935   1.963   5.399  12.611  2.8330 -0.7710 -1.2723
 7840TIP3    H244936   1.847   5.302  12.603 -0.2329  2.5846 -0.1901
 7841TIP3   OH244937   6.017   6.138  13.664  0.7256  0.0470 -0.7821
 7841TIP3    H144938   6.081   6.193  13.708  0.1617  0.5739 -0.6115
 7841TIP3    H244939   6.055   6.121  13.577  0.5095  1.4462 -1.1656
 7842TIP3   OH244940   3.513   2.334   2.148 -0.5688  0.3796  0.0228
 7842TIP3    H144941   3.516   2.314   2.055  0.5348 -0.7594  0.2754
 7842TIP3    H244942   3.599   2.309   2.181 -1.4972 -0.8804  1.6522
 7843TIP3   OH244943   3.852   2.804   1.481 -0.3931 -0.6441 -0.1900
 7843TIP3    H144944   3.799   2.793   1.402 -1.0602  0.3394  0.0855
 7843TIP3    H244945   3.936   2.764   1.461 -0.6229 -0.5773 -1.3258
 7844TIP3   OH244946   6.447   0.164  14.684 -0.2572  0.1075  0.3906
 7844TIP3    H144947   6.388   0.173  14.759 -0.8684 -2.1385  0.2590
 7844TIP3    H244948   6.519   0.110  14.717  0.0421  0.0445 -0.3525
 7845TIP3   OH244949   6.425   0.864   4.259 -0.2396  0.4370 -0.2393
 7845TIP3    H144950   6.419   0.779   4.303  0.8636  0.5554  0.1684
 7845TIP3    H244951   6.341   0.906   4.277 -0.1906  0.0772  0.9162
 7846TIP3   OH244952   5.728   4.052  12.491 -0.7803 -0.5104 -0.0747
 7846TIP3    H144953   5.817   4.078  12.469 -1.1930  1.9757  0.8189
 7846TIP3    H244954   5.732   4.023  12.582 -0.7991 -0.9819 -0.2198
 7847TIP3   OH244955   5.073   0.221   1.388 -0.2490  0.1592 -0.5024
 7847TIP3    H144956   5.111   0.307   1.405  1.5978 -0.5714 -0.6544
 7847TIP3    H244957   4.980   0.237   1.376 -0.0246  2.0483  0.0445
 7848TIP3   OH244958   3.348   5.202  13.369  0.2033 -0.3802 -0.0981
 7848TIP3    H144959   3.290   5.255  13.314  2.7908  1.2897 -1.3928
 7848TIP3    H244960   3.435   5.238  13.354  1.8042 -3.4942  0.8483
 7849TIP3   OH244961   1.773   2.989  16.032 -0.9968  0.0509 -0.6071
 7849TIP3    H144962   1.779   2.914  15.972  1.7739 -1.1199  0.9283
 7849TIP3    H244963   1.735   2.952  16.112 -1.6715  0.8301 -0.5570
 7850TIP3   OH244964   5.651   2.964   4.127  0.2313  0.2383 -0.0295
 7850TIP3    H144965   5.602   2.892   4.165 -0.0800  0.4251 -0.0767
 7850TIP3    H244966   5.610   3.043   4.162  1.0805  0.3916  0.6695
 7851TIP3   OH244967   0.526   4.773  16.094 -0.0485  0.4621  0.1509
 7851TIP3    H144968   0.461   4.750  16.160 -2.4129  2.3460 -1.3442
 7851TIP3    H244969   0.513   4.709  16.024  0.8888 -0.1381  0.4982
 7852TIP3   OH244970   1.785   1.883   2.931  0.0962  0.1077  0.4570
 7852TIP3    H144971   1.768   1.952   2.995 -2.1491  0.7337 -0.6920
 7852TIP3    H244972   1.772   1.801   2.980 -0.6696  0.5537  1.0211
 7853TIP3   OH244973   0.331   5.610  13.554  0.2517 -0.5736 -0.0255
 7853TIP3    H144974   0.359   5.634  13.643 -0.0484  1.9275 -0.5372
 7853TIP3    H244975   0.235   5.617  13.557  0.0103 -3.1246  0.1101
 7854TIP3   OH244976   6.702   4.264   3.083  0.2803  0.8037 -0.1591
 7854TIP3    H144977   6.652   4.199   3.033  0.4801 -0.1873  0.9020
 7854TIP3    H244978   6.696   4.235   3.174  1.3319  1.6444  0.2033
 7855TIP3   OH244979   5.306   6.559  13.241  0.2959  0.1178  0.1933
 7855TIP3    H144980   5.254   6.494  13.195  0.9664  0.5312 -1.2026
 7855TIP3    H244981   5.256   6.641  13.231  0.1889  0.1137  0.6640
 7856TIP3   OH244982   2.190   5.696  15.376  0.2013  0.1605 -0.5840
 7856TIP3    H144983   2.189   5.623  15.313 -0.4946 -0.2251 -0.1434
 7856TIP3    H244984   2.196   5.774  15.321 -2.8742 -0.0191 -1.3640
 7857TIP3   OH244985   5.957   6.140   0.534 -0.7788  0.1646  0.2151
 7857TIP3    H144986   5.874   6.095   0.515 -1.5283  1.0306  1.3045
 7857TIP3    H244987   5.974   6.193   0.456  0.2445 -2.0985 -1.2039
 7858TIP3   OH244988   1.994   5.424   4.193 -0.1329  0.2816 -0.0938
 7858TIP3    H144989   2.047   5.344   4.194 -1.2109 -0.4894  1.8091
 7858TIP3    H244990   1.914   5.400   4.239 -1.3921  1.9072 -1.3248
 7859TIP3   OH244991   6.615   4.471  16.816 -0.8297  0.2349  1.0920
 7859TIP3    H144992   6.628   4.476  16.911 -0.5846 -0.2871  1.0886
 7859TIP3    H244993   6.557   4.545  16.796  0.1121  1.1076  1.4615
 7860TIP3   OH244994   5.790   1.544   5.476 -0.1413  0.6193  0.2510
 7860TIP3    H144995   5.706   1.516   5.439  0.5571 -2.2841  0.6032
 7860TIP3    H244996   5.854   1.525   5.407  0.5272  0.2290  0.9648
 7861TIP3   OH244997   1.623   4.122   1.667  0.0070 -0.3939  0.0494
 7861TIP3    H144998   1.534   4.087   1.676 -0.2380 -0.3194 -1.8101
 7861TIP3    H244999   1.646   4.149   1.756 -2.4655  1.1086  0.3370
 7862TIP3   OH245000   4.392   2.387   1.706  0.5256  0.7405 -0.6013
 7862TIP3    H145001   4.405   2.421   1.617  1.4996  1.1055 -0.3285
 7862TIP3    H245002   4.396   2.465   1.762  2.8714  0.2058  0.0439
 7863TIP3   OH245003   4.954   0.889  15.377 -0.3273  0.2780  0.9558
 7863TIP3    H145004   4.980   0.802  15.347 -2.1516  0.2036 -0.6378
 7863TIP3    H245005   5.010   0.949  15.328 -0.9770  0.0425 -0.1198
 7864TIP3   OH245006   4.721   1.097   0.024  0.7971 -0.1087  0.5576
 7864TIP3    H145007   4.704   1.189   0.043 -1.8900 -0.7944  2.0600
 7864TIP3    H245008   4.793   1.098  -0.039 -0.9482  3.1727 -1.6889
 7865TIP3   OH245009   2.446   4.282   3.916  0.5959 -0.1871 -0.0471
 7865TIP3    H145010   2.394   4.203   3.905  0.3084 -0.3248  1.9693
 7865TIP3    H245011   2.382   4.352   3.929  0.8677  0.2337 -0.8895
 7866TIP3   OH245012   1.184   4.896  11.907 -0.2620  0.4304 -0.3213
 7866TIP3    H145013   1.185   4.992  11.896 -2.2576  0.8019  1.8977
 7866TIP3    H245014   1.126   4.865  11.837  1.3930  0.6263 -1.8619
 7867TIP3   OH245015   3.362   0.700   4.211  0.0311  0.6203 -0.1942
 7867TIP3    H145016   3.384   0.782   4.256 -0.9906  0.3652  0.8011
 7867TIP3    H245017   3.419   0.635   4.251 -1.3589  0.2550  1.3081
 7868TIP3   OH245018   1.620   1.151  15.887  1.0405  0.4565 -0.2685
 7868TIP3    H145019   1.607   1.182  15.977  1.0429  1.8482 -0.7189
 7868TIP3    H245020   1.541   1.101  15.868  1.7103 -1.1462  1.0022
 7869TIP3   OH245021   3.558   5.546   4.142  0.6102  0.2428  0.3438
 7869TIP3    H145022   3.612   5.550   4.221  1.0570 -3.2622  0.3801
 7869TIP3    H245023   3.621   5.528   4.072  0.0480  1.7810 -0.5828
 7870TIP3   OH245024   5.700   4.272   1.070 -0.3634 -0.7527 -0.2128
 7870TIP3    H145025   5.764   4.233   1.130 -0.9681  0.5309  1.3353
 7870TIP3    H245026   5.636   4.202   1.055  1.3172 -2.0618 -1.7772
 7871TIP3   OH245027   2.145   5.668   3.291 -0.1818 -0.4741  0.1759
 7871TIP3    H145028   2.159   5.611   3.215 -0.6855 -0.9925  0.4632
 7871TIP3    H245029   2.055   5.649   3.318 -0.4601  0.6815  0.0960
 7872TIP3   OH245030   4.668   0.796   4.133  0.2714  0.1272  0.1840
 7872TIP3    H145031   4.576   0.777   4.113  0.6574  0.2780 -1.9687
 7872TIP3    H245032   4.697   0.721   4.185 -0.7681 -0.4826 -0.0849
 7873TIP3   OH245033   1.843   1.792  14.357 -0.1102  0.2389 -0.3519
 7873TIP3    H145034   1.870   1.783  14.448 -0.1805 -2.3382 -0.5033
 7873TIP3    H245035   1.748   1.796  14.360 -0.0702  2.2093 -0.2511
 7874TIP3   OH245036   4.929   3.597   4.886  0.5574  0.4104 -0.2688
 7874TIP3    H145037   5.011   3.639   4.860  1.2035  0.9455  2.3326
 7874TIP3    H245038   4.954   3.542   4.960 -1.5486  1.1286  1.0421
 7875TIP3   OH245039   2.536   4.584   5.685  0.5133 -0.3494  0.5688
 7875TIP3    H145040   2.502   4.494   5.687  0.3990 -0.3038  0.7602
 7875TIP3    H245041   2.512   4.620   5.771 -3.1633  1.2324 -0.9275
 7876TIP3   OH245042   6.435   3.035   2.225  0.3277  0.0250  0.3098
 7876TIP3    H145043   6.489   3.064   2.299 -0.3219 -1.2271  1.3145
 7876TIP3    H245044   6.402   2.950   2.252 -3.8574  1.5468  0.6889
 7877TIP3   OH245045   4.543   5.656   6.311  0.5915  0.3920 -0.1747
 7877TIP3    H145046   4.571   5.670   6.221  1.0795 -0.4414 -0.1608
 7877TIP3    H245047   4.555   5.562   6.326 -0.3620  0.3505  0.4609
 7878TIP3   OH245048   5.327   5.525   4.105  0.3706 -0.4629 -0.3579
 7878TIP3    H145049   5.357   5.599   4.053  0.3498 -1.2922 -1.6137
 7878TIP3    H245050   5.404   5.496   4.154 -0.3657  2.4222  2.8673
 7879TIP3   OH245051   1.243   2.043  14.526  0.6725  0.5163  0.7551
 7879TIP3    H145052   1.215   2.127  14.563  1.3716  0.8022  0.6415
 7879TIP3    H245053   1.339   2.047  14.525  0.7099 -0.2110  0.5806
 7880TIP3   OH245054   4.313   1.776  15.573  0.5145  0.1318 -0.1578
 7880TIP3    H145055   4.346   1.686  15.573  2.3554  0.7499  1.8287
 7880TIP3    H245056   4.335   1.811  15.659 -3.7139  1.2935  0.7135
 7881TIP3   OH245057   5.912   2.375   0.481  0.4116  0.2449 -0.1688
 7881TIP3    H145058   5.876   2.382   0.393 -0.4684  3.7468  0.3141
 7881TIP3    H245059   6.003   2.347   0.467  0.3692  0.9676 -2.2138
 7882TIP3   OH245060   6.499   2.301   6.156 -0.5535 -0.0267 -0.9321
 7882TIP3    H145061   6.584   2.273   6.122  0.8118  0.8572  1.4639
 7882TIP3    H245062   6.509   2.396   6.170 -1.2871 -0.1844  0.9582
 7883TIP3   OH245063   1.439   2.191   5.527  0.5255 -0.5526  0.2223
 7883TIP3    H145064   1.405   2.232   5.607 -0.2280 -1.0153  0.1535
 7883TIP3    H245065   1.467   2.265   5.473 -1.0116 -0.0698  0.0107
 7884TIP3   OH245066   0.006   6.480  11.105  0.2471  0.1983  0.2509
 7884TIP3    H145067  -0.031   6.564  11.134 -2.4248 -0.7093 -0.2354
 7884TIP3    H245068   0.085   6.504  11.058 -0.2522  2.4367  0.4305
 7885TIP3   OH245069   5.529   0.339   0.644 -0.5345 -0.7186  0.0723
 7885TIP3    H145070   5.595   0.278   0.675  0.4250  0.9265  1.4384
 7885TIP3    H245071   5.472   0.287   0.588  1.9281 -2.1908 -1.2021
 7886TIP3   OH245072   6.670   6.466  13.758 -0.3880  0.2482  0.2018
 7886TIP3    H145073   6.756   6.506  13.747 -0.0924 -0.3721  0.1715
 7886TIP3    H245074   6.618   6.499  13.685 -0.5521  1.5712  0.8974
 7887TIP3   OH245075   3.484   3.810   0.174 -0.1530 -0.1381 -0.6558
 7887TIP3    H145076   3.431   3.889   0.165  0.8771  0.5321 -0.9474
 7887TIP3    H245077   3.556   3.822   0.112  0.8687 -0.5881  0.4112
 7888TIP3   OH245078   0.496   3.991  11.752 -0.2436  0.0222  0.2706
 7888TIP3    H145079   0.439   4.067  11.746 -0.8916 -0.5209 -0.5334
 7888TIP3    H245080   0.500   3.956  11.664  0.4926 -0.5700  0.5233
 7889TIP3   OH245081   4.510   0.755  13.783  0.4788 -1.0738 -0.0539
 7889TIP3    H145082   4.539   0.841  13.754 -1.4761 -0.1261  0.6426
 7889TIP3    H245083   4.433   0.736  13.730  0.5355 -2.1445  0.2076
 7890TIP3   OH245084   2.042   5.103  11.132  0.5222 -0.6553  0.6452
 7890TIP3    H145085   2.012   5.037  11.070 -0.3893 -0.5003  0.9045
 7890TIP3    H245086   2.037   5.185  11.084 -0.0719 -0.5504  0.8787
 7891TIP3   OH245087   3.047   0.785  12.404 -0.4391  0.0760 -0.2672
 7891TIP3    H145088   3.116   0.726  12.435 -0.8380 -0.9849 -1.3163
 7891TIP3    H245089   3.087   0.830  12.329 -0.8798 -0.5809 -0.9106
 7892TIP3   OH245090   4.325   1.937   5.658 -0.4074  0.0153 -0.3406
 7892TIP3    H145091   4.351   1.900   5.573  2.0771 -0.4924  0.5666
 7892TIP3    H245092   4.339   1.866   5.720 -1.5674  0.5903  0.6090
 7893TIP3   OH245093   4.493   2.253  16.825  0.1432 -0.2775 -0.4939
 7893TIP3    H145094   4.481   2.265  16.920  0.5204 -1.5459 -0.2758
 7893TIP3    H245095   4.419   2.300  16.786  0.9466  1.7953  0.3277
 7894TIP3   OH245096   0.985   6.338   4.469 -0.1378  0.3549 -0.2167
 7894TIP3    H145097   0.929   6.345   4.547 -2.2217 -1.3261 -1.4409
 7894TIP3    H245098   0.956   6.409   4.412  0.9121  1.1573  0.2113
 7895TIP3   OH245099   6.766   5.229   2.776  0.2024  0.0628  0.2550
 7895TIP3    H145100   6.769   5.274   2.691  0.3490  0.9067  0.6923
 7895TIP3    H245101   6.840   5.169   2.774  1.1203  1.1437  0.3426
 7896TIP3   OH245102   5.619   6.133  12.204 -0.2281 -0.3747  0.1863
 7896TIP3    H145103   5.593   6.042  12.194  0.0053 -0.7015  2.1256
 7896TIP3    H245104   5.542   6.183  12.176  0.4098 -1.0162 -3.1279
 7897TIP3   OH245105   0.802   1.610  12.035  0.2790 -0.1365  0.7294
 7897TIP3    H145106   0.821   1.528  12.082 -0.2334  0.0711  1.3172
 7897TIP3    H245107   0.743   1.657  12.093 -0.6392 -0.0150 -0.2722
 7898TIP3   OH245108   0.587   5.785  13.481 -0.1233 -0.6804  0.0661
 7898TIP3    H145109   0.536   5.806  13.403  0.9862 -1.3750 -0.8817
 7898TIP3    H245110   0.678   5.798  13.455  0.3072 -1.4703  1.0659
 7899TIP3   OH245111   1.961   0.876  11.375 -0.0055 -0.6349  1.1257
 7899TIP3    H145112   2.012   0.843  11.448 -0.1125  0.2331  1.5964
 7899TIP3    H245113   1.965   0.971  11.383 -1.5218 -0.5398  1.0610
 7900TIP3   OH245114   6.802   5.350   2.535  0.1845 -0.2709 -0.8830
 7900TIP3    H145115   6.891   5.375   2.561 -1.0986  1.5196  2.4509
 7900TIP3    H245116   6.764   5.430   2.498 -0.1354 -0.9703 -2.1186
 7901TIP3   OH245117   3.373   6.245  12.383 -1.1191  0.0441  0.1667
 7901TIP3    H145118   3.454   6.200  12.406 -0.0215  1.4002 -0.7917
 7901TIP3    H245119   3.390   6.281  12.296 -3.2643 -0.7447 -0.6339
 7902TIP3   OH245120   2.998   6.562  11.532  0.5377  0.2221  0.2346
 7902TIP3    H145121   3.022   6.601  11.615  0.7511 -0.5097  0.5250
 7902TIP3    H245122   2.915   6.516  11.550  0.1984  0.6749 -0.1440
 7903TIP3   OH245123   2.245   5.043  11.332 -0.3806  0.1884 -0.0932
 7903TIP3    H145124   2.165   5.061  11.283 -1.0856  1.3251  1.4290
 7903TIP3    H245125   2.305   5.113  11.308  0.6541 -1.2665 -2.1091
 7904TIP3   OH245126   5.972   2.722   4.302 -0.2129 -1.1422 -0.2317
 7904TIP3    H145127   5.901   2.676   4.347  0.0783  0.3805  1.9276
 7904TIP3    H245128   6.052   2.684   4.338  0.0396 -0.3268  0.0803
 7905TIP3   OH245129   0.333   6.342  14.295 -0.5176  0.0624 -0.1225
 7905TIP3    H145130   0.387   6.321  14.372  0.5976  0.6714 -0.7150
 7905TIP3    H245131   0.349   6.271  14.234 -1.1490 -0.2505  0.0659
 7906TIP3   OH245132   4.924   4.092   5.140 -0.4031  0.0255  0.0113
 7906TIP3    H145133   4.872   4.173   5.136  0.8724  0.8111 -2.0558
 7906TIP3    H245134   4.961   4.083   5.052  2.5391 -0.7650  1.2308
 7907TIP3   OH245135   5.956   5.912   1.245 -0.4785 -0.2891  0.3536
 7907TIP3    H145136   5.864   5.892   1.227 -0.6623  1.0093 -0.2920
 7907TIP3    H245137   6.001   5.828   1.237 -1.0325 -0.3897 -3.1188
 7908TIP3   OH245138   4.129   5.996   2.677 -0.7801  0.3877  0.3331
 7908TIP3    H145139   4.183   5.983   2.755 -0.1962 -1.1826 -0.2804
 7908TIP3    H245140   4.102   5.907   2.652 -1.2814  0.8938 -1.0151
 7909TIP3   OH245141   5.127   2.912  14.201 -0.4426 -0.1646  0.1553
 7909TIP3    H145142   5.038   2.885  14.222 -0.7901  1.1957  0.4768
 7909TIP3    H245143   5.173   2.830  14.181 -2.1451 -0.7695 -1.5031
 7910TIP3   OH245144   1.327   2.766  16.220  0.3738  0.0867 -0.0448
 7910TIP3    H145145   1.291   2.781  16.133  0.2172  1.0948  0.1745
 7910TIP3    H245146   1.281   2.829  16.276 -0.0457 -1.0347  0.9083
 7911TIP3   OH245147   6.051   0.744  14.536  0.2147  0.1367  0.0733
 7911TIP3    H145148   5.973   0.782  14.576  0.5837  1.7145 -0.6584
 7911TIP3    H245149   6.022   0.716  14.449  0.4974  0.8397 -0.2460
 7912TIP3   OH245150   4.726   0.430  17.086  0.1930  0.3190  0.1440
 7912TIP3    H145151   4.686   0.459  17.168  0.0389 -1.2266  0.6566
 7912TIP3    H245152   4.807   0.480  17.079 -1.1121  2.5042 -0.2125
 7913TIP3   OH245153   0.265   3.438  15.388  0.2396  0.6192 -0.8467
 7913TIP3    H145154   0.345   3.392  15.414 -0.6935 -1.0229 -0.6850
 7913TIP3    H245155   0.236   3.482  15.467 -0.5159 -1.1580 -0.0899
 7914TIP3   OH245156   6.408   3.869   0.607 -0.2153  0.1032 -0.1693
 7914TIP3    H145157   6.356   3.909   0.676  1.7826 -0.4885  1.8077
 7914TIP3    H245158   6.483   3.928   0.598  0.6293 -0.9567 -0.2563
 7915TIP3   OH245159   2.575   6.697   6.361 -0.7259 -0.2609 -0.7308
 7915TIP3    H145160   2.629   6.745   6.423  0.1919 -0.3053 -1.4672
 7915TIP3    H245161   2.485   6.716   6.387 -0.3671 -0.0636  0.4302
 7916TIP3   OH245162   0.835   1.082  11.027 -0.0040  0.2069  0.4778
 7916TIP3    H145163   0.927   1.101  11.008  0.9364 -4.1505 -0.3071
 7916TIP3    H245164   0.791   1.090  10.942 -0.6478  3.0646  0.9879
 7917TIP3   OH245165   5.270   2.554  13.277 -0.5352  0.1186  0.2845
 7917TIP3    H145166   5.229   2.624  13.225  0.5130  0.1131 -0.5752
 7917TIP3    H245167   5.231   2.474  13.242  0.9162  0.0402 -1.2465
 7918TIP3   OH245168   6.777   3.291  11.665 -0.0768  0.0638  0.4170
 7918TIP3    H145169   6.808   3.371  11.624  1.0758 -0.1442  0.8311
 7918TIP3    H245170   6.693   3.273  11.623  1.1677 -0.3197 -2.0734
 7919TIP3   OH245171   0.582   6.429  16.415  0.0856  0.1714 -0.0473
 7919TIP3    H145172   0.525   6.493  16.372 -0.2986  0.2073  0.5038
 7919TIP3    H245173   0.527   6.352  16.426  0.4815 -0.1824 -0.5058
 7920TIP3   OH245174   2.000   5.963  14.216 -0.4331  0.4091  0.3177
 7920TIP3    H145175   1.913   6.003  14.217 -1.0226 -0.6540 -2.0882
 7920TIP3    H245176   1.986   5.877  14.177  1.7708  0.4147 -0.5814
 7921TIP3   OH245177   1.457   4.795   3.255  0.6656  0.3140 -0.0754
 7921TIP3    H145178   1.497   4.710   3.237  2.9133  1.2361  0.2762
 7921TIP3    H245179   1.505   4.856   3.200  0.6282  1.6821  1.3534
 7922TIP3   OH245180   3.953   5.840  16.366 -0.5189  0.1661  0.2013
 7922TIP3    H145181   3.963   5.878  16.453 -0.1245 -0.2416  0.3362
 7922TIP3    H245182   3.891   5.897  16.322 -0.3709  0.6358  0.5962
 7923TIP3   OH245183   2.773   0.942  12.943 -0.1417  0.2177 -0.0266
 7923TIP3    H145184   2.837   0.897  12.887 -1.4641 -1.3791 -0.3714
 7923TIP3    H245185   2.700   0.880  12.949 -1.1491  1.4677  1.3292
 7924TIP3   OH245186   4.082   1.950  12.080 -0.1260  0.0396 -0.0250
 7924TIP3    H145187   3.996   1.932  12.042  0.2954 -0.3473 -0.8108
 7924TIP3    H245188   4.084   1.899  12.161 -1.4332  1.6712  1.1195
 7925TIP3   OH245189   5.448   1.169   2.120 -0.1678 -0.1502 -0.1165
 7925TIP3    H145190   5.534   1.126   2.120  0.1058  0.3686 -0.7535
 7925TIP3    H245191   5.456   1.237   2.053 -1.1104 -0.1501 -0.2381
 7926TIP3   OH245192   0.277   2.716  16.301  0.1394 -0.1604 -1.5700
 7926TIP3    H145193   0.322   2.787  16.347  0.7011 -0.8942 -0.9672
 7926TIP3    H245194   0.212   2.761  16.245  0.4133  0.8113 -1.1275
 7927TIP3   OH245195   1.834   3.351  11.950  0.1398  0.2091  0.2294
 7927TIP3    H145196   1.903   3.343  11.884  0.3163 -0.9162  0.5173
 7927TIP3    H245197   1.882   3.353  12.033 -0.1689 -0.8398  0.4456
 7928TIP3   OH245198   1.121   5.225   2.738 -1.0157  0.5524  0.7588
 7928TIP3    H145199   1.063   5.170   2.684 -0.9513  0.1171  1.1231
 7928TIP3    H245200   1.171   5.277   2.675 -0.7440 -0.1454  0.3893
 7929TIP3   OH245201   5.385   3.000  11.977  0.4572 -0.2913  0.2064
 7929TIP3    H145202   5.341   2.916  11.989 -0.7807  0.5064  1.5084
 7929TIP3    H245203   5.340   3.041  11.903  0.4058 -0.3700  0.1940
 7930TIP3   OH245204   0.154   4.665   0.229  0.0653 -0.4975 -0.3431
 7930TIP3    H145205   0.179   4.573   0.239  1.5556 -0.1815 -0.8642
 7930TIP3    H245206   0.172   4.704   0.314  1.0707 -0.3359 -0.6273
 7931TIP3   OH245207   2.862   5.132   0.083 -0.9835 -0.1659  0.1432
 7931TIP3    H145208   2.780   5.085   0.098 -0.9094  0.1174  1.6040
 7931TIP3    H245209   2.925   5.089   0.141 -1.0005  1.9357  1.8147
 7932TIP3   OH245210   2.631   4.847  15.697  0.0303 -0.1414 -0.0375
 7932TIP3    H145211   2.574   4.771  15.686 -1.2684  1.1192 -3.1675
 7932TIP3    H245212   2.608   4.882  15.783 -0.8433 -2.0499  0.5647
 7933TIP3   OH245213   6.726   0.124   4.612 -0.0519 -0.7327 -0.0998
 7933TIP3    H145214   6.735   0.203   4.665  1.1853 -0.9256  0.0082
 7933TIP3    H245215   6.797   0.131   4.548 -0.2614 -1.4987 -0.4166
 7934TIP3   OH245216   5.175   2.333   4.973  0.1482 -0.1042  0.5969
 7934TIP3    H145217   5.124   2.412   4.952 -0.0876 -0.2885  0.4802
 7934TIP3    H245218   5.177   2.330   5.069  1.2885  0.7804  0.6283
 7935TIP3   OH245219   2.399   0.085  11.876  0.0652  0.5786  0.3357
 7935TIP3    H145220   2.320   0.138  11.891 -0.3721  0.0087  0.0928
 7935TIP3    H245221   2.387   0.050  11.788  0.1239 -0.3024  0.6719
 7936TIP3   OH245222   3.751   3.381   4.901 -0.2041 -0.3919 -0.1334
 7936TIP3    H145223   3.714   3.444   4.838 -1.2972 -0.6196  0.2702
 7936TIP3    H245224   3.817   3.432   4.949 -0.4916  0.2202 -0.3740
 7937TIP3   OH245225   3.432   1.968   5.683 -0.3078  0.0382 -0.1330
 7937TIP3    H145226   3.520   1.950   5.651  0.3770  1.4615  0.8124
 7937TIP3    H245227   3.446   2.009   5.768 -1.8939  0.2166  0.0709
 7938TIP3   OH245228   4.843   2.920  15.449  0.1077  0.5097  0.2340
 7938TIP3    H145229   4.815   2.828  15.448  1.9771 -0.1144 -1.3596
 7938TIP3    H245230   4.871   2.935  15.540  0.9828 -0.9244  0.2375
 7939TIP3   OH245231   0.894   0.992   5.819  0.4219  0.4176 -0.1654
 7939TIP3    H145232   0.979   1.018   5.853  0.2045 -0.9937  1.6401
 7939TIP3    H245233   0.904   0.899   5.799 -0.5697  0.3366 -0.3297
 7940TIP3   OH245234   2.137   1.378   1.439 -1.0473 -0.0568  0.2562
 7940TIP3    H145235   2.103   1.352   1.354 -1.1748 -0.6588  0.4851
 7940TIP3    H245236   2.167   1.468   1.427 -0.9740 -0.1736 -0.4476
 7941TIP3   OH245237   6.085   5.528   2.282 -0.5560 -0.0286 -0.5340
 7941TIP3    H145238   6.176   5.558   2.288 -0.6793  0.1201  1.9592
 7941TIP3    H245239   6.090   5.445   2.236  0.6136  0.7750 -1.9329
 7942TIP3   OH245240   4.472   3.742  10.797 -0.0611  0.1295  0.1226
 7942TIP3    H145241   4.514   3.698  10.723  0.3274 -0.4499  0.6716
 7942TIP3    H245242   4.382   3.755  10.769 -0.4737 -1.9838  0.3148
 7943TIP3   OH245243   1.694   4.043   0.301  0.3550 -0.0967  0.3894
 7943TIP3    H145244   1.624   4.025   0.238 -0.0574 -0.1724  0.8610
 7943TIP3    H245245   1.775   4.024   0.254  0.1117  0.9248 -0.4856
 7944TIP3   OH245246   3.955   4.673  16.629 -0.6732 -0.6195  0.0663
 7944TIP3    H145247   3.928   4.745  16.571 -0.0547 -0.6160 -0.2255
 7944TIP3    H245248   4.048   4.660  16.609 -0.9737 -2.0897 -0.5283
 7945TIP3   OH245249   3.888   2.305  14.560  0.1748  0.1400  0.8748
 7945TIP3    H145250   3.837   2.264  14.490 -0.9439  1.6835  0.7206
 7945TIP3    H245251   3.928   2.381  14.519  1.2305 -0.1114  1.4263
 7946TIP3   OH245252   2.711   4.631   4.935 -0.5246 -0.8123  0.3719
 7946TIP3    H145253   2.792   4.627   4.986  0.8875  0.4143 -1.6199
 7946TIP3    H245254   2.670   4.713   4.963 -0.3066 -0.6816  0.3140
 7947TIP3   OH245255   0.232   4.732  10.577  0.9800  0.4709  0.3367
 7947TIP3    H145256   0.316   4.738  10.532 -0.0820 -0.9475 -1.9989
 7947TIP3    H245257   0.182   4.807  10.543  1.3782  1.5997  2.0842
 7948TIP3   OH245258   0.580   4.084   0.501  0.3115  0.2375 -0.6500
 7948TIP3    H145259   0.636   4.132   0.440  0.1141  0.6504 -0.5106
 7948TIP3    H245260   0.637   4.061   0.574  0.6069 -0.4653 -1.0927
 7949TIP3   OH245261   4.924   3.428  15.439  0.2837  0.0334  0.6700
 7949TIP3    H145262   4.873   3.347  15.432 -0.8724  0.4729  2.9501
 7949TIP3    H245263   5.015   3.399  15.439  0.1069 -0.8718 -2.2769
 7950TIP3   OH245264   0.380   1.879  15.331  0.1119 -0.1672 -0.0532
 7950TIP3    H145265   0.448   1.845  15.273  1.1939 -0.0613  1.1242
 7950TIP3    H245266   0.299   1.836  15.300  0.7484 -0.5495 -1.2558
 7951TIP3   OH245267   6.384   6.660  13.724  0.2394 -0.2378 -0.1512
 7951TIP3    H145268   6.402   6.731  13.663 -0.0920  0.3003  0.3647
 7951TIP3    H245269   6.300   6.682  13.763  1.3245  0.4969  1.9454
 7952TIP3   OH245270   5.768   2.988   4.894  0.0748 -0.1103  0.1901
 7952TIP3    H145271   5.686   3.032   4.871  0.4759  1.5479  1.7230
 7952TIP3    H245272   5.813   2.975   4.811 -2.6225 -3.1342 -1.0253
 7953TIP3   OH245273   4.142   6.640   2.460 -0.5766 -0.0081 -0.5291
 7953TIP3    H145274   4.076   6.571   2.451 -0.7990 -0.0628  1.1401
 7953TIP3    H245275   4.133   6.693   2.381 -1.7884 -0.7277 -0.8971
 7954TIP3   OH245276   1.203   5.672   5.102  0.1409  0.7750 -0.6013
 7954TIP3    H145277   1.214   5.645   5.011  0.4419  1.6141 -0.8198
 7954TIP3    H245278   1.132   5.616   5.134 -0.6053  1.1031 -1.6164
 7955TIP3   OH245279   3.672   0.256  10.500  0.1522 -0.3370 -0.4115
 7955TIP3    H145280   3.766   0.276  10.499  0.5458 -2.0767 -0.9811
 7955TIP3    H245281   3.664   0.177  10.447 -1.8686  0.6891 -1.7796
 7956TIP3   OH245282   3.305   5.778  11.722 -0.5788 -0.2105  0.7556
 7956TIP3    H145283   3.374   5.722  11.759 -0.0358  0.3043  0.5427
 7956TIP3    H245284   3.224   5.729  11.736 -0.3483 -0.2012  2.2928
 7957TIP3   OH245285   5.063   5.097  16.359 -0.0511  0.4332 -0.5087
 7957TIP3    H145286   5.111   5.045  16.294  1.4257 -0.4181  1.1540
 7957TIP3    H245287   5.091   5.187  16.342 -0.7900  0.4150 -1.9235
 7958TIP3   OH245288   5.817   1.509   2.274  0.2711 -0.4619 -0.2206
 7958TIP3    H145289   5.887   1.475   2.329  0.5264  1.9964  1.1375
 7958TIP3    H245290   5.737   1.488   2.321  0.4746  1.3983  1.0766
 7959TIP3   OH245291   4.693   6.075   0.656  0.2077 -0.2380 -0.2505
 7959TIP3    H145292   4.636   6.030   0.718  1.2350  0.4686  1.2723
 7959TIP3    H245293   4.641   6.149   0.624 -0.2577 -0.4745 -0.0375
 7960TIP3   OH245294   0.155   2.871  13.125 -0.6975  0.6678 -0.2413
 7960TIP3    H145295   0.234   2.835  13.085 -1.3826 -1.2365  0.0442
 7960TIP3    H245296   0.170   2.966  13.126  0.5253  0.5704 -2.4479
 7961TIP3   OH245297   5.066   3.473   4.645  0.3042  0.3851  0.1090
 7961TIP3    H145298   5.062   3.514   4.559  0.8705  0.4003  0.0873
 7961TIP3    H245299   5.074   3.546   4.706  0.9745  0.3294  0.0944
 7962TIP3   OH245300   1.005   4.499  15.750 -0.2225  0.6952  0.2707
 7962TIP3    H145301   1.082   4.447  15.727  2.0617  3.1202  1.8615
 7962TIP3    H245302   0.952   4.499  15.670  1.4527 -0.9536 -0.9352
 7963TIP3   OH245303   1.697   5.559   3.608 -0.2854 -0.0060 -0.0420
 7963TIP3    H145304   1.751   5.636   3.589  0.1441 -0.2160  0.3133
 7963TIP3    H245305   1.616   5.595   3.646 -0.0835  0.2695  0.1263
 7964TIP3   OH245306   3.652   3.074   6.157  0.1091  0.1549 -0.7959
 7964TIP3    H145307   3.678   3.166   6.152  1.6110 -0.1344  0.9667
 7964TIP3    H245308   3.732   3.026   6.140 -0.2172 -0.8142  0.3128
 7965TIP3   OH245309   0.206   1.817  14.369 -0.1710  0.3874 -0.4504
 7965TIP3    H145310   0.152   1.772  14.434 -2.5633  0.7238 -2.0370
 7965TIP3    H245311   0.250   1.746  14.321 -0.2084  0.0142  0.0573
 7966TIP3   OH245312   0.838   3.794   3.143 -0.2854  0.1496  0.1388
 7966TIP3    H145313   0.816   3.887   3.150  1.0065  0.4644  0.3068
 7966TIP3    H245314   0.887   3.786   3.061  1.9658  0.1656  1.3795
 7967TIP3   OH245315   3.684   1.577   1.378 -0.0536  0.4081 -0.0031
 7967TIP3    H145316   3.710   1.569   1.286 -2.8128  0.5934 -0.8779
 7967TIP3    H245317   3.599   1.621   1.376  1.1072  3.2059  2.8459
 7968TIP3   OH245318   3.181   0.422  14.484  0.5282 -0.4483  0.8082
 7968TIP3    H145319   3.275   0.441  14.482  0.1976  1.5483  1.9441
 7968TIP3    H245320   3.149   0.449  14.398  0.7262  0.6245  1.0526
 7969TIP3   OH245321   5.221   0.015  13.502 -0.8697 -0.1646  0.1492
 7969TIP3    H145322   5.314   0.038  13.504 -0.8001 -0.4802  1.5348
 7969TIP3    H245323   5.203  -0.002  13.409 -0.0621  1.8491 -0.4318
 7970TIP3   OH245324   6.094   2.131  16.005 -0.0819 -0.5971  0.2108
 7970TIP3    H145325   6.177   2.177  16.012 -0.3290 -0.1356  0.1151
 7970TIP3    H245326   6.105   2.052  16.059  0.1322 -0.1260  0.8668
 7971TIP3   OH245327   3.856   0.636   5.574 -0.2159  0.5090  0.9425
 7971TIP3    H145328   3.859   0.700   5.645  0.5793  0.8547  0.6062
 7971TIP3    H245329   3.769   0.646   5.536  0.2609  2.1566  0.2053
 7972TIP3   OH245330   4.178   3.508   0.618 -0.2856 -0.1190  0.3294
 7972TIP3    H145331   4.152   3.517   0.527 -3.1028  0.3483  1.0772
 7972TIP3    H245332   4.220   3.591   0.639  0.3334 -0.2096 -0.4987
 7973TIP3   OH245333   5.249   4.408   5.085  0.0459  0.0481 -0.2299
 7973TIP3    H145334   5.163   4.430   5.119 -0.5833 -0.8940 -1.1491
 7973TIP3    H245335   5.311   4.443   5.150 -1.0613 -0.6871  1.2647
 7974TIP3   OH245336   1.574   0.167  14.839 -0.1504  0.8755  0.1737
 7974TIP3    H145337   1.511   0.097  14.856 -0.4538  0.6235 -1.8352
 7974TIP3    H245338   1.618   0.179  14.924 -0.9253 -0.8868  0.8942
 7975TIP3   OH245339   3.343   2.867   5.634 -0.3918  0.2370 -0.2705
 7975TIP3    H145340   3.427   2.903   5.605 -0.4721  0.7394  0.1072
 7975TIP3    H245341   3.362   2.830   5.721 -0.3334 -0.5538 -0.6115
 7976TIP3   OH245342   1.330   1.420  15.084  0.6425  0.1842  0.1816
 7976TIP3    H145343   1.315   1.335  15.126  0.0264  0.4124  0.4335
 7976TIP3    H245344   1.391   1.465  15.143  1.5843 -0.3622 -0.3387
 7977TIP3   OH245345   4.794   6.482  13.812 -0.5412 -0.6417 -0.0185
 7977TIP3    H145346   4.771   6.394  13.783 -0.1514 -0.7304 -0.0565
 7977TIP3    H245347   4.855   6.469  13.884  0.9995 -0.3998 -1.2243
 7978TIP3   OH245348   2.273   3.593  11.509 -0.2243 -0.3812  0.0364
 7978TIP3    H145349   2.302   3.672  11.555  1.1275 -1.1707  0.6086
 7978TIP3    H245350   2.183   3.612  11.483 -0.7988  0.3910  2.3610
 7979TIP3   OH245351   6.667   5.102  14.785  0.3580 -0.2070 -0.3379
 7979TIP3    H145352   6.647   5.012  14.812 -1.5150 -0.0198 -0.9324
 7979TIP3    H245353   6.711   5.093  14.701  1.0748 -0.5929  0.0702
 7980TIP3   OH245354   5.496   5.502   1.559 -0.1226 -0.0220 -0.2519
 7980TIP3    H145355   5.423   5.556   1.528 -0.5707  0.0800  0.9250
 7980TIP3    H245356   5.517   5.445   1.485 -2.0250 -0.6925 -0.3487
 7981TIP3   OH245357   5.621   4.979  15.263 -0.3244  0.3137  0.0057
 7981TIP3    H145358   5.693   4.931  15.305  0.4372  3.4690  2.7420
 7981TIP3    H245359   5.650   5.070  15.263 -4.1760  1.7222  0.9491
 7982TIP3   OH245360   2.572   6.102   3.447  0.2176  0.0214  0.4859
 7982TIP3    H145361   2.510   6.113   3.519 -0.5622 -1.0072 -0.0024
 7982TIP3    H245362   2.654   6.141   3.479  0.0620 -0.9233  2.1386
 7983TIP3   OH245363   0.754   6.811  16.439  0.4572 -0.3023  0.1362
 7983TIP3    H145364   0.811   6.776  16.508 -0.2530 -0.9050  0.4315
 7983TIP3    H245365   0.782   6.902  16.429  1.9592 -0.7723 -0.2374
 7984TIP3   OH245366   1.273   1.850   1.588 -0.1241 -0.3686  0.2371
 7984TIP3    H145367   1.206   1.824   1.652 -0.1257 -0.4317  0.2101
 7984TIP3    H245368   1.245   1.937   1.558  1.5510  1.1159  2.6393
 7985TIP3   OH245369   0.443   1.443   2.388  0.6418  0.0528 -0.4148
 7985TIP3    H145370   0.506   1.497   2.436  0.1481 -0.4854  0.8721
 7985TIP3    H245371   0.358   1.470   2.423  0.2467 -0.1383 -1.2207
 7986TIP3   OH245372   5.786   6.175  14.976 -0.2606 -0.5620  0.3800
 7986TIP3    H145373   5.833   6.254  15.001  0.5505 -0.3881 -1.5735
 7986TIP3    H245374   5.698   6.205  14.953 -0.1463 -0.3237  0.2565
 7987TIP3   OH245375   3.913   2.791   4.360 -0.5709  0.1183 -0.1627
 7987TIP3    H145376   3.925   2.791   4.265 -1.9103 -2.6450 -0.4430
 7987TIP3    H245377   3.958   2.711   4.389 -0.2584  0.8789  1.5445
 7988TIP3   OH245378   2.531   0.356   3.029  0.0891  0.4225  0.6716
 7988TIP3    H145379   2.485   0.440   3.035 -0.5103  0.1681 -0.1819
 7988TIP3    H245380   2.620   0.380   3.004 -0.0264  0.8158  0.6253
 7989TIP3   OH245381   4.723   1.775   4.737 -0.8124  0.4276 -0.0869
 7989TIP3    H145382   4.744   1.850   4.682  0.0194 -0.8912 -1.6628
 7989TIP3    H245383   4.670   1.718   4.680 -0.2980 -0.7801  0.5994
 7990TIP3   OH245384   6.506   6.017  14.723 -0.6382  0.3494 -0.0021
 7990TIP3    H145385   6.479   5.948  14.783 -1.1060  1.0413  0.6064
 7990TIP3    H245386   6.516   5.973  14.639  0.3593 -0.7040  0.6447
 7991TIP3   OH245387   0.435   5.035  14.278 -0.4199 -0.1837 -0.9116
 7991TIP3    H145388   0.455   5.016  14.186 -0.5824 -0.5497 -0.8707
 7991TIP3    H245389   0.339   5.037  14.281 -0.4754 -1.9576 -0.3967
 7992TIP3   OH245390   5.255   6.378  15.544  0.1510 -0.3473  0.1395
 7992TIP3    H145391   5.203   6.339  15.474  0.6245  0.4924 -0.7069
 7992TIP3    H245392   5.191   6.406  15.609 -0.5657  1.1845 -1.1365
 7993TIP3   OH245393   4.242   2.399   4.656 -0.5285  0.6561 -0.2504
 7993TIP3    H145394   4.290   2.469   4.700  2.3756 -0.9272 -0.6420
 7993TIP3    H245395   4.267   2.319   4.703 -1.6338 -0.4303 -1.4208
 7994TIP3   OH245396   0.836   0.182   0.390  0.6521  0.3811 -0.2445
 7994TIP3    H145397   0.895   0.257   0.390  0.8548  0.2772  1.5043
 7994TIP3    H245398   0.845   0.145   0.478 -2.4499  0.7320  0.3518
 7995TIP3   OH245399   0.735   0.630   5.351  0.2759 -0.2459 -0.2884
 7995TIP3    H145400   0.684   0.706   5.380 -0.1360 -0.9607  0.9450
 7995TIP3    H245401   0.794   0.612   5.424 -0.7121 -2.0541  0.1276
 7996TIP3   OH245402   0.468   3.536  16.149  0.1198  0.4272  0.2623
 7996TIP3    H145403   0.479   3.546  16.244 -1.3368 -0.2410  0.5137
 7996TIP3    H245404   0.424   3.617  16.122 -0.1773  0.2739  0.2840
 7997TIP3   OH245405   3.474   2.801   1.449  0.6486 -0.1702  0.4447
 7997TIP3    H145406   3.398   2.821   1.504  1.9495  0.8811  1.9271
 7997TIP3    H245407   3.493   2.709   1.466  1.0751  0.1547  1.8655
 7998TIP3   OH245408   6.137   4.242   3.928  0.1300 -0.4819  0.0434
 7998TIP3    H145409   6.069   4.298   3.967  0.9082 -1.1634  2.5411
 7998TIP3    H245410   6.118   4.245   3.834 -2.4141  0.5746  0.4851
 7999TIP3   OH245411   3.819   5.194  13.487 -0.1527  0.0449 -0.1068
 7999TIP3    H145412   3.910   5.223  13.490 -0.2645  0.3440  0.3704
 7999TIP3    H245413   3.817   5.116  13.543 -0.6682  1.3641  1.7813
 8000TIP3   OH245414   4.953   5.684  13.640  0.2310  0.7246  0.1609
 8000TIP3    H145415   4.985   5.625  13.571  0.3842  0.8565  0.1191
 8000TIP3    H245416   4.888   5.739  13.596 -0.6724 -0.0848  0.4312
 8001TIP3   OH245417   3.440   6.702   0.867 -0.5118  0.2044  0.2840
 8001TIP3    H145418   3.392   6.677   0.788 -0.3135 -0.2401  0.3005
 8001TIP3    H245419   3.508   6.762   0.836 -0.9722  0.7083  0.2388
 8002TIP3   OH245420   1.905   5.539   4.640  0.3888  0.3967  0.8467
 8002TIP3    H145421   1.894   5.444   4.632 -0.1339  0.2334  2.9395
 8002TIP3    H245422   1.987   5.558   4.592 -1.0111 -0.5881 -2.2154
 8003TIP3   OH245423   2.978   6.280   5.865  0.1758 -0.2221  0.3203
 8003TIP3    H145424   2.923   6.339   5.915 -1.5743 -1.4974 -0.0058
 8003TIP3    H245425   2.961   6.193   5.903 -0.2268 -1.0416 -1.6229
 8004TIP3   OH245426   0.849   6.022  12.315 -0.0207 -0.3495  0.0085
 8004TIP3    H145427   0.764   6.037  12.272  0.6664 -0.6813 -1.5232
 8004TIP3    H245428   0.877   6.110  12.342 -0.8716 -0.2444  0.5877
 8005TIP3   OH245429   0.275   3.521  16.945  0.2109  0.0624  0.2182
 8005TIP3    H145430   0.213   3.461  16.988 -1.6196  1.8438  0.2210
 8005TIP3    H245431   0.278   3.598  17.002 -1.1311  1.8768 -1.9687
 8006TIP3   OH245432   1.330   6.567  13.598 -0.0543  0.6547 -0.2282
 8006TIP3    H145433   1.263   6.608  13.543  0.2403  2.0975  0.4334
 8006TIP3    H245434   1.355   6.487  13.551 -0.6309  1.2563 -1.5993
 8007TIP3   OH245435   5.698   0.966   1.155 -0.7596  0.8068 -0.7249
 8007TIP3    H145436   5.732   1.055   1.139 -3.9089  2.8649  2.5088
 8007TIP3    H245437   5.610   0.967   1.117 -0.9914 -0.8259 -0.2686
 8008TIP3   OH245438   4.764   2.840   6.502 -0.1376  0.4130  0.0015
 8008TIP3    H145439   4.701   2.896   6.456 -2.7268 -0.3421  2.3085
 8008TIP3    H245440   4.746   2.855   6.595  1.6065 -1.5045  0.7196
 8009TIP3   OH245441   1.325   6.023   0.193 -0.5013  0.4268 -0.0149
 8009TIP3    H145442   1.373   5.944   0.169  2.1202  1.0089  2.6368
 8009TIP3    H245443   1.234   5.995   0.200  0.1707 -2.0922 -0.2561
 8010TIP3   OH245444   3.776   3.757  13.367  0.2442 -0.0064  0.1390
 8010TIP3    H145445   3.867   3.787  13.370  1.0207 -2.2074 -0.1505
 8010TIP3    H245446   3.761   3.736  13.275 -1.0333  1.5739 -0.0616
 8011TIP3   OH245447   4.118   5.094   0.316 -0.0950  0.6491 -0.0799
 8011TIP3    H145448   4.135   5.056   0.230  0.1021  3.3363 -1.3354
 8011TIP3    H245449   4.205   5.116   0.350 -0.2004  0.0354  0.5980
 8012TIP3   OH245450   4.651   2.651  16.329  0.3370  0.5346 -0.4741
 8012TIP3    H145451   4.570   2.669  16.377 -0.5652 -1.4450 -1.1709
 8012TIP3    H245452   4.721   2.682  16.387 -0.7489 -0.8022  1.6658
 8013TIP3   OH245453   2.342   4.154  13.992  0.2030  0.4002  0.4669
 8013TIP3    H145454   2.296   4.205  14.058 -3.1109  0.1123 -1.3905
 8013TIP3    H245455   2.413   4.211  13.963 -0.7362  2.1787  1.5017
 8014TIP3   OH245456   2.842   6.240   5.247  0.0061 -0.4010 -0.1620
 8014TIP3    H145457   2.908   6.221   5.181 -0.8411  1.3580 -1.5791
 8014TIP3    H245458   2.759   6.215   5.207 -0.3988 -0.6299  0.7877
 8015TIP3   OH245459   1.167   3.013  16.776  0.1381  0.2821 -0.2464
 8015TIP3    H145460   1.160   2.925  16.740  1.1416  0.0714  0.0453
 8015TIP3    H245461   1.076   3.041  16.789 -0.1906 -0.6607 -0.4567
 8016TIP3   OH245462   3.885   1.014   0.147  0.3275  0.4369 -0.0930
 8016TIP3    H145463   3.875   0.975   0.234 -0.5294 -0.2245 -0.4778
 8016TIP3    H245464   3.797   1.043   0.123  0.5354  0.4923 -0.8033
 8017TIP3   OH245465   3.951   5.674  16.030  0.9591  0.6917  1.2314
 8017TIP3    H145466   3.963   5.752  15.976 -0.7441 -0.0344 -0.3487
 8017TIP3    H245467   3.979   5.602  15.973  0.4256  0.0034  1.8207
 8018TIP3   OH245468   1.007   1.242  14.457 -0.4818  0.3809  0.1762
 8018TIP3    H145469   1.048   1.198  14.382  0.3501  2.0509 -0.4080
 8018TIP3    H245470   0.987   1.171  14.519  1.8257 -0.6972 -0.2126
 8019TIP3   OH245471   6.751   1.021   3.321 -0.1585 -0.4023  0.0197
 8019TIP3    H145472   6.681   0.992   3.379 -0.5992  0.2584 -0.1643
 8019TIP3    H245473   6.724   1.109   3.293  1.8344  0.8215  1.7090
 8020TIP3   OH245474   2.097   5.500  16.026  0.3978 -0.2320  0.6327
 8020TIP3    H145475   2.159   5.476  15.957 -1.0017  1.1743 -1.2041
 8020TIP3    H245476   2.011   5.493  15.985 -0.5382  0.1760  2.4048
 8021TIP3   OH245477   0.582   5.611   5.842 -0.1001 -0.4497  0.3665
 8021TIP3    H145478   0.656   5.670   5.826 -2.0789  2.3690  0.8472
 8021TIP3    H245479   0.563   5.622   5.936 -2.6334  0.9875 -0.2012
 8022TIP3   OH245480   4.114   3.594   3.110 -0.3385  0.2494  0.6082
 8022TIP3    H145481   4.045   3.659   3.125 -0.5615 -0.0634  0.9507
 8022TIP3    H245482   4.136   3.562   3.197  0.0526  0.1519  0.4749
 8023TIP3   OH245483   4.793   4.880  15.765  0.0825  0.1656  0.6549
 8023TIP3    H145484   4.768   4.794  15.732  0.1232  0.2103  0.5072
 8023TIP3    H245485   4.822   4.863  15.855 -3.0214  0.4791  1.8306
 8024TIP3   OH245486   0.242   4.296   4.573  0.1784 -0.0857  0.1976
 8024TIP3    H145487   0.255   4.214   4.620 -4.4597 -1.6492 -0.7366
 8024TIP3    H245488   0.181   4.346   4.627 -0.9193  0.5193 -1.4991
 8025TIP3   OH245489   2.048   6.522  13.260  0.1903  0.2120 -0.5588
 8025TIP3    H145490   2.048   6.573  13.341 -0.0388 -1.0944  0.2951
 8025TIP3    H245491   2.139   6.493  13.251 -0.1959 -1.4716  0.4681
 8026TIP3   OH245492   4.578   0.560  10.702  0.0605  0.2101 -0.1053
 8026TIP3    H145493   4.502   0.504  10.721  0.8892 -1.2418 -0.8929
 8026TIP3    H245494   4.544   0.628  10.645 -0.5230 -0.8440 -1.0408
 8027TIP3   OH245495   0.959   6.804   2.212 -0.0248 -0.2840 -0.4501
 8027TIP3    H145496   1.037   6.807   2.157 -0.3643 -1.5712 -1.0296
 8027TIP3    H245497   0.976   6.734   2.275 -1.0023 -1.1301 -1.0828
 8028TIP3   OH245498   1.914   2.933   0.464 -0.8077  0.3374 -0.3942
 8028TIP3    H145499   1.866   2.896   0.390 -2.3288  0.3025  0.5687
 8028TIP3    H245500   1.909   3.027   0.452 -1.0541  0.3310 -0.3464
 8029TIP3   OH245501   2.037   1.810  13.752  0.5649 -0.4616  0.0917
 8029TIP3    H145502   1.983   1.787  13.827 -1.2207 -0.0155 -0.9889
 8029TIP3    H245503   2.050   1.728  13.705  2.5859 -0.9465  1.3716
 8030TIP3   OH245504   5.400   4.853   1.031 -0.3183  0.7407 -0.0585
 8030TIP3    H145505   5.365   4.936   0.999 -0.1939  0.4539 -0.9695
 8030TIP3    H245506   5.435   4.810   0.953 -0.1241 -0.0442  0.4481
 8031TIP3   OH245507   0.080   6.370   3.766  0.0259  0.0403  0.0258
 8031TIP3    H145508   0.143   6.409   3.827 -1.9671  0.4886  1.9141
 8031TIP3    H245509   0.053   6.443   3.710  1.3784 -0.2317 -1.0411
 8032TIP3   OH245510   6.312   4.279   0.517 -0.1799  0.3482  0.1646
 8032TIP3    H145511   6.309   4.323   0.432 -0.6073  1.1910  0.6020
 8032TIP3    H245512   6.388   4.221   0.511  0.2210  0.9210 -0.5443
 8033TIP3   OH245513   0.531   4.366  14.590  0.0240  0.4638 -0.2336
 8033TIP3    H145514   0.549   4.370  14.496 -0.9252  0.3182 -0.4265
 8033TIP3    H245515   0.443   4.401  14.599 -0.1617 -0.1818  0.5206
 8034TIP3   OH245516   4.690   4.427   4.921 -0.7463 -0.1142  0.2657
 8034TIP3    H145517   4.690   4.483   4.999  2.5269  0.4276  0.0180
 8034TIP3    H245518   4.657   4.484   4.851 -0.1550  0.6333  0.5787
 8035TIP3   OH245519   4.209   5.439  16.319  0.0210 -0.4720 -0.2086
 8035TIP3    H145520   4.260   5.402  16.248  3.5261 -1.6200  2.5907
 8035TIP3    H245521   4.202   5.532  16.299  0.2526 -0.8772 -2.3465
 8036TIP3   OH245522   3.099   6.556  12.560  0.1539 -0.4702  0.1723
 8036TIP3    H145523   3.044   6.596  12.627 -0.3785 -1.2790  0.2378
 8036TIP3    H245524   3.069   6.595  12.478 -0.3004 -0.6651  0.2432
 8037TIP3   OH245525   5.107   2.379  15.234 -0.1403  0.4442 -0.2794
 8037TIP3    H145526   5.016   2.392  15.207 -0.0241  0.8786 -0.4734
 8037TIP3    H245527   5.109   2.401  15.327  0.0117  1.6427 -0.5559
 8038TIP3   OH245528   3.961   4.871  15.815  0.1948 -0.2087 -0.6217
 8038TIP3    H145529   3.985   4.963  15.822  0.3357 -0.2128 -1.0441
 8038TIP3    H245530   4.042   4.823  15.835  0.4673 -0.2256 -1.7033
 8039TIP3   OH245531   4.388   3.989   3.724 -0.8099  0.0383  0.2211
 8039TIP3    H145532   4.464   3.932   3.712 -0.3761  0.3114  1.5350
 8039TIP3    H245533   4.375   3.993   3.819 -4.3057 -2.4407  0.0705
 8040TIP3   OH245534   0.556   3.730   4.605  0.5033 -0.0300  0.1468
 8040TIP3    H145535   0.467   3.760   4.625  1.4530  3.1562  0.0866
 8040TIP3    H245536   0.543   3.656   4.545 -2.1067  1.8114 -1.7698
 8041TIP3   OH245537   2.219   6.562  15.517 -0.2565 -0.1675  0.3051
 8041TIP3    H145538   2.152   6.513  15.565 -1.4637  0.0321 -1.0938
 8041TIP3    H245539   2.247   6.631  15.577 -3.4983  1.6218  0.0022
 8042TIP3   OH245540   1.196   4.557   4.187  0.1197  0.0067 -0.3366
 8042TIP3    H145541   1.187   4.462   4.195  0.1952  0.0023 -0.3065
 8042TIP3    H245542   1.290   4.572   4.179  0.0691  0.0313 -0.9350
 8043TIP3   OH245543   4.601   3.016   5.459  0.2947 -0.0659 -0.2010
 8043TIP3    H145544   4.596   3.058   5.373  1.0424  0.3064 -0.0746
 8043TIP3    H245545   4.550   3.074   5.516  1.0889  0.5471 -0.0856
 8044TIP3   OH245546   6.267   1.394  15.501  0.0489  0.3744  0.3418
 8044TIP3    H145547   6.328   1.466  15.519  1.4911 -0.5225 -0.7347
 8044TIP3    H245548   6.293   1.362  15.415 -2.8599  0.8129 -0.8065
 8045TIP3   OH245549   3.665   6.686   4.340  0.3214 -0.2312  0.1131
 8045TIP3    H145550   3.604   6.615   4.321 -0.7786  0.8145 -0.4055
 8045TIP3    H245551   3.637   6.718   4.426  1.2592 -0.8562  0.6656
 8046TIP3   OH245552   5.556   0.312   1.459 -0.1365 -0.1184 -0.3161
 8046TIP3    H145553   5.649   0.327   1.446 -0.0025 -0.5627  0.0895
 8046TIP3    H245554   5.525   0.387   1.510 -0.2734  0.6755 -1.5268
 8047TIP3   OH245555   3.520   1.946  10.937 -0.1723 -0.1714 -0.4325
 8047TIP3    H145556   3.575   1.943  10.859  0.1849 -0.2159 -0.1825
 8047TIP3    H245557   3.568   2.003  10.998 -0.0628 -0.7567  0.0399
 8048TIP3   OH245558   4.975   6.179  15.136  0.1769 -0.0679 -0.5475
 8048TIP3    H145559   4.968   6.169  15.041 -0.1280 -2.5284 -0.3276
 8048TIP3    H245560   4.887   6.159  15.169  1.2303 -3.8992  0.4591
 8049TIP3   OH245561   6.589   1.887  15.774  0.3923 -0.5524  0.1608
 8049TIP3    H145562   6.524   1.851  15.713  0.9092  0.8332 -1.2774
 8049TIP3    H245563   6.547   1.881  15.860 -1.0992 -0.9303 -0.5518
 8050TIP3   OH245564   2.758   4.942   5.792 -0.0165 -0.9415 -0.5557
 8050TIP3    H145565   2.851   4.940   5.817  0.1874  1.0948 -0.9216
 8050TIP3    H245566   2.745   4.863   5.740  1.8419 -0.6846 -1.4961
 8051TIP3   OH245567   5.773   0.546   2.584 -0.0890 -0.1619 -0.3226
 8051TIP3    H145568   5.765   0.619   2.646  1.7369 -1.2883  1.3605
 8051TIP3    H245569   5.686   0.540   2.544 -0.4842  2.5058 -0.0954
 8052TIP3   OH245570   1.480   6.153  14.677 -1.3501  0.2288  0.7419
 8052TIP3    H145571   1.403   6.119  14.632 -1.0396  0.3029  0.1400
 8052TIP3    H245572   1.514   6.221  14.619  0.5935 -1.4766 -0.2531
 8053TIP3   OH245573   4.016   2.516   4.483  0.2715 -0.4096  0.0782
 8053TIP3    H145574   3.973   2.465   4.415 -0.2717 -0.5916  0.5514
 8053TIP3    H245575   4.088   2.460   4.513  1.0267  0.0032 -0.8950
 8054TIP3   OH245576   3.009   5.728  16.948  0.2387 -0.2182  0.3325
 8054TIP3    H145577   3.079   5.664  16.961 -1.4846 -2.4003 -0.4683
 8054TIP3    H245578   2.964   5.698  16.869 -1.9554  0.7426  1.1598
 8055TIP3   OH245579   2.302   6.707  14.656  0.4319  0.1951 -0.0684
 8055TIP3    H145580   2.315   6.751  14.572  0.3908 -0.1809 -0.2708
 8055TIP3    H245581   2.309   6.614  14.636  2.0357  0.1470  0.6178
 8056TIP3   OH245582   5.039   6.719  14.687 -0.1446 -0.7282 -0.0652
 8056TIP3    H145583   4.976   6.750  14.622 -0.5322  2.9277  1.7668
 8056TIP3    H245584   5.122   6.759  14.660  0.3489 -1.5985  0.1320
 8057TIP3   OH245585   1.271   5.202   0.185  0.5095  0.5743  0.5921
 8057TIP3    H145586   1.302   5.260   0.116 -1.0902  0.9604  0.1577
 8057TIP3    H245587   1.316   5.119   0.169 -0.5471  0.3634 -1.5329
 8058TIP3   OH245588   6.585   6.495   3.651 -0.0349  0.0483  0.4768
 8058TIP3    H145589   6.670   6.539   3.650 -0.3963  0.8406 -2.1740
 8058TIP3    H245590   6.575   6.460   3.563 -2.4429 -0.0613  0.7372
 8059TIP3   OH245591   0.670   1.389   1.820 -0.5403 -0.2838 -0.2484
 8059TIP3    H145592   0.728   1.396   1.744 -1.1462  0.9501 -0.6224
 8059TIP3    H245593   0.590   1.349   1.785 -0.5604 -0.3758 -0.0995
 8060TIP3   OH245594   1.902   5.089   3.160  0.1807 -0.2769 -0.4013
 8060TIP3    H145595   1.916   4.995   3.144  1.8355 -0.0287 -0.5249
 8060TIP3    H245596   1.905   5.097   3.256 -0.4441 -0.4039 -0.3645
 8061TIP3   OH245597   6.395   5.341   4.223 -0.7351 -0.3135 -0.0954
 8061TIP3    H145598   6.461   5.272   4.213 -0.6273 -0.5574  1.9432
 8061TIP3    H245599   6.332   5.323   4.153 -0.5397 -2.3154  0.1748
 8062TIP3   OH245600   1.432   3.147  13.013 -0.3426 -0.0233  0.2962
 8062TIP3    H145601   1.351   3.136  12.964  0.9062 -0.7824 -1.7670
 8062TIP3    H245602   1.436   3.241  13.032 -2.5408 -0.2100  2.1546
 8063TIP3   OH245603   5.326   0.070   1.096 -0.4493  0.2616  0.4874
 8063TIP3    H145604   5.407   0.080   1.046 -0.3785 -0.6106  0.4186
 8063TIP3    H245605   5.352   0.089   1.187 -0.5849  1.8663  0.2166
 8064TIP3   OH245606   5.187   1.260   0.034  0.3979 -0.5073  0.2204
 8064TIP3    H145607   5.237   1.301  -0.036  0.2218  1.8839  1.3929
 8064TIP3    H245608   5.177   1.329   0.100  0.8608 -2.7475  2.7840
 8065TIP3   OH245609   2.865   4.100  11.906 -0.0292 -0.1466 -0.2838
 8065TIP3    H145610   2.846   4.194  11.915 -0.3881 -0.2758  0.3670
 8065TIP3    H245611   2.818   4.075  11.826  1.3961  0.5581 -1.3867
 8066TIP3   OH245612   1.664   1.731   1.480  0.2053  0.0186  0.4473
 8066TIP3    H145613   1.756   1.708   1.464  0.2195 -1.4400  2.2611
 8066TIP3    H245614   1.615   1.668   1.427  0.2455  0.6258 -0.3167
 8067TIP3   OH245615   3.533   1.353  12.552  0.1527 -0.1798  0.0501
 8067TIP3    H145616   3.600   1.410  12.515 -0.5941  1.1630  0.7239
 8067TIP3    H245617   3.579   1.270  12.569  1.8596  0.9709  1.2975
 8068TIP3   OH245618   1.317   5.392  16.205 -0.3102 -0.4066 -0.0850
 8068TIP3    H145619   1.365   5.410  16.286  0.0486  0.0094 -0.3899
 8068TIP3    H245620   1.298   5.298  16.209 -1.5822 -0.1245  1.1860
 8069TIP3   OH245621   2.645   2.572  14.504  0.1316 -0.4821  0.3371
 8069TIP3    H145622   2.560   2.547  14.467 -0.9261  2.4665  0.4861
 8069TIP3    H245623   2.703   2.579  14.428  0.4370 -2.9152  0.2747
 8070TIP3   OH245624   3.708   6.206  15.850 -0.3259  0.1701 -0.0258
 8070TIP3    H145625   3.671   6.216  15.762 -1.5526 -0.4674  0.3957
 8070TIP3    H245626   3.638   6.164  15.900  0.8757 -0.7921  0.8898
 8071TIP3   OH245627   0.554   5.647   3.457  0.1249  0.5518  0.0579
 8071TIP3    H145628   0.530   5.738   3.472 -0.5581  0.3062  0.4960
 8071TIP3    H245629   0.619   5.650   3.387 -1.2991  1.2389 -1.2833
 8072TIP3   OH245630   6.272   0.921  16.366 -0.0849  0.0760  0.3334
 8072TIP3    H145631   6.259   0.833  16.330 -1.3680 -0.0688  1.0995
 8072TIP3    H245632   6.357   0.948  16.331  0.1689 -1.3157 -0.2168
 8073TIP3   OH245633   0.758   6.737  13.435  0.1834 -0.1398  0.2730
 8073TIP3    H145634   0.672   6.757  13.397  0.5918  1.4914  0.0913
 8073TIP3    H245635   0.780   6.650  13.402 -1.4201 -0.5978  0.3698
 8074TIP3   OH245636   2.476   2.181   2.367 -0.0644 -0.6254  0.1721
 8074TIP3    H145637   2.535   2.205   2.438  0.0497 -2.0879  0.6119
 8074TIP3    H245638   2.475   2.085   2.368 -1.5812 -0.6479 -0.5546
 8075TIP3   OH245639   6.721   6.089  10.802  0.2648  0.0255  0.4323
 8075TIP3    H145640   6.740   6.055  10.715 -2.4760 -0.5535 -0.0252
 8075TIP3    H245641   6.649   6.151  10.789 -0.1159  0.0237  2.2526
 8076TIP3   OH245642   1.810   3.458  13.787 -0.3205 -0.1560 -0.7339
 8076TIP3    H145643   1.841   3.376  13.825 -0.5988 -0.2292 -0.6619
 8076TIP3    H245644   1.789   3.514  13.863 -1.1053 -0.3882 -0.7653
 8077TIP3   OH245645   5.025   6.736   3.654  0.3264 -0.2777  0.1278
 8077TIP3    H145646   4.978   6.664   3.695 -0.7769 -0.2788 -1.0622
 8077TIP3    H245647   5.074   6.695   3.582  1.8044 -0.2003  1.0510
 8078TIP3   OH245648   1.140   3.824  11.198  0.3646  0.1471  0.0659
 8078TIP3    H145649   1.086   3.762  11.149 -2.3986  1.4476  1.2478
 8078TIP3    H245650   1.144   3.788  11.287  1.7742 -0.0780 -0.0665
 8079TIP3   OH245651   4.461   0.455  14.221 -0.2901  0.4781  0.2769
 8079TIP3    H145652   4.408   0.460  14.301 -0.8070  0.6449 -0.0642
 8079TIP3    H245653   4.414   0.392  14.166 -1.2311  2.0250 -0.8001
 8080TIP3   OH245654   1.091   2.549   6.608  0.2159  0.7879 -0.0826
 8080TIP3    H145655   1.062   2.634   6.642 -1.6077 -0.2680  1.1743
 8080TIP3    H245656   1.012   2.507   6.576  1.0036 -0.6039 -0.3053
 8081TIP3   OH245657   1.540   0.397  16.416 -0.3715 -0.0648  0.1284
 8081TIP3    H145658   1.485   0.472  16.440  0.6812  0.5812  0.5486
 8081TIP3    H245659   1.604   0.390  16.487  0.2271 -0.6913 -0.4639
 8082TIP3   OH245660   1.557   0.853  14.276  0.1040  0.0524 -0.0958
 8082TIP3    H145661   1.632   0.898  14.238  0.8076 -1.5385 -0.6887
 8082TIP3    H245662   1.547   0.892  14.362  1.0877  0.8673 -0.3285
 8083TIP3   OH245663   4.267   6.026  15.406  0.1683  0.2213  0.4948
 8083TIP3    H145664   4.351   6.059  15.374  0.0894  0.8344  0.9030
 8083TIP3    H245665   4.233   5.974  15.333 -0.4309  2.3287 -0.8281
 8084TIP3   OH245666   5.526   5.372   4.505 -0.0997 -0.7375  0.1854
 8084TIP3    H145667   5.520   5.341   4.595 -0.0940 -0.3574  0.3208
 8084TIP3    H245668   5.614   5.348   4.476 -0.1136 -0.8885  0.2717
 8085TIP3   OH245669   5.668   2.273  14.844 -0.7835  0.3711  0.2907
 8085TIP3    H145670   5.600   2.222  14.888 -0.0517  0.5084  1.6343
 8085TIP3    H245671   5.648   2.364  14.866 -0.1002  0.4012  0.8188
 8086TIP3   OH245672   0.238   6.603  14.284 -0.0528 -0.0773  0.3359
 8086TIP3    H145673   0.300   6.530  14.271  2.0078  1.1221  2.5590
 8086TIP3    H245674   0.179   6.598  14.209 -0.1731 -4.1432  0.4688
 8087TIP3   OH245675   6.688   2.809  16.163 -0.2428 -0.1689  0.2001
 8087TIP3    H145676   6.726   2.845  16.243 -0.2286 -2.6645  1.4210
 8087TIP3    H245677   6.761   2.769  16.117 -0.6667 -1.1556  0.3583
 8088TIP3   OH245678   0.875   4.389  10.855 -0.5815 -0.8478 -0.2160
 8088TIP3    H145679   0.949   4.400  10.795 -0.7855 -2.7451 -0.9054
 8088TIP3    H245680   0.805   4.442  10.817  0.2756  0.6243  0.2107
 8089TIP3   OH245681   4.613   2.939   4.094 -0.5635  0.1407  0.2773
 8089TIP3    H145682   4.687   2.900   4.142  0.4211  0.8833 -0.5923
 8089TIP3    H245683   4.606   2.887   4.014 -2.2141 -1.1071  1.1677
 8090TIP3   OH245684   3.727   1.078   0.803  0.1533  0.1864  0.1271
 8090TIP3    H145685   3.811   1.043   0.776 -0.8698 -0.6143 -2.4204
 8090TIP3    H245686   3.708   1.037   0.887  2.4525  0.7739  1.0080
 8091TIP3   OH245687   0.962   5.862   2.474 -0.9910  0.2995 -0.3273
 8091TIP3    H145688   0.983   5.900   2.389 -0.0308  1.9275  0.5910
 8091TIP3    H245689   1.035   5.803   2.493 -1.4320 -0.4152 -0.8159
 8092TIP3   OH245690   0.033   5.627  12.391  0.8818  0.2312  0.3651
 8092TIP3    H145691   0.056   5.705  12.443  1.2635  0.1821  0.2705
 8092TIP3    H245692   0.066   5.554  12.443 -1.5910 -0.0689  1.6733
 8093TIP3   OH245693   4.859   0.452   5.046 -0.4532  0.4342  0.0979
 8093TIP3    H145694   4.845   0.466   5.140 -0.3323  0.1207  0.1640
 8093TIP3    H245695   4.950   0.423   5.039  0.1440  2.2974 -0.3234
 8094TIP3   OH245696   4.997   0.946  12.652  0.4078  0.7352 -0.3646
 8094TIP3    H145697   5.069   0.995  12.692  0.7426  0.0076 -0.0607
 8094TIP3    H245698   5.040   0.879  12.598 -0.0143 -0.3574  0.6071
 8095TIP3   OH245699   0.482   1.979   1.817 -0.2059  0.3133  0.1600
 8095TIP3    H145700   0.458   1.983   1.725 -2.9019 -1.5986  0.6526
 8095TIP3    H245701   0.410   2.023   1.863  0.7106  0.5691  1.4285
 8096TIP3   OH245702   1.387   3.029  16.924  0.5933 -0.2826 -0.2353
 8096TIP3    H145703   1.443   2.953  16.908  0.3060 -0.8112  1.0870
 8096TIP3    H245704   1.307   3.011  16.874  0.9567 -0.3077 -0.8190
 8097TIP3   OH245705   6.116   6.143  11.106 -0.2033  0.3211  0.4594
 8097TIP3    H145706   6.201   6.140  11.061 -0.7615 -1.1812 -0.5490
 8097TIP3    H245707   6.087   6.052  11.108 -1.4856  0.7344  1.4151
 8098TIP3   OH245708   4.818   2.944   5.639 -0.6525  0.3589  0.3352
 8098TIP3    H145709   4.781   2.976   5.557 -0.3315 -0.0976  0.0067
 8098TIP3    H245710   4.756   2.877   5.669  0.0001 -0.5807 -0.3404
 8099TIP3   OH245711   0.435   0.394  11.863 -0.3219  0.2624 -0.4039
 8099TIP3    H145712   0.491   0.423  11.934 -1.0220  0.2709  0.1497
 8099TIP3    H245713   0.400   0.475  11.826 -0.8384  0.2070 -0.0357
 8100TIP3   OH245714   4.747   5.887  14.754  0.3726  0.5276  0.2201
 8100TIP3    H145715   4.751   5.804  14.707  2.6207  0.4727  0.3909
 8100TIP3    H245716   4.732   5.953  14.687 -2.3790 -0.0266  0.1839
 8101TIP3   OH245717   2.056   6.173  10.293 -0.2949 -0.2095 -0.0397
 8101TIP3    H145718   1.975   6.146  10.250 -1.2738  3.0911 -0.6106
 8101TIP3    H245719   2.030   6.194  10.383  0.3852 -0.9708  0.3528
 8102TIP3   OH245720   0.759   0.359  10.474  0.1228 -0.1742 -0.2736
 8102TIP3    H145721   0.774   0.283  10.417  0.5298 -1.3952  1.3839
 8102TIP3    H245722   0.844   0.375  10.516 -0.9687 -1.9148  2.9806
 8103TIP3   OH245723   4.272   1.925   0.721  0.1558  0.9699  0.2025
 8103TIP3    H145724   4.266   2.008   0.674 -0.4693  0.7374 -0.1426
 8103TIP3    H245725   4.275   1.859   0.651 -1.0372  0.6003  0.4726
 8104TIP3   OH245726   1.013   2.691   0.996  0.7342 -0.5738  0.0650
 8104TIP3    H145727   1.026   2.677   1.090 -2.6316  0.6368  0.8641
 8104TIP3    H245728   0.963   2.615   0.967 -0.8988  0.4601  0.0316
 8105TIP3   OH245729   0.740   1.250  15.193  0.2370 -0.0800 -0.6082
 8105TIP3    H145730   0.672   1.197  15.151 -1.3475  0.3718  1.2145
 8105TIP3    H245731   0.803   1.186  15.226  0.7180 -0.5156 -2.2974
 8106TIP3   OH245732   3.830   1.225   1.079 -0.1134  0.5833 -0.4776
 8106TIP3    H145733   3.741   1.230   1.042 -0.8794 -0.5909  1.0688
 8106TIP3    H245734   3.846   1.312   1.114 -1.5278  0.3196  0.9840
 8107TIP3   OH245735   5.427   6.622  12.005 -0.2752  0.9224  0.0488
 8107TIP3    H145736   5.401   6.587  11.919  0.2858  0.9342 -0.1297
 8107TIP3    H245737   5.399   6.556  12.067 -0.1092  0.6126 -0.2026
 8108TIP3   OH245738   2.830   3.017  15.010  0.0300  0.9528  0.4747
 8108TIP3    H145739   2.825   3.028  15.105  0.5580 -1.6168  0.8786
 8108TIP3    H245740   2.910   2.966  14.997 -0.4678  0.5743 -1.2795
 8109TIP3   OH245741   1.985   6.711   0.215  0.4864  0.5161  0.0173
 8109TIP3    H145742   1.895   6.729   0.244 -0.3025  0.3008 -2.1579
 8109TIP3    H245743   1.982   6.622   0.181  1.6987  0.2793  0.4996
 8110TIP3   OH245744   0.628   2.582  11.819 -0.6000  0.3948 -0.3806
 8110TIP3    H145745   0.630   2.505  11.763  0.9277  0.7530 -0.8696
 8110TIP3    H245746   0.592   2.551  11.902  1.2171 -1.1836 -0.1094
 8111TIP3   OH245747   4.124   1.260  12.758  0.4610 -0.2371 -0.3195
 8111TIP3    H145748   4.147   1.353  12.746  0.0800  0.7031  4.3072
 8111TIP3    H245749   4.206   1.218  12.781  0.0794 -0.0003  1.7465
 8112TIP3   OH245750   0.161   2.567   3.666  0.0773 -0.3839  0.0470
 8112TIP3    H145751   0.104   2.491   3.672 -2.0980  1.1621  0.0322
 8112TIP3    H245752   0.224   2.556   3.737 -1.3146 -1.3137  1.1707
 8113TIP3   OH245753   5.330   6.246   0.573  0.9100 -0.0944  0.6410
 8113TIP3    H145754   5.361   6.327   0.532  1.4431  0.1279  1.4758
 8113TIP3    H245755   5.400   6.220   0.632 -0.0117 -0.2054  1.7098
 8114TIP3   OH245756   0.750   0.875  16.159 -0.1191 -0.5692  0.1079
 8114TIP3    H145757   0.836   0.892  16.200 -0.3997 -1.2688  1.0275
 8114TIP3    H245758   0.741   0.780  16.162 -1.0214 -0.4867  0.2114
 8115TIP3   OH245759   5.101   3.767   6.600  0.5738  0.4205  0.2015
 8115TIP3    H145760   5.046   3.739   6.527  1.4827  0.2022 -0.4256
 8115TIP3    H245761   5.040   3.790   6.669 -0.3666  1.5710 -0.9544
 8116TIP3   OH245762   6.255   4.186  12.309  0.1427 -0.4660  0.2003
 8116TIP3    H145763   6.250   4.104  12.261 -0.7235  0.2451 -0.9596
 8116TIP3    H245764   6.345   4.188  12.344  0.9482 -0.8129 -1.7435
 8117TIP3   OH245765   6.629   1.382  16.378  0.0219 -0.0969  0.1749
 8117TIP3    H145766   6.670   1.337  16.452 -1.2755  0.8866  1.5716
 8117TIP3    H245767   6.553   1.329  16.356 -1.2433  1.0654  1.5168
 8118TIP3   OH245768   1.163   6.498   3.130  0.4289  0.1369 -0.4491
 8118TIP3    H145769   1.209   6.414   3.124  0.0359 -0.0579 -0.7956
 8118TIP3    H245770   1.197   6.539   3.210  0.7066 -0.2988 -0.3417
 8119TIP3   OH245771   0.781   4.665   2.920 -0.6219  0.9222 -0.0936
 8119TIP3    H145772   0.703   4.610   2.912 -0.1331  0.2519 -0.3276
 8119TIP3    H245773   0.771   4.731   2.851 -0.3879  0.0867 -0.9411
 8120TIP3   OH245774   6.720   0.707  16.244 -0.5486 -0.1343  0.0251
 8120TIP3    H145775   6.729   0.686  16.151  0.5321 -1.4782  0.3920
 8120TIP3    H245776   6.781   0.780  16.258 -2.6787  1.9257 -0.8096
 8121TIP3   OH245777   3.403   1.845  11.236 -0.4034 -0.0514 -0.5124
 8121TIP3    H145778   3.363   1.897  11.306  0.1602 -1.1625  0.6512
 8121TIP3    H245779   3.496   1.866  11.241 -0.5562  1.3713 -2.2516
 8122TIP3   OH245780   1.800   4.899   6.087 -0.5419  0.1445 -0.2280
 8122TIP3    H145781   1.779   4.810   6.116 -1.6685  0.8542  1.2558
 8122TIP3    H245782   1.715   4.939   6.070 -0.1617  1.4865  0.8566
 8123TIP3   OH245783   5.160   6.241  11.982  0.2610 -0.3988  0.2217
 8123TIP3    H145784   5.066   6.224  11.983  0.2207 -0.5204 -1.6219
 8123TIP3    H245785   5.200   6.154  11.971  0.7004 -0.5026  2.1834
 8124TIP3   OH245786   5.254   0.174   0.182 -0.2750  0.3150 -0.1254
 8124TIP3    H145787   5.295   0.184   0.096  1.6740 -1.7771  0.4716
 8124TIP3    H245788   5.186   0.241   0.184  2.4161  3.3571 -1.6299
 8125TIP3   OH245789   1.887   1.190  11.738 -0.2994 -0.4160  0.6090
 8125TIP3    H145790   1.811   1.144  11.702  0.2198 -1.2648  0.5565
 8125TIP3    H245791   1.939   1.120  11.779  1.3316 -0.1356 -0.8816
 8126TIP3   OH245792   3.361   2.264   4.806  0.2164 -0.3223 -0.1878
 8126TIP3    H145793   3.341   2.254   4.899 -1.3613 -1.0568 -0.5684
 8126TIP3    H245794   3.453   2.290   4.804 -0.0810  1.0801  1.6295
 8127TIP3   OH245795   2.403   1.752   5.686 -0.1336 -0.5892  0.4539
 8127TIP3    H145796   2.488   1.709   5.675  0.0386 -0.3954  1.0046
 8127TIP3    H245797   2.402   1.781   5.777 -0.6550 -0.2953  0.3599
 8128TIP3   OH245798   4.901   4.995  13.690  0.0719 -0.6290 -0.1561
 8128TIP3    H145799   4.932   5.017  13.602  0.0887 -1.2534 -0.3085
 8128TIP3    H245800   4.816   5.038  13.697  1.3450  1.9785  0.6399
 8129TIP3   OH245801   0.501   5.378  13.577  0.2799 -0.3846 -0.1707
 8129TIP3    H145802   0.469   5.312  13.516 -2.0122 -0.4435  0.9991
 8129TIP3    H245803   0.452   5.458  13.555  0.4461 -0.0324  0.6736
 8130TIP3   OH245804   1.303   3.938  16.832 -0.2622 -0.8672 -0.3534
 8130TIP3    H145805   1.393   3.914  16.851  0.0079 -0.4544 -1.0678
 8130TIP3    H245806   1.291   4.021  16.878 -0.4067 -1.1223  0.0709
 8131TIP3   OH245807   6.157   2.587   4.456  0.1751 -0.4372  1.0721
 8131TIP3    H145808   6.155   2.538   4.374 -1.9434 -1.4355  1.6554
 8131TIP3    H245809   6.236   2.556   4.501  1.1004 -0.2220 -0.3442
 8132TIP3   OH245810   1.921   5.694  14.146 -0.4026 -0.3951  0.6113
 8132TIP3    H145811   1.952   5.619  14.094  0.7065  0.5523 -0.1406
 8132TIP3    H245812   1.924   5.662  14.237 -0.1483 -1.3304  0.2929
 8133TIP3   OH245813   4.027   3.210   4.534 -0.0602  0.3218  0.2725
 8133TIP3    H145814   4.106   3.169   4.570  0.9356  1.0077 -1.0618
 8133TIP3    H245815   4.028   3.186   4.441 -0.8668  1.2146  0.0216
 8134TIP3   OH245816   4.698   6.371   4.713 -0.5193  0.1751 -0.3529
 8134TIP3    H145817   4.673   6.389   4.623  0.6146  1.1098 -0.4967
 8134TIP3    H245818   4.784   6.330   4.707 -0.0680  0.9961  0.3371
 8135TIP3   OH245819   3.348   6.774   0.029 -0.4338  0.2868 -0.7385
 8135TIP3    H145820   3.357   6.805   0.119 -1.1849  0.7233 -0.8061
 8135TIP3    H245821   3.388   6.688   0.029 -1.8961 -0.4298  0.4195
 8136TIP3   OH245822   0.104   3.822   3.752 -0.2986  0.6329  0.8589
 8136TIP3    H145823   0.184   3.857   3.712  0.3701 -1.6826 -0.0369
 8136TIP3    H245824   0.133   3.791   3.838  0.1898 -1.4870 -0.0054
 8137TIP3   OH245825   6.657   2.988  16.990 -0.6734 -0.1465  0.0976
 8137TIP3    H145826   6.604   3.032  16.924  0.3257  0.2118 -0.4897
 8137TIP3    H245827   6.704   2.919  16.942 -0.1834 -0.0917  0.4856
 8138TIP3   OH245828   0.438   4.163   0.988  0.4756  0.2291 -0.5112
 8138TIP3    H145829   0.406   4.126   0.905  1.1387 -1.0020 -0.2380
 8138TIP3    H245830   0.533   4.170   0.976  0.3500  2.1643 -0.6541
 8139TIP3   OH245831   4.404   2.825   2.167 -0.1639  0.4879 -0.0980
 8139TIP3    H145832   4.399   2.825   2.071  0.9046 -2.0986 -0.2264
 8139TIP3    H245833   4.336   2.887   2.194 -0.3080  1.4887 -2.5177
 8140TIP3   OH245834   6.440   3.435  13.510  0.4514 -0.2616 -0.4927
 8140TIP3    H145835   6.370   3.455  13.573  1.9805  0.9788  0.8902
 8140TIP3    H245836   6.475   3.351  13.539 -0.6685 -1.0905 -1.4316
 8141TIP3   OH245837   3.392   3.414   2.631  0.0340  0.3825 -0.3258
 8141TIP3    H145838   3.330   3.378   2.567  0.5632  2.6146 -2.2309
 8141TIP3    H245839   3.361   3.503   2.648  0.8412  0.3924  1.3205
 8142TIP3   OH245840   5.165   6.649  10.607  0.5556  0.0967  0.6817
 8142TIP3    H145841   5.222   6.721  10.580 -1.5727  1.6509 -0.0099
 8142TIP3    H245842   5.120   6.623  10.526 -0.3600 -0.4322  1.3415
 8143TIP3   OH245843   4.125   4.830   0.797 -0.3935 -0.1291  0.2114
 8143TIP3    H145844   4.149   4.741   0.821  0.0275  0.1790  0.9462
 8143TIP3    H245845   4.082   4.821   0.712  0.1749 -0.9667  0.0030
 8144TIP3   OH245846   0.417   1.597  17.082  0.3865 -0.4042  0.6817
 8144TIP3    H145847   0.486   1.622  17.144 -0.1761  0.4824  0.9626
 8144TIP3    H245848   0.433   1.651  17.005  0.4502 -0.7433  0.4547
 8145TIP3   OH245849   4.763   1.192   0.906 -0.3462 -0.3308 -0.0325
 8145TIP3    H145850   4.694   1.241   0.951 -1.6415 -0.4076 -1.8335
 8145TIP3    H245851   4.720   1.110   0.881  0.2250 -0.1674 -1.6427
 8146TIP3   OH245852   0.196   6.248   1.205  0.4700  0.0658 -0.5902
 8146TIP3    H145853   0.124   6.272   1.147 -0.0498 -0.2058 -0.0653
 8146TIP3    H245854   0.166   6.169   1.250 -0.7399  2.2138  2.7504
 8147TIP3   OH245855   4.219   0.287  13.787  0.1366 -0.1092  0.5391
 8147TIP3    H145856   4.141   0.343  13.794 -0.6759 -1.1250 -0.0541
 8147TIP3    H245857   4.275   0.332  13.724  0.7884  1.4460  2.1231
 8148TIP3   OH245858   6.082   2.922  13.209 -0.3577 -0.0523  0.0235
 8148TIP3    H145859   6.147   2.869  13.163 -0.0456 -1.3193  1.8216
 8148TIP3    H245860   6.041   2.974  13.140 -0.1004 -2.0078 -1.7231
 8149TIP3   OH245861   6.784   0.989   1.336  0.0159  0.3594 -0.3841
 8149TIP3    H145862   6.778   0.927   1.264  1.2051  1.1471 -1.1823
 8149TIP3    H245863   6.735   1.066   1.307  0.9139  0.8743 -0.5896
 8150TIP3   OH245864   4.132   0.756   1.446  0.1915 -0.8050  0.4296
 8150TIP3    H145865   4.158   0.839   1.405  2.4605 -1.1201  1.0599
 8150TIP3    H245866   4.063   0.722   1.389  2.0794 -0.4780 -2.2767
 8151TIP3   OH245867   5.842   5.348  14.681  0.0358 -0.0513  0.1646
 8151TIP3    H145868   5.883   5.264  14.663 -0.6599 -0.0364 -1.7035
 8151TIP3    H245869   5.878   5.375  14.765  2.3923 -0.9104 -0.4904
 8152TIP3   OH245870   1.057   5.456   0.257 -0.1091  1.0497  1.0323
 8152TIP3    H145871   1.049   5.447   0.352 -2.2081  0.8085  0.8729
 8152TIP3    H245872   1.019   5.376   0.221  1.1549  0.8898 -0.0329
 8153TIP3   OH245873   6.479   3.819  13.396 -0.0703 -0.9974  0.1068
 8153TIP3    H145874   6.519   3.897  13.434 -1.5203  0.4242 -1.1149
 8153TIP3    H245875   6.491   3.829  13.302 -0.7286 -2.0002 -0.1029
 8154TIP3   OH245876   6.205   0.173  13.862 -0.3745 -0.4256 -0.0834
 8154TIP3    H145877   6.215   0.265  13.837 -0.6109 -0.4544 -0.2984
 8154TIP3    H245878   6.110   0.157  13.857 -0.4670 -0.3553  1.1331
 8155TIP3   OH245879   6.608   4.782  14.456 -0.0587 -0.4669  0.4538
 8155TIP3    H145880   6.549   4.838  14.506 -1.5018  0.5273 -2.1754
 8155TIP3    H245881   6.554   4.748  14.385  1.6964 -2.4202 -0.0440
 8156TIP3   OH245882   2.647   5.187   0.638  0.2971  0.2656 -0.0183
 8156TIP3    H145883   2.559   5.156   0.656  0.9125 -1.0792  0.8416
 8156TIP3    H245884   2.661   5.259   0.701 -0.2008  0.5320 -0.2110
 8157TIP3   OH245885   4.063   0.574  13.032 -0.0904  0.0040  0.1513
 8157TIP3    H145886   4.107   0.608  13.110 -0.4359  0.3114  0.2168
 8157TIP3    H245887   3.972   0.562  13.060 -0.0682 -0.5603 -0.0022
 8158TIP3   OH245888   3.862   4.923  14.275  0.4453 -0.3503 -0.4109
 8158TIP3    H145889   3.952   4.935  14.246  0.1755 -1.9668 -2.0967
 8158TIP3    H245890   3.863   4.840  14.323 -0.6463 -2.1851 -3.2849
 8159TIP3   OH245891   0.420   5.262  13.821 -0.6823 -0.2553 -0.2083
 8159TIP3    H145892   0.488   5.309  13.870 -2.0745  1.8240 -0.1285
 8159TIP3    H245893   0.442   5.277  13.729 -0.3349 -0.6517 -0.1883
 8160TIP3   OH245894   2.262   6.106   5.749  0.3635  0.4571 -0.5148
 8160TIP3    H145895   2.229   6.042   5.812  2.4231  0.7954  1.0217
 8160TIP3    H245896   2.242   6.191   5.789  1.4544  0.6821 -0.4344
 8161TIP3   OH245897   0.173   5.814   0.322 -0.0315  0.1711 -0.1757
 8161TIP3    H145898   0.222   5.833   0.401  1.6905 -2.8907 -0.3681
 8161TIP3    H245899   0.212   5.871   0.255  0.3994  0.7525  0.5533
 8162TIP3   OH245900   4.095   4.240  12.934  0.0437 -0.2738 -0.3170
 8162TIP3    H145901   4.149   4.199  13.002 -1.7281 -0.2171  1.1964
 8162TIP3    H245902   4.151   4.308  12.897  2.2366 -2.4265 -1.2880
 8163TIP3   OH245903   0.510   6.586   6.278  0.3346 -0.9109 -0.1215
 8163TIP3    H145904   0.585   6.584   6.219  1.5580 -2.3076  1.3828
 8163TIP3    H245905   0.449   6.647   6.238  3.2565  2.2623 -0.2000
 8164TIP3   OH245906   2.174   2.446   5.181  0.3442  1.3659  0.0455
 8164TIP3    H145907   2.201   2.488   5.263 -0.8384  1.3378  0.4703
 8164TIP3    H245908   2.253   2.404   5.148  0.4515 -0.2273  2.1584
 8165TIP3   OH245909   0.814   6.042   1.749  0.4863 -0.5915 -0.3374
 8165TIP3    H145910   0.723   6.073   1.750  0.6868  0.0158 -0.6982
 8165TIP3    H245911   0.855   6.086   1.824  1.1866  1.3356 -1.7744
 8166TIP3   OH245912   3.159   3.896  12.169  0.1427  0.0649  0.4214
 8166TIP3    H145913   3.162   3.940  12.084  0.0386  0.0315  0.4001
 8166TIP3    H245914   3.202   3.812  12.153  1.8038  0.7959  0.8458
 8167TIP3   OH245915   6.503   2.215   0.637 -0.2374  0.2439  0.2509
 8167TIP3    H145916   6.483   2.157   0.563  2.0604 -0.7186  0.3134
 8167TIP3    H245917   6.419   2.255   0.659 -1.0145  0.5600 -2.8535
 8168TIP3   OH245918   6.227   3.099   2.470  0.1696  0.8397  0.5143
 8168TIP3    H145919   6.288   3.029   2.446 -1.1654 -0.9898  2.1337
 8168TIP3    H245920   6.215   3.149   2.389  0.1427 -1.6202 -1.1022
 8169TIP3   OH245921   3.812   3.659   3.118 -0.2074 -0.1588 -0.0005
 8169TIP3    H145922   3.776   3.623   3.199 -0.1013 -1.2118 -0.4092
 8169TIP3    H245923   3.746   3.638   3.052 -0.1527  0.4226 -0.2407
 8170TIP3   OH245924   5.931   3.161  11.564 -0.6430  0.2038 -0.2610
 8170TIP3    H145925   5.955   3.194  11.478 -1.8957 -0.5777 -0.9461
 8170TIP3    H245926   5.974   3.220  11.626  2.8629 -0.9846 -1.3129
 8171TIP3   OH245927   1.058   1.458   2.992 -0.2446 -0.1169  0.1287
 8171TIP3    H145928   1.118   1.430   2.923  1.4074 -0.9953  1.8437
 8171TIP3    H245929   1.069   1.553   2.996 -0.8674  0.0473 -1.2018
 8172TIP3   OH245930   0.335   3.010   3.772 -0.0615  0.6932 -0.0987
 8172TIP3    H145931   0.364   2.929   3.814 -0.6541  0.0540 -0.8969
 8172TIP3    H245932   0.306   3.066   3.844 -1.2532 -0.4662  0.3605
 8173TIP3   OH245933   2.222   4.757   2.609 -0.1133  0.6353 -0.0733
 8173TIP3    H145934   2.147   4.737   2.553 -0.5762  1.0981  0.3718
 8173TIP3    H245935   2.259   4.671   2.631 -1.0313  0.3485  0.3958
 8174TIP3   OH245936   4.217   1.414  14.786  0.9798  0.1784  0.0042
 8174TIP3    H145937   4.154   1.378  14.724  0.7916  0.0740  0.2560
 8174TIP3    H245938   4.240   1.500  14.749  0.6189  0.2574 -0.0381
 8175TIP3   OH245939   6.621   4.343  15.215  0.2274  0.3034  0.4566
 8175TIP3    H145940   6.691   4.348  15.280  0.4380  1.7019  0.1508
 8175TIP3    H245941   6.541   4.358  15.265  0.5808  4.7428  0.0894
 8176TIP3   OH245942   2.745   1.213  14.410 -0.7485  0.1888  0.3677
 8176TIP3    H145943   2.755   1.168  14.326 -1.9182 -0.7549  0.7028
 8176TIP3    H245944   2.726   1.143  14.472  1.3953  0.7061  1.7120
 8177TIP3   OH245945   6.565   5.739   4.012  0.3747  0.1902 -0.0039
 8177TIP3    H145946   6.476   5.714   3.985  0.0002  1.2447  0.2117
 8177TIP3    H245947   6.559   5.833   4.028  2.0715  0.7222 -2.1160
 8178TIP3   OH245948   4.220   0.555   1.089 -0.0102  0.3231 -0.2938
 8178TIP3    H145949   4.151   0.492   1.068  1.0985 -1.7096  1.8073
 8178TIP3    H245950   4.178   0.617   1.150 -0.0880 -0.7276  0.7456
 8179TIP3   OH245951   4.437   4.080  13.791 -0.0727 -0.0865 -0.0321
 8179TIP3    H145952   4.499   4.085  13.864  0.2521  1.6850 -0.3885
 8179TIP3    H245953   4.485   4.117  13.717 -0.6986 -1.0534 -0.9480
 8180TIP3   OH245954   5.046   2.678  16.285  0.7145  0.4616  0.3179
 8180TIP3    H145955   5.038   2.661  16.378 -0.1074  0.3462  0.2298
 8180TIP3    H245956   5.087   2.600  16.249 -2.4643 -1.2248  0.0090
 8181TIP3   OH245957   5.233   4.497  14.199  0.1345  0.2347 -0.0334
 8181TIP3    H145958   5.327   4.506  14.179  0.5020 -0.9855  1.0041
 8181TIP3    H245959   5.216   4.565  14.264  0.6875 -0.4925  0.9052
 8182TIP3   OH245960   2.342   4.533   0.533 -0.1178 -0.4678  0.0324
 8182TIP3    H145961   2.286   4.611   0.531 -0.4321 -0.7040 -0.4639
 8182TIP3    H245962   2.291   4.466   0.489 -0.7383 -1.5488  2.2331
 8183TIP3   OH245963   2.093   5.722  10.710  0.1808  0.8178 -0.5823
 8183TIP3    H145964   2.046   5.782  10.767  0.8049  0.5460  0.2440
 8183TIP3    H245965   2.180   5.715  10.749 -0.0212 -0.9851 -0.3681
 8184TIP3   OH245966   1.567   0.729   1.984 -0.2633 -0.0804 -0.1213
 8184TIP3    H145967   1.476   0.757   1.968 -0.6729 -0.8637  0.7237
 8184TIP3    H245968   1.614   0.811   2.003 -0.8105  0.3200 -0.4478
 8185TIP3   OH245969   3.720   6.685  16.335  0.2601  0.3510 -0.1070
 8185TIP3    H145970   3.721   6.659  16.427 -1.0630  0.3425 -0.0741
 8185TIP3    H245971   3.805   6.655  16.301 -0.5397 -2.7655  0.2967
 8186TIP3   OH245972   2.888   5.531  11.811  0.3475 -0.1634  0.3573
 8186TIP3    H145973   2.891   5.616  11.768 -0.0860  0.4160  1.4279
 8186TIP3    H245974   2.811   5.489  11.775  1.6087 -0.9398 -1.6184
 8187TIP3   OH245975   3.041   4.843   1.134  0.2620  0.3069  0.3817
 8187TIP3    H145976   3.061   4.926   1.090  2.4087 -0.6056 -0.4806
 8187TIP3    H245977   2.983   4.798   1.072  0.7389  0.3339 -0.0945
 8188TIP3   OH245978   1.580   1.873   5.800  0.5233  0.5231  0.1107
 8188TIP3    H145979   1.627   1.947   5.763  0.7380 -0.4534 -1.7281
 8188TIP3    H245980   1.519   1.846   5.730  3.0356 -3.3036 -0.9384
 8189TIP3   OH245981   6.086   0.805   3.184 -0.1016  0.3057 -0.1395
 8189TIP3    H145982   6.136   0.767   3.112 -1.3320  0.4322 -1.0962
 8189TIP3    H245983   6.136   0.882   3.210  2.2057 -1.6098  1.5509
 8190TIP3   OH245984   1.949   1.570   2.656  0.1438  0.6440 -0.9584
 8190TIP3    H145985   1.889   1.568   2.580 -0.4720 -0.7817 -0.4746
 8190TIP3    H245986   1.924   1.649   2.704 -1.5185  0.0018 -0.6828
 8191TIP3   OH245987   0.855   4.813   2.438  0.0150  0.3140  0.1410
 8191TIP3    H145988   0.904   4.774   2.366 -0.6493  0.8416 -0.6188
 8191TIP3    H245989   0.775   4.762   2.443 -0.0819  0.4794  0.2913
 8192TIP3   OH245990   0.904   5.352  11.045  0.3572 -0.2811  0.5510
 8192TIP3    H145991   0.835   5.355  11.111 -1.1976 -0.2593 -0.9996
 8192TIP3    H245992   0.930   5.261  11.041 -0.3650 -0.4912  0.4186
 8193TIP3   OH245993   2.892   4.010  16.938  0.1016 -0.5327  0.1700
 8193TIP3    H145994   2.982   3.980  16.920 -0.2297 -1.9949  0.8101
 8193TIP3    H245995   2.900   4.104  16.948  1.4840 -0.5691 -0.3126
 8194TIP3   OH245996   6.609   6.688   5.607 -0.0134 -0.1328 -0.3887
 8194TIP3    H145997   6.672   6.731   5.549 -0.8806  1.3015 -0.3393
 8194TIP3    H245998   6.553   6.760   5.637 -0.0112 -0.9475  1.6879
 8195TIP3   OH245999   3.078   3.547  14.356  0.0811  0.5983 -0.2105
 8195TIP3    H146000   3.152   3.600  14.327 -1.0580  1.3175 -1.9601
 8195TIP3    H246001   3.009   3.610  14.377 -0.3892 -0.0939  0.3909
 8196TIP3   OH246002   0.836   1.423  14.974 -0.1432  0.2513 -0.5999
 8196TIP3    H146003   0.776   1.426  14.900 -0.6126  1.1514 -0.1953
 8196TIP3    H246004   0.805   1.350  15.028 -0.1998  0.0139 -0.9544
 8197TIP3   OH246005   6.231   5.924   2.440 -0.8375  0.2907 -0.2843
 8197TIP3    H146006   6.247   5.845   2.389 -2.2444  1.0766 -2.0773
 8197TIP3    H246007   6.242   5.996   2.377  0.5399  1.5622  1.3167
 8198TIP3   OH246008   3.685   0.586   3.037 -0.0686  0.1318 -0.5936
 8198TIP3    H146009   3.620   0.653   3.061  0.3999  0.1744  0.6346
 8198TIP3    H246010   3.649   0.504   3.071 -0.3445 -0.1422 -1.5425
 8199TIP3   OH246011   2.842   1.689  11.735 -0.2098 -0.3132 -0.1938
 8199TIP3    H146012   2.897   1.640  11.796  0.4104 -0.0594 -0.5358
 8199TIP3    H246013   2.794   1.622  11.686  0.9582 -0.6174 -0.9684
 8200TIP3   OH246014   3.653   5.093   5.393 -0.2218 -0.0543  0.1887
 8200TIP3    H146015   3.703   5.109   5.474 -1.1335  2.2400  0.3861
 8200TIP3    H246016   3.700   5.141   5.326 -0.6574 -0.1537 -0.1943
 8201TIP3   OH246017   2.385   0.926   3.412  0.1017  0.4052 -0.3581
 8201TIP3    H146018   2.319   0.856   3.404  0.7509 -0.4313  1.2064
 8201TIP3    H246019   2.366   0.985   3.339 -1.8805 -0.2283 -0.4080
 8202TIP3   OH246020   6.195   5.760   0.717 -0.1517  0.0487  0.2141
 8202TIP3    H146021   6.255   5.693   0.686 -0.1190  0.0005  0.3781
 8202TIP3    H246022   6.142   5.783   0.640 -0.4443 -0.4669  0.2528
 8203TIP3   OH246023   0.374   4.911   5.237  0.4381  0.2614 -0.5164
 8203TIP3    H146024   0.460   4.870   5.223  0.4150 -0.3669  1.0164
 8203TIP3    H246025   0.386   4.967   5.314 -1.1745 -2.0498  1.5807
 8204TIP3   OH246026   1.370   1.109  13.748 -0.3225 -0.5260 -0.2830
 8204TIP3    H146027   1.411   1.150  13.824 -2.7432  0.0406  0.8428
 8204TIP3    H246028   1.277   1.105  13.771 -0.8881 -2.0159 -2.4940
 8205TIP3   OH246029   4.890   3.402  11.322  0.2364 -0.5239  0.1662
 8205TIP3    H146030   4.933   3.417  11.406  0.3122 -0.0787  0.0477
 8205TIP3    H246031   4.798   3.423  11.338  0.3686  0.2229 -0.0385
 8206TIP3   OH246032   0.901   3.087  16.833  0.3246  0.3783 -0.0486
 8206TIP3    H146033   0.871   3.141  16.760 -0.0083 -0.0378 -0.2163
 8206TIP3    H246034   0.867   3.131  16.911 -0.9971 -0.2564 -0.2480
 8207TIP3   OH246035   3.756   2.028   4.139 -0.0473  0.1669 -0.5618
 8207TIP3    H146036   3.735   2.076   4.219  0.4735 -0.7302  0.1201
 8207TIP3    H246037   3.672   1.992   4.110 -0.0591 -0.4329  0.1965
 8208TIP3   OH246038   0.508   6.343   5.823 -0.2186  0.1099 -0.2848
 8208TIP3    H146039   0.533   6.409   5.887 -2.8935  0.7865  0.1957
 8208TIP3    H246040   0.577   6.345   5.757  0.8834  1.7840  0.8658
 8209TIP3   OH246041   6.679   0.091  12.092  0.1928  0.2540 -0.4830
 8209TIP3    H146042   6.613   0.136  12.144  0.5645 -0.6670  0.8164
 8209TIP3    H246043   6.713   0.158  12.033 -0.7334  1.1313 -0.0436
 8210TIP3   OH246044   2.648   3.749   5.090 -0.6485  0.0634  0.7340
 8210TIP3    H146045   2.691   3.674   5.131 -1.4893  0.4439  2.3515
 8210TIP3    H246046   2.629   3.719   5.001 -0.2645 -1.3591  1.1005
 8211TIP3   OH246047   2.150   2.956   3.821 -0.1982 -0.1321 -0.4174
 8211TIP3    H146048   2.135   2.900   3.746 -1.1024  0.8069 -0.9702
 8211TIP3    H246049   2.103   3.037   3.800  2.3384  1.4581 -0.3674
 8212TIP3   OH246050   6.195   3.343  14.868 -0.1376  0.2155  0.1052
 8212TIP3    H146051   6.113   3.313  14.828 -0.2911  0.2751  0.3789
 8212TIP3    H246052   6.186   3.322  14.961  0.4060 -0.3289  0.0392
 8213TIP3   OH246053   1.516   2.937   4.141 -0.4215 -0.0543  0.3368
 8213TIP3    H146054   1.541   2.986   4.219 -0.1709 -0.6274  0.6257
 8213TIP3    H246055   1.464   2.864   4.175 -0.8806  0.0680 -0.0949
 8214TIP3   OH246056   5.060   1.906  14.696  0.3794  0.3855 -0.0428
 8214TIP3    H146057   5.139   1.882  14.745 -0.0201 -0.2487  0.3171
 8214TIP3    H246058   4.997   1.933  14.763 -0.4784 -1.3697 -0.0765
 8215TIP3   OH246059   3.946   2.730   3.157 -0.7647 -0.4687  0.2193
 8215TIP3    H146060   4.016   2.693   3.103 -1.2084 -0.1233 -0.6161
 8215TIP3    H246061   3.988   2.750   3.240 -0.8213 -4.2626  1.3329
 8216TIP3   OH246062   0.157   2.552   4.843 -0.2406 -0.3839 -0.1847
 8216TIP3    H146063   0.245   2.525   4.867  0.3941  0.3661 -1.5170
 8216TIP3    H246064   0.102   2.477   4.863  1.1456 -1.9611 -1.8893
 8217TIP3   OH246065   6.742   6.642   1.735 -0.1952 -0.1996 -0.2169
 8217TIP3    H146066   6.836   6.627   1.721  0.5109  2.1013  1.4182
 8217TIP3    H246067   6.699   6.596   1.663  2.0498 -2.7677 -0.0722
 8218TIP3   OH246068   0.104   6.597  15.886 -0.1221 -0.5618  0.1068
 8218TIP3    H146069   0.074   6.661  15.822  2.6579  1.3093  0.5017
 8218TIP3    H246070   0.172   6.548  15.842  1.2843  0.2251  1.3218
 8219TIP3   OH246071   4.452   0.208   2.193  0.0769 -0.2258 -0.2834
 8219TIP3    H146072   4.416   0.123   2.167  0.1936 -0.1456 -0.7256
 8219TIP3    H246073   4.476   0.249   2.110 -1.1719  0.7686 -0.1875
 8220TIP3   OH246074   6.148   1.199  13.720 -0.1872  0.0202 -0.0267
 8220TIP3    H146075   6.128   1.271  13.779  1.2154  0.2987  0.1372
 8220TIP3    H246076   6.079   1.203  13.653 -0.8467  0.7083  0.6763
 8221TIP3   OH246077   5.114   2.823  14.548 -0.7017 -0.0310 -0.0982
 8221TIP3    H146078   5.098   2.865  14.632 -0.7331  0.7037 -0.4711
 8221TIP3    H246079   5.148   2.736  14.571 -0.6712  0.1801  0.6704
 8222TIP3   OH246080   4.781   0.268  16.147  0.7412  0.5692 -0.3825
 8222TIP3    H146081   4.722   0.339  16.172  2.9140  2.4496 -0.1931
 8222TIP3    H246082   4.815   0.234  16.230  0.3619 -0.1108 -0.5002
 8223TIP3   OH246083   1.037   5.614  11.528  0.5637 -0.5737 -0.2547
 8223TIP3    H146084   1.085   5.570  11.598 -1.1250 -1.5060  0.3865
 8223TIP3    H246085   1.083   5.696  11.514  1.9554 -1.1498  0.7323
 8224TIP3   OH246086   0.398   3.699  14.496  0.0232 -0.5663 -0.0430
 8224TIP3    H146087   0.322   3.663  14.450  0.4812  1.2109 -2.3559
 8224TIP3    H246088   0.470   3.642  14.469  0.0097 -0.4675 -0.2986
 8225TIP3   OH246089   2.469   2.732  11.855  0.0571  0.0900 -0.6443
 8225TIP3    H146090   2.484   2.757  11.946 -0.6947  1.1881 -0.7966
 8225TIP3    H246091   2.495   2.809  11.805  2.3926 -1.1865 -1.5618
 8226TIP3   OH246092   6.765   4.152   0.824  0.1325  0.0749 -0.2720
 8226TIP3    H146093   6.717   4.069   0.824 -2.2699  1.3290 -1.9887
 8226TIP3    H246094   6.757   4.184   0.914 -2.8157  0.4000 -0.5203
 8227TIP3   OH246095   4.304   2.804  17.058 -0.0581 -1.0169  0.1539
 8227TIP3    H146096   4.239   2.734  17.050 -1.6764  0.4106  0.2548
 8227TIP3    H246097   4.252   2.884  17.063  1.7413  0.2137 -0.0535
 8228TIP3   OH246098   5.820   5.680   2.057  0.1318  0.3290  0.0154
 8228TIP3    H146099   5.840   5.588   2.041 -0.3044  0.3410 -0.6574
 8228TIP3    H246100   5.849   5.725   1.977  0.2473  0.7626  0.2979
 8229TIP3   OH246101   4.545   2.216  15.399 -0.6609 -0.5492  0.0845
 8229TIP3    H146102   4.457   2.224  15.437 -0.8847 -1.5416 -0.1811
 8229TIP3    H246103   4.560   2.121  15.394 -0.8159 -0.5297 -2.6381
 8230TIP3   OH246104   5.118   4.902  12.070  0.4038 -0.7519 -0.3181
 8230TIP3    H146105   5.098   4.850  12.148 -0.3330 -0.3920 -0.2552
 8230TIP3    H246106   5.085   4.990  12.090  1.2047 -0.3679 -0.6084
 8231TIP3   OH246107   0.717   4.876  16.546 -0.0680  0.1360 -0.1591
 8231TIP3    H146108   0.643   4.833  16.588 -2.1875  2.3918 -1.3208
 8231TIP3    H246109   0.718   4.840  16.457 -1.4703  1.8459 -0.9419
 8232TIP3   OH246110   0.368   1.722   4.998  0.1903 -0.1556 -0.0749
 8232TIP3    H146111   0.395   1.767   5.078 -2.7309  1.3403  0.2104
 8232TIP3    H246112   0.450   1.689   4.960  1.8555  0.5304  2.6247
 8233TIP3   OH246113   3.501   6.743  11.535  0.2523 -0.5256  0.2278
 8233TIP3    H146114   3.450   6.663  11.522  2.9710 -2.4019  0.2410
 8233TIP3    H246115   3.515   6.777  11.447 -0.8170 -0.0961  0.2116
 8234TIP3   OH246116   3.277   4.238  13.598 -0.5994 -0.2059  0.1846
 8234TIP3    H146117   3.255   4.220  13.689 -2.6891 -1.7742 -0.5462
 8234TIP3    H246118   3.356   4.187  13.581 -0.0539  0.2987  1.1620
 8235TIP3   OH246119   2.286   3.966  11.939  0.0424 -0.6210  0.3938
 8235TIP3    H146120   2.344   3.944  12.012 -1.5627 -3.5184  0.9425
 8235TIP3    H246121   2.341   3.956  11.862  1.0554 -0.2180  1.0375
 8236TIP3   OH246122   0.471   1.180  12.060  0.1736 -0.0012 -0.0483
 8236TIP3    H146123   0.447   1.272  12.071 -0.1966 -0.1618  0.5675
 8236TIP3    H246124   0.542   1.166  12.123  2.6569  0.7120 -2.4911
 8237TIP3   OH246125   6.506   0.638   5.381  0.9425 -0.2917 -0.5974
 8237TIP3    H146126   6.505   0.731   5.357 -0.3884 -0.2280 -0.3742
 8237TIP3    H246127   6.420   0.623   5.420  0.2369 -2.1448 -2.6490
 8238TIP3   OH246128   0.896   5.337  16.754  0.4257  0.1129 -0.4001
 8238TIP3    H146129   0.988   5.314  16.768  0.2187 -0.8909 -0.6004
 8238TIP3    H246130   0.899   5.415  16.700  1.2057 -1.6901 -3.1904
 8239TIP3   OH246131   5.029   2.431  12.156  0.2047 -0.5552 -0.0531
 8239TIP3    H146132   5.005   2.458  12.068  1.4563 -0.6063 -0.4260
 8239TIP3    H246133   5.081   2.352  12.144  2.3205  0.6485  0.5064
 8240TIP3   OH246134   0.049   4.242  12.468 -0.0865 -0.1416 -0.2541
 8240TIP3    H146135   0.010   4.282  12.546 -1.1459  0.6239 -1.1372
 8240TIP3    H246136   0.008   4.156  12.463  1.5905 -1.0749  1.1997
 8241TIP3   OH246137   4.333   0.151  13.016  0.1886 -0.2401  0.0275
 8241TIP3    H146138   4.404   0.205  13.050  0.3644 -0.2702 -0.2896
 8241TIP3    H246139   4.254   0.190  13.053  0.2442  0.7343 -0.8326
 8242TIP3   OH246140   5.867   3.567   0.506  0.1086  0.3837  0.1183
 8242TIP3    H146141   5.785   3.535   0.468 -0.6094  0.8475  1.2365
 8242TIP3    H246142   5.892   3.499   0.569 -0.4913  1.1558  1.2241
 8243TIP3   OH246143   3.903   5.342  10.164 -0.4006 -0.2828  0.3333
 8243TIP3    H146144   3.977   5.327  10.223  0.1899 -0.9335 -0.5444
 8243TIP3    H246145   3.917   5.431  10.131  0.8870 -0.9544 -1.0249
 8244TIP3   OH246146   2.807   2.655   1.942  0.2760 -0.1699 -0.1961
 8244TIP3    H146147   2.778   2.625   2.028 -2.2973  0.4036 -0.7811
 8244TIP3    H246148   2.816   2.575   1.890 -1.1888 -0.3373 -0.2242
 8245TIP3   OH246149   2.408   1.164  16.489  0.6542  0.5067 -0.3983
 8245TIP3    H146150   2.472   1.229  16.519  1.0841 -0.1353  0.0855
 8245TIP3    H246151   2.461   1.090  16.458  0.1623  0.2846 -0.7259
 8246TIP3   OH246152   4.080   0.203  14.977  0.0672 -0.1437 -0.0135
 8246TIP3    H146153   4.103   0.211  14.885  0.7711 -1.3074  0.0448
 8246TIP3    H246154   4.139   0.263  15.022  2.9963 -2.8603  0.1064
 8247TIP3   OH246155   5.834   0.145   3.332  0.2600  0.9553  0.2966
 8247TIP3    H146156   5.763   0.209   3.342 -1.1927 -0.7339  1.2297
 8247TIP3    H246157   5.824   0.113   3.242  0.1532  1.0582  0.2710
 8248TIP3   OH246158   3.607   1.326   1.535  0.3140 -0.8108 -0.0576
 8248TIP3    H146159   3.528   1.281   1.506  1.2560 -1.1680 -2.3085
 8248TIP3    H246160   3.636   1.375   1.458  0.6950  1.7127  1.5838
 8249TIP3   OH246161   5.894   5.249  15.183 -0.2220  0.4693  0.5703
 8249TIP3    H146162   5.909   5.343  15.172 -1.1054  0.5058 -0.5799
 8249TIP3    H246163   5.827   5.244  15.251  0.5507  0.6121  1.3520
 8250TIP3   OH246164   1.067   4.716  15.239  0.4424 -0.1809 -0.6758
 8250TIP3    H146165   1.121   4.750  15.310 -2.0867  2.6743  0.1190
 8250TIP3    H246166   1.121   4.726  15.161  1.1629  2.4617  0.0636
 8251TIP3   OH246167   2.687   3.589   0.400 -0.3443  0.1463 -0.4458
 8251TIP3    H146168   2.706   3.669   0.450  0.0482  0.5826 -1.2527
 8251TIP3    H246169   2.768   3.538   0.404 -0.7312 -0.4141  0.4141
 8252TIP3   OH246170   5.578   6.197  16.607 -0.3024 -0.2004 -0.6624
 8252TIP3    H146171   5.600   6.288  16.588 -0.6361 -0.3923 -2.0455
 8252TIP3    H246172   5.495   6.183  16.563 -1.3325 -0.5893  1.3090
 8253TIP3   OH246173   4.215   0.603   4.578  0.6755 -0.5487 -0.2937
 8253TIP3    H146174   4.228   0.681   4.525  0.4358 -0.4965 -0.2741
 8253TIP3    H246175   4.295   0.551   4.565  0.1154 -1.1134 -1.6733
 8254TIP3   OH246176   3.200   4.830  11.987  0.1311  0.5566  0.2273
 8254TIP3    H146177   3.201   4.786  12.073  0.5231  1.5243  0.7303
 8254TIP3    H246178   3.166   4.763  11.927  1.0947 -0.5853  0.8941
 8255TIP3   OH246179   1.204   3.916   3.233  0.0907 -0.1290 -0.2565
 8255TIP3    H146180   1.157   3.998   3.242  1.7803  0.8938 -0.2395
 8255TIP3    H246181   1.249   3.905   3.317  0.3583 -0.7546 -0.4777
 8256TIP3   OH246182   5.321   4.659  15.643  0.4376 -0.0622 -0.4309
 8256TIP3    H146183   5.319   4.609  15.561  1.8994  0.9824 -1.1475
 8256TIP3    H246184   5.310   4.594  15.712 -1.3761 -0.9063 -1.4406
 8257TIP3   OH246185   2.436   0.905  12.451 -0.3907  0.0207 -0.0213
 8257TIP3    H146186   2.461   0.909  12.543 -1.3349  0.3584  0.2290
 8257TIP3    H246187   2.488   0.973  12.408 -1.4146  1.2387  0.6214
 8258TIP3   OH246188   1.395   6.404  13.412 -0.0325  0.2880 -0.0588
 8258TIP3    H146189   1.396   6.409  13.317  0.7676 -0.2486 -0.0894
 8258TIP3    H246190   1.340   6.328  13.432  2.4078 -1.6538 -0.2423
 8259TIP3   OH246191   4.157   6.142   1.652  0.6927  0.5626  0.7676
 8259TIP3    H146192   4.215   6.210   1.618  0.5422  1.5608  2.3935
 8259TIP3    H246193   4.094   6.189   1.706 -1.5212 -0.5166 -0.7188
 8260TIP3   OH246194   0.693   2.262   1.688 -0.4898 -0.3350 -0.3475
 8260TIP3    H146195   0.718   2.177   1.723 -1.4324 -0.1049  0.9929
 8260TIP3    H246196   0.761   2.284   1.625  1.6981 -0.5087  1.7944
 8261TIP3   OH246197   6.492   1.602   1.615  0.5646 -0.3304  0.0420
 8261TIP3    H146198   6.507   1.508   1.624  0.6119 -0.2112  1.5300
 8261TIP3    H246199   6.519   1.622   1.526  0.0633 -1.8151 -0.4876
 8262TIP3   OH246200   2.389   4.560  16.589  0.2192  0.1223 -0.0862
 8262TIP3    H146201   2.394   4.530  16.499  1.8659  0.4759 -0.1257
 8262TIP3    H246202   2.416   4.484  16.641  1.3195  0.5431 -0.0197
 8263TIP3   OH246203   5.783   6.247   2.152 -0.8772  0.0272 -0.3124
 8263TIP3    H146204   5.693   6.239   2.121 -0.5205  0.1068 -1.3904
 8263TIP3    H246205   5.817   6.324   2.108  0.3157 -1.1065 -1.4404
 8264TIP3   OH246206   1.491   2.080  16.207 -0.1396 -0.4212  0.6178
 8264TIP3    H146207   1.585   2.099  16.205  0.1230 -0.8354  3.7827
 8264TIP3    H246208   1.462   2.091  16.116  3.0563 -0.9190 -0.5776
 8265TIP3   OH246209   6.303   5.635   2.465  0.9930  0.3752 -0.2449
 8265TIP3    H146210   6.310   5.546   2.498 -1.2907 -0.0935 -0.8589
 8265TIP3    H246211   6.259   5.684   2.535  1.6475  0.8773 -0.1711
 8266TIP3   OH246212   4.170   6.686   0.449 -0.8093 -0.2421 -0.2876
 8266TIP3    H146213   4.223   6.728   0.381 -1.4407 -0.2765 -0.8227
 8266TIP3    H246214   4.185   6.738   0.527 -0.7743  0.3607 -0.6870
 8267TIP3   OH246215   1.039   1.566   0.207 -0.4621  0.3965 -0.8471
 8267TIP3    H146216   1.093   1.494   0.176 -0.5745  0.2397 -0.6768
 8267TIP3    H246217   0.951   1.529   0.216 -0.8150  0.9099 -2.0884
 8268TIP3   OH246218   0.064   6.339   0.050  0.1765  0.1014  0.0235
 8268TIP3    H146219   0.021   6.254   0.040 -0.5050  0.1552  1.9754
 8268TIP3    H246220   0.035   6.391  -0.025 -0.1465 -1.0822 -0.6910
 8269TIP3   OH246221   4.919   1.524   0.526 -0.3004 -0.2656  0.3877
 8269TIP3    H146222   4.978   1.461   0.483  0.5821  0.4856  0.4569
 8269TIP3    H246223   4.978   1.581   0.576 -1.1323  0.2655  0.7788
 8270TIP3   OH246224   4.132   0.297  13.116  0.0711  0.1702 -0.4617
 8270TIP3    H146225   4.158   0.283  13.207 -1.7089 -1.2932 -0.1126
 8270TIP3    H246226   4.075   0.374  13.118 -1.5704 -0.9948  0.0603
 8271TIP3   OH246227   6.087   1.496  11.867  0.1726 -0.7964  0.2731
 8271TIP3    H146228   6.159   1.435  11.883 -0.0241 -0.4999  2.6173
 8271TIP3    H246229   6.014   1.441  11.839  1.0972 -1.1506 -1.6046
 8272TIP3   OH246230   5.518   6.355   5.622  0.1788 -0.4536  0.5840
 8272TIP3    H146231   5.567   6.275   5.604  0.2838 -0.3141  0.2460
 8272TIP3    H246232   5.426   6.328   5.616  0.1841 -0.2260 -1.1051
 8273TIP3   OH246233   2.829   0.565  17.073  0.3913  0.4645  0.0263
 8273TIP3    H146234   2.845   0.545  16.981 -2.3931  1.2188 -0.7170
 8273TIP3    H246235   2.808   0.481  17.113  0.6186  0.2717 -0.2589
 8274TIP3   OH246236   1.372   3.406  15.930  0.2474 -0.4798  0.2970
 8274TIP3    H146237   1.344   3.430  16.019  1.9571  3.3792  0.0146
 8274TIP3    H246238   1.416   3.322  15.940  1.1278  0.2202  3.3235
 8275TIP3   OH246239   1.721   1.053   3.007 -0.7477  0.3189 -0.4451
 8275TIP3    H146240   1.636   1.095   2.991 -0.4898  0.6433 -0.9842
 8275TIP3    H246241   1.751   1.026   2.920 -0.0630  0.6663 -0.3204
 8276TIP3   OH246242   0.038   2.750   5.054  0.2779 -0.9651  0.0632
 8276TIP3    H146243   0.116   2.774   5.003  0.1526 -1.1383 -0.2089
 8276TIP3    H246244  -0.007   2.685   5.000  0.1139 -1.1060  0.3689
 8277TIP3   OH246245   3.005   6.724  14.214  0.4576 -0.0557  0.2695
 8277TIP3    H146246   2.958   6.682  14.142  0.1227  0.3233  0.2651
 8277TIP3    H246247   3.083   6.671  14.226 -1.0466 -2.1018  1.8008
 8278TIP3   OH246248   5.319   6.781  14.639 -0.1859  0.4677 -0.1929
 8278TIP3    H146249   5.402   6.828  14.633 -1.0862  2.0992 -0.4636
 8278TIP3    H246250   5.308   6.764  14.733  0.9352 -0.7174 -0.2527
 8279TIP3   OH246251   3.173   1.347   2.556  0.0914 -0.0581  0.1992
 8279TIP3    H146252   3.183   1.291   2.633  0.8575  1.0745  0.9487
 8279TIP3    H246253   3.223   1.303   2.487  0.3516 -0.4961  0.6651
 8280TIP3   OH246254   2.039   5.936   0.861  0.0364  0.1995 -0.3973
 8280TIP3    H146255   2.001   5.972   0.940  1.3692  1.3925 -0.2444
 8280TIP3    H246256   2.052   6.012   0.804  2.2296 -0.0887 -0.3791
 8281TIP3   OH246257   5.919   0.878   6.426  0.5293 -0.5193  0.2521
 8281TIP3    H146258   5.938   0.791   6.390  1.2732 -1.0362  1.7961
 8281TIP3    H246259   5.960   0.939   6.365  4.2277 -1.4506  1.5119
 8282TIP3   OH246260   6.574   1.051  12.421  0.0049  0.0684  0.1153
 8282TIP3    H146261   6.480   1.037  12.425  0.1059 -1.1159 -0.8771
 8282TIP3    H246262   6.604   1.045  12.512 -0.8952  0.7491  0.4693
 8283TIP3   OH246263   1.321   1.450   0.684  0.1892  0.6069 -0.3167
 8283TIP3    H146264   1.355   1.431   0.772 -0.9014  0.1455  0.0170
 8283TIP3    H246265   1.371   1.528   0.656  1.0322  0.3516  0.4169
 8284TIP3   OH246266   3.243   0.899  11.294  0.2977 -0.6688 -0.6305
 8284TIP3    H146267   3.169   0.840  11.309 -1.6898  1.8018  0.0073
 8284TIP3    H246268   3.240   0.917  11.200  2.0332 -2.8120 -1.1926
 8285TIP3   OH246269   0.341   3.826  14.023  0.3019  0.0934 -1.0101
 8285TIP3    H146270   0.340   3.879  14.103  0.2324 -2.4227  0.7808
 8285TIP3    H246271   0.250   3.802  14.008  0.1726  1.3464 -2.4921
 8286TIP3   OH246272   6.496   3.508   4.575 -0.0630 -0.0587  0.1317
 8286TIP3    H146273   6.523   3.568   4.505  0.6161 -0.3110  0.1766
 8286TIP3    H246274   6.548   3.430   4.561 -0.9488 -0.6563  0.0691
 8287TIP3   OH246275   4.700   1.960   4.557  0.2080  1.0661  0.0285
 8287TIP3    H146276   4.704   1.955   4.462 -0.1695  0.9268  0.0211
 8287TIP3    H246277   4.758   2.033   4.579  4.4478 -1.9381  0.0511
 8288TIP3   OH246278   0.772   4.803   6.130  0.0243  0.0389  0.6040
 8288TIP3    H146279   0.771   4.761   6.044 -0.9942 -0.1775  0.7039
 8288TIP3    H246280   0.680   4.825   6.147  0.2949  0.6253  1.3738
 8289TIP3   OH246281   2.873   5.930  11.030 -0.7557  0.4612 -0.6673
 8289TIP3    H146282   2.856   5.935  10.936  0.7596  0.5325 -0.9574
 8289TIP3    H246283   2.957   5.885  11.036 -0.5123  1.0627  0.6288
 8290TIP3   OH246284   4.825   2.163   1.951  0.0779  0.2436 -0.0905
 8290TIP3    H146285   4.738   2.200   1.965  0.1349  1.1674 -1.8577
 8290TIP3    H246286   4.826   2.140   1.858  1.4737 -0.4260  0.0727
 8291TIP3   OH246287   1.268   4.926   1.302 -0.1514  0.7971  0.4501
 8291TIP3    H146288   1.254   4.995   1.238 -1.5377  2.5372  2.4628
 8291TIP3    H246289   1.289   4.848   1.251 -2.4085  1.7659 -2.1462
 8292TIP3   OH246290   6.151   5.570  10.436  0.0459 -0.2138  0.1340
 8292TIP3    H146291   6.108   5.581  10.351 -1.9875 -0.5842  1.0591
 8292TIP3    H246292   6.142   5.477  10.455 -0.4805  0.0472  1.2255
 8293TIP3   OH246293   0.577   4.133  12.030  0.0522 -0.0568 -0.3091
 8293TIP3    H146294   0.577   4.041  12.001  0.5158 -0.1311 -0.0859
 8293TIP3    H246295   0.511   4.136  12.099  1.5671 -0.7502  1.2545
 8294TIP3   OH246296   5.451   2.493   2.793 -0.1881  0.3620 -0.2911
 8294TIP3    H146297   5.405   2.445   2.862  1.8099 -0.8336  0.3135
 8294TIP3    H246298   5.381   2.531   2.740 -1.8508 -1.0304  0.7596
 8295TIP3   OH246299   2.664   3.307  14.285 -0.1875 -0.1074  0.2646
 8295TIP3    H146300   2.583   3.280  14.240 -1.3247  1.4197  1.2859
 8295TIP3    H246301   2.701   3.225  14.317 -1.1034 -0.8881 -0.5848
 8296TIP3   OH246302   1.320   3.766  13.896 -0.1672  0.4679  0.9078
 8296TIP3    H146303   1.255   3.696  13.887 -0.3216  0.8930 -2.2088
 8296TIP3    H246304   1.284   3.823  13.964 -1.5955 -0.8046  1.2863
 8297TIP3   OH246305   0.045   1.234  12.556  0.0477  0.5196  0.3947
 8297TIP3    H146306   0.085   1.278  12.481 -0.8472  1.3118  0.3584
 8297TIP3    H246307   0.096   1.154  12.567  1.2534  1.2011 -0.0094
 8298TIP3   OH246308   2.116   0.941   5.181  0.1248  0.2385 -0.6882
 8298TIP3    H146309   2.052   0.928   5.251 -1.5718  1.2431 -1.9742
 8298TIP3    H246310   2.174   1.010   5.214 -2.1777  2.5464 -1.1493
 8299TIP3   OH246311   3.691   4.919  16.753 -0.6559 -0.3821  0.5659
 8299TIP3    H146312   3.657   5.002  16.718 -1.0249  0.2174  2.2362
 8299TIP3    H246313   3.773   4.904  16.706 -1.4358  0.0180 -0.9889
 8300TIP3   OH246314   4.621   4.214  11.954 -0.4378 -0.2505 -0.5114
 8300TIP3    H146315   4.700   4.168  11.925 -2.0686 -2.1055 -2.4086
 8300TIP3    H246316   4.643   4.306  11.947  2.0103 -0.6936  0.4846
 8301TIP3   OH246317   1.680   3.739  11.874 -0.1116  0.1591  0.5476
 8301TIP3    H146318   1.678   3.791  11.794  0.4692 -1.3665 -0.5154
 8301TIP3    H246319   1.612   3.777  11.929 -1.4268  0.4702 -1.1970
 8302TIP3   OH246320   1.912   6.645   4.771  0.1239 -0.7075  0.1369
 8302TIP3    H146321   2.007   6.649   4.758  0.0145 -0.2112 -0.5502
 8302TIP3    H246322   1.876   6.641   4.683 -0.5262 -0.0735  0.3642
 8303TIP3   OH246323   6.483   3.563   0.245  0.2589  0.0748 -0.1353
 8303TIP3    H146324   6.554   3.628   0.253 -0.0587  0.2116  3.0113
 8303TIP3    H246325   6.403   3.615   0.241  0.0132 -0.0024  2.2519
 8304TIP3   OH246326   0.756   5.453  15.057  0.2874  0.0393  0.4833
 8304TIP3    H146327   0.724   5.507  15.129 -1.3562 -1.1899  0.7370
 8304TIP3    H246328   0.679   5.406  15.026  1.2191 -0.4210 -1.2509
 8305TIP3   OH246329   2.666   6.174   2.182  0.2049  0.4501  0.0243
 8305TIP3    H146330   2.575   6.143   2.185  0.2036  0.5002  0.7314
 8305TIP3    H246331   2.706   6.122   2.112 -0.5568  0.9818 -0.8324
 8306TIP3   OH246332   2.950   2.116   3.871 -0.4331 -0.0262 -0.1363
 8306TIP3    H146333   3.021   2.052   3.880 -0.5364 -0.0275  0.6838
 8306TIP3    H246334   2.958   2.148   3.781  2.2601  1.9151  0.6600
 8307TIP3   OH246335   0.261   1.984   4.384 -0.1331 -0.3930  0.0603
 8307TIP3    H146336   0.247   2.045   4.458 -0.2323  1.7492 -1.6177
 8307TIP3    H246337   0.344   1.942   4.404  0.9117  1.7132  0.4329
 8308TIP3   OH246338   0.229   2.102   0.961  0.0475  0.2596  0.2036
 8308TIP3    H146339   0.216   2.197   0.963 -0.0420  0.2699 -0.4442
 8308TIP3    H246340   0.247   2.083   0.869 -0.7698 -0.4553  0.1815
 8309TIP3   OH246341   4.335   6.210   4.643  0.0181  0.0342 -0.6684
 8309TIP3    H146342   4.356   6.255   4.725 -0.0105 -0.6503 -0.2785
 8309TIP3    H246343   4.418   6.169   4.617 -0.2123 -0.5770 -0.4540
 8310TIP3   OH246344   2.735   1.483  13.220  0.0327  0.4512 -0.0342
 8310TIP3    H146345   2.745   1.555  13.157 -2.1990  0.4045 -0.5107
 8310TIP3    H246346   2.707   1.409  13.167 -2.8850  0.6689  1.0179
 8311TIP3   OH246347   1.172   5.998   6.268 -0.1968 -0.5329 -0.3123
 8311TIP3    H146348   1.111   6.065   6.299 -1.0668 -1.4555  0.0360
 8311TIP3    H246349   1.257   6.023   6.307 -0.4908  0.3703 -0.2252
 8312TIP3   OH246350   0.046   0.397  14.259  0.5156 -0.5390  0.1701
 8312TIP3    H146351   0.036   0.349  14.178 -0.8718  0.4496 -0.2718
 8312TIP3    H246352  -0.021   0.360  14.318  1.2590 -0.9905  0.7590
 8313TIP3   OH246353   2.287   5.166  16.563  0.2128 -0.5891  0.2406
 8313TIP3    H146354   2.280   5.225  16.638  0.3337 -0.3222  0.0467
 8313TIP3    H246355   2.203   5.178  16.517  0.4982 -0.0722 -0.1538
 8314TIP3   OH246356   4.969   1.380   0.840 -0.5978 -0.5958  0.3300
 8314TIP3    H146357   4.967   1.372   0.935  1.4318 -0.9498  0.3767
 8314TIP3    H246358   4.880   1.358   0.812 -1.0482 -1.1265  2.0818
 8315TIP3   OH246359   3.362   5.520   6.003 -0.0206  0.0810  0.5650
 8315TIP3    H146360   3.412   5.470   6.068 -0.0274  0.6379  1.0091
 8315TIP3    H246361   3.272   5.488   6.012 -0.1170  0.4964  1.1869
 8316TIP3   OH246362   5.069   4.685   2.130 -0.8359 -0.1638  0.1050
 8316TIP3    H146363   5.033   4.735   2.056 -0.9353  0.4738  0.5839
 8316TIP3    H246364   5.162   4.708   2.132 -0.8985  0.0625  0.3772
 8317TIP3   OH246365   2.925   1.887   4.293  0.4162 -0.1581  0.1256
 8317TIP3    H146366   2.935   1.967   4.241 -1.0497 -0.3962 -0.5616
 8317TIP3    H246367   3.014   1.867   4.322  0.9432  1.2268 -0.4221
 8318TIP3   OH246368   4.834   0.564  15.969 -0.2390  0.0219  0.7543
 8318TIP3    H146369   4.891   0.504  16.017  1.7309  0.6668 -0.6204
 8318TIP3    H246370   4.852   0.650  16.008 -0.6251  0.1800  0.5888
 8319TIP3   OH246371   3.777   3.694   0.888 -0.2021 -0.3716  0.0153
 8319TIP3    H146372   3.864   3.676   0.851  0.9181  0.8847  1.8751
 8319TIP3    H246373   3.778   3.787   0.907 -2.2401 -0.2008 -0.4930
 8320TIP3   OH246374   0.278   3.369   5.028  0.1828  0.3820  0.6749
 8320TIP3    H146375   0.206   3.306   5.021 -0.4489  0.7248  3.2688
 8320TIP3    H246376   0.235   3.455   5.033  0.7191  0.6017  2.1880
 8321TIP3   OH246377   5.659   3.943   0.766 -0.5709 -0.2076 -0.0417
 8321TIP3    H146378   5.710   4.024   0.771  0.9228 -1.1943  1.8079
 8321TIP3    H246379   5.722   3.877   0.739 -1.4859 -1.0137 -0.2625
 8322TIP3   OH246380   5.395   5.872  10.913  0.4098  0.3748  0.3217
 8322TIP3    H146381   5.360   5.823  10.839  0.5641 -1.7494  1.5551
 8322TIP3    H246382   5.490   5.867  10.902  0.4445  2.2016 -0.5948
 8323TIP3   OH246383   1.984   4.840   3.091  0.6037  0.0708 -0.1516
 8323TIP3    H146384   2.076   4.842   3.062  0.7499  0.5880  0.3245
 8323TIP3    H246385   1.980   4.767   3.152  0.5253 -0.4097 -0.7273
 8324TIP3   OH246386   6.365   1.816   2.918 -0.0732  0.1661 -0.1205
 8324TIP3    H146387   6.413   1.843   2.996 -0.0013 -1.0389  0.2688
 8324TIP3    H246388   6.277   1.794   2.951 -1.2038  2.9823 -0.9098
 8325TIP3   OH246389   6.397   2.282   2.473  0.4065  0.1322  0.5507
 8325TIP3    H146390   6.397   2.356   2.413 -1.2180  0.3065  0.7125
 8325TIP3    H246391   6.311   2.285   2.515  0.6747 -1.2811  1.2756
 8326TIP3   OH246392   6.007   5.710   3.471  0.0812 -0.2535  0.5073
 8326TIP3    H146393   5.957   5.690   3.550 -0.6380 -0.8745 -0.0791
 8326TIP3    H246394   6.040   5.625   3.441  1.8855  0.2111  1.1239
 8327TIP3   OH246395   0.173   1.871   1.613 -0.1401 -0.2367  0.0328
 8327TIP3    H146396   0.253   1.888   1.563 -0.6003 -0.4226 -0.7898
 8327TIP3    H246397   0.124   1.810   1.558 -1.0835  0.2837  0.2854
 8328TIP3   OH246398   0.561   4.433   1.715 -0.2930  0.2422  0.4820
 8328TIP3    H146399   0.558   4.506   1.653 -0.1284  0.2633  0.5008
 8328TIP3    H246400   0.643   4.444   1.762  0.0592 -0.3289  0.0223
 8329TIP3   OH246401   2.732   0.340  14.790 -0.5482  0.2519 -0.1132
 8329TIP3    H146402   2.677   0.418  14.794 -0.9594  0.0815 -1.9208
 8329TIP3    H246403   2.814   0.370  14.751  0.6130  0.4463  2.3016
 8330TIP3   OH246404   4.702   3.301  14.015 -0.0079  0.6123  0.1635
 8330TIP3    H146405   4.744   3.224  13.978  3.9317  1.2728  2.6844
 8330TIP3    H246406   4.699   3.364  13.942  1.2204 -0.3107 -0.7236
 8331TIP3   OH246407   2.191   6.156   0.522 -0.9029  0.5547  0.4153
 8331TIP3    H146408   2.214   6.214   0.450 -1.7587  0.0388 -0.2948
 8331TIP3    H246409   2.183   6.069   0.482  2.1537 -0.5126  1.7391
 8332TIP3   OH246410   5.341   5.022   0.109 -0.9350 -0.7194 -0.4621
 8332TIP3    H146411   5.271   5.081   0.083 -1.2266 -1.7057 -2.0117
 8332TIP3    H246412   5.380   4.992   0.027  1.0511 -0.5278  0.3490
 8333TIP3   OH246413   5.674   2.042   2.590  0.1672  0.7271  0.7487
 8333TIP3    H146414   5.618   2.109   2.628  0.6278  1.8918 -0.5211
 8333TIP3    H246415   5.734   2.091   2.534 -0.5871 -0.8847 -1.5931
 8334TIP3   OH246416   3.673   3.228  13.331 -0.5905  0.3791  0.0419
 8334TIP3    H146417   3.687   3.180  13.249 -1.5847 -0.1995  0.1931
 8334TIP3    H246418   3.761   3.244  13.364 -0.1844  0.3298 -0.9724
 8335TIP3   OH246419   4.516   1.634   0.817 -0.5415 -0.2206  0.0820
 8335TIP3    H146420   4.608   1.606   0.818 -1.0044 -1.8814 -0.5982
 8335TIP3    H246421   4.497   1.648   0.724 -1.1732 -0.6277  0.1466
 8336TIP3   OH246422   4.804   3.698   5.978 -0.1278 -0.1264 -0.1113
 8336TIP3    H146423   4.820   3.716   6.071 -1.9086 -0.1445  0.2358
 8336TIP3    H246424   4.723   3.745   5.958 -0.5428 -1.2585 -1.2691
 8337TIP3   OH246425   3.934   6.217  14.068  0.2261  0.5832  0.2895
 8337TIP3    H146426   4.030   6.217  14.070  0.2220  1.0307  0.5498
 8337TIP3    H246427   3.909   6.308  14.086 -0.2578  0.3738  0.6888
 8338TIP3   OH246428   3.423   0.550  13.712  0.4359  0.2182  0.7275
 8338TIP3    H146429   3.499   0.501  13.744  1.1815  0.9937  0.1972
 8338TIP3    H246430   3.348   0.494  13.730  1.1176 -0.4694  1.4607
 8339TIP3   OH246431   3.470   0.944   1.501  0.4492 -0.2116  0.2193
 8339TIP3    H146432   3.500   0.961   1.591  0.9613  1.6469 -0.2535
 8339TIP3    H246433   3.376   0.964   1.503  0.5676  0.3746  0.2366
 8340TIP3   OH246434   0.102   0.066  13.094  0.2241 -0.9009 -0.3278
 8340TIP3    H146435   0.016   0.071  13.135 -0.0945  0.1220 -1.0677
 8340TIP3    H246436   0.087   0.093  13.003  1.7070  1.9088  0.1439
 8341TIP3   OH246437   1.364   0.411   2.771 -0.3326 -0.1766  0.5761
 8341TIP3    H146438   1.459   0.399   2.764 -0.3346 -0.3795  0.8550
 8341TIP3    H246439   1.348   0.497   2.733 -0.1411 -0.4798 -0.1917
 8342TIP3   OH246440   1.799   4.401   3.763  0.4751  0.3778  0.2906
 8342TIP3    H146441   1.714   4.420   3.724  0.5747  1.5633  0.5995
 8342TIP3    H246442   1.838   4.336   3.704 -0.1886  0.6409 -0.4680
 8343TIP3   OH246443   4.477   2.629   3.114 -0.2557  0.5295 -0.2780
 8343TIP3    H146444   4.421   2.699   3.079 -0.0776  0.6825 -0.2634
 8343TIP3    H246445   4.421   2.580   3.173 -0.2355  0.9929  0.1283
 8344TIP3   OH246446   5.949   1.979   4.710 -0.6914  0.0241  0.2176
 8344TIP3    H146447   5.930   2.070   4.687 -0.0811  0.7322  2.2936
 8344TIP3    H246448   5.926   1.972   4.802  0.3714 -1.6135  0.4019
 8345TIP3   OH246449   1.891   2.286   0.102 -0.5545  0.3522 -0.4409
 8345TIP3    H146450   1.839   2.267   0.180 -1.2260  2.7706 -0.2021
 8345TIP3    H246451   1.835   2.260   0.029  0.6078 -3.2150 -0.2484
 8346TIP3   OH246452   2.114   3.416  14.710 -0.4355 -0.4576 -0.1696
 8346TIP3    H146453   2.097   3.373  14.626  0.2176  0.4506 -0.7837
 8346TIP3    H246454   2.054   3.490  14.711 -1.3476 -1.1833  0.7536
 8347TIP3   OH246455   4.536   1.363  13.631 -0.1694 -0.2321 -0.5625
 8347TIP3    H146456   4.619   1.327  13.661  0.3054  1.0064 -0.3365
 8347TIP3    H246457   4.560   1.430  13.567 -0.9925  0.0537 -0.5857
 8348TIP3   OH246458   4.595   2.276  12.811 -0.0773  0.6626 -0.0238
 8348TIP3    H146459   4.666   2.332  12.843 -0.8795  1.2713  0.7413
 8348TIP3    H246460   4.604   2.278  12.716  0.6142  1.1425  0.0424
 8349TIP3   OH246461   3.918   0.142  15.649 -0.0114 -0.1820 -0.1562
 8349TIP3    H146462   3.942   0.098  15.731  0.1016  0.4546  0.1663
 8349TIP3    H246463   3.914   0.235  15.673  0.5601  0.0667 -1.0056
 8350TIP3   OH246464   2.316   0.681   1.798  0.2190  0.9040 -0.2841
 8350TIP3    H146465   2.309   0.625   1.876  2.1236  0.2308 -0.5436
 8350TIP3    H246466   2.311   0.770   1.832 -0.7996  0.6144  0.3784
 8351TIP3   OH246467   0.018   6.543  14.585 -0.1461  0.4189 -0.0795
 8351TIP3    H146468   0.049   6.527  14.675  0.4720  1.7031 -0.0409
 8351TIP3    H246469  -0.069   6.505  14.583 -0.2525  0.5516  1.1381
 8352TIP3   OH246470   0.556   2.591   5.528 -0.5525  0.5814  0.6382
 8352TIP3    H146471   0.483   2.546   5.570  0.8506 -1.4361  1.0757
 8352TIP3    H246472   0.541   2.580   5.435  0.4263 -2.1023  0.7256
 8353TIP3   OH246473   4.253   1.911  12.523 -0.0566  0.2277  0.0161
 8353TIP3    H146474   4.279   1.842  12.463 -0.7712 -0.5378  0.5673
 8353TIP3    H246475   4.310   1.985  12.501  0.6608 -0.5034 -0.6325
 8354TIP3   OH246476   1.648   5.711  15.696  0.1887  0.4081 -0.0889
 8354TIP3    H146477   1.641   5.653  15.772  0.9549 -0.0721 -0.3749
 8354TIP3    H246478   1.713   5.777  15.722  0.0667  0.5521 -0.1446
 8355TIP3   OH246479   1.363   3.349  16.831  0.0255  0.1798  0.0944
 8355TIP3    H146480   1.272   3.371  16.852  0.2506  0.4562  0.8230
 8355TIP3    H246481   1.382   3.273  16.885  0.7194  1.1049  1.2057
 8356TIP3   OH246482   0.103   3.417  15.627 -0.3482  0.2386  0.5227
 8356TIP3    H146483   0.091   3.497  15.678 -1.1546  0.6906 -0.3324
 8356TIP3    H246484   0.166   3.365  15.677  0.3800  1.5120  0.9810
 8357TIP3   OH246485   1.383   6.526   0.760 -0.1137 -0.2540 -0.5407
 8357TIP3    H146486   1.390   6.450   0.818 -1.8435 -0.2313 -0.2479
 8357TIP3    H246487   1.311   6.503   0.700 -0.8805  1.2571 -0.2543
 8358TIP3   OH246488   5.661   0.386   4.338  0.0999 -0.0991  0.3190
 8358TIP3    H146489   5.752   0.365   4.359  0.5756  1.7600  0.2904
 8358TIP3    H246490   5.610   0.353   4.412  0.9000 -0.3801  0.7474
 8359TIP3   OH246491   2.307   4.346  11.649  0.0373  0.5227 -0.1788
 8359TIP3    H146492   2.286   4.286  11.721  3.8995 -0.1878  0.5721
 8359TIP3    H246493   2.239   4.413  11.653 -2.7600 -2.1114  0.8755
 8360TIP3   OH246494   2.775   5.920   4.109 -0.5419  0.0995  0.6922
 8360TIP3    H146495   2.844   5.856   4.126 -1.2720 -0.5899  1.1605
 8360TIP3    H246496   2.810   6.003   4.141  0.6224  0.0525 -0.4093
 8361TIP3   OH246497   3.158   4.508  15.283  0.0465  0.5734 -0.7608
 8361TIP3    H146498   3.196   4.421  15.300 -1.7075  0.0599  0.9525
 8361TIP3    H246499   3.188   4.531  15.196  0.8340 -1.6299 -1.1380
 8362TIP3   OH246500   3.166   4.577  12.731 -0.0341  0.6199  0.5663
 8362TIP3    H146501   3.145   4.665  12.762  2.4151  2.2503 -1.9466
 8362TIP3    H246502   3.225   4.541  12.798 -1.3467  0.6580  1.7954
 8363TIP3   OH246503   5.189   4.598   1.778  0.8974  0.4871  0.5207
 8363TIP3    H146504   5.151   4.685   1.773 -2.4138 -0.8709 -1.8222
 8363TIP3    H246505   5.277   4.608   1.742 -0.8333  2.3165 -3.9225
 8364TIP3   OH246506   0.375   6.229  17.023  0.3343 -0.7078  0.3312
 8364TIP3    H146507   0.297   6.178  17.002 -0.1490 -0.2955  1.1009
 8364TIP3    H246508   0.406   6.192  17.106  1.9586 -2.0153 -0.7901
 8365TIP3   OH246509   1.390   2.513   1.507 -0.2169  0.3281 -0.0779
 8365TIP3    H146510   1.333   2.589   1.520 -0.9647 -0.4441  1.5392
 8365TIP3    H246511   1.419   2.490   1.596  0.7544 -0.7027 -0.6363
 8366TIP3   OH246512   3.135   6.667  11.777  0.9166  0.6353  0.3319
 8366TIP3    H146513   3.207   6.717  11.816  0.8575 -0.3422  1.7926
 8366TIP3    H246514   3.060   6.726  11.781  1.0177  0.7191  1.3443
 8367TIP3   OH246515   2.553   5.404  11.084 -0.0833 -0.3301  0.1426
 8367TIP3    H146516   2.478   5.364  11.128 -0.2139  1.7344  1.9560
 8367TIP3    H246517   2.516   5.443  11.005 -0.3935 -1.5856 -0.3556
 8368TIP3   OH246518   0.120   2.401   0.979 -0.2722  0.3250 -0.4999
 8368TIP3    H146519   0.026   2.400   0.996 -0.0294 -0.1713  0.9386
 8368TIP3    H246520   0.158   2.441   1.058  0.6027  2.2000 -1.7931
 8369TIP3   OH246521   4.268   3.047   2.009  0.3565  0.0483  0.1841
 8369TIP3    H146522   4.284   3.139   1.991  1.2587  0.0068  0.7146
 8369TIP3    H246523   4.288   3.002   1.927  3.2057 -0.0088  0.8034
 8370TIP3   OH246524   0.264   4.320   2.204 -0.6559  0.3049 -0.2713
 8370TIP3    H146525   0.349   4.317   2.159 -1.0133 -1.3080 -0.9034
 8370TIP3    H246526   0.200   4.309   2.134 -1.4000  1.4284  0.2196
 8371TIP3   OH246527   1.596   4.354   0.639  0.2438 -0.6441 -0.1470
 8371TIP3    H146528   1.533   4.293   0.678 -1.4641  1.3960  0.4836
 8371TIP3    H246529   1.615   4.318   0.553 -1.3851 -1.5914 -0.1360
 8372TIP3   OH246530   4.683   2.159   5.033  0.2423 -0.0449  0.5610
 8372TIP3    H146531   4.752   2.171   4.968  0.3308 -1.0084  0.4654
 8372TIP3    H246532   4.729   2.125   5.110 -0.0521 -0.2263  0.6586
 8373TIP3   OH246533   2.317   6.719   1.389 -0.1455  0.5138  0.2360
 8373TIP3    H146534   2.374   6.735   1.315  3.0223 -1.9426  1.8702
 8373TIP3    H246535   2.237   6.682   1.351  1.3335 -0.6009 -2.0127
 8374TIP3   OH246536   6.174   5.785  12.355  0.6251 -0.0741 -0.3218
 8374TIP3    H146537   6.241   5.721  12.333  1.2132  0.4903 -0.1959
 8374TIP3    H246538   6.209   5.869  12.324 -0.7751  0.0009 -1.8704
 8375TIP3   OH246539   3.224   4.847   3.030  0.0352 -0.3780 -0.1641
 8375TIP3    H146540   3.182   4.767   2.998 -0.5602 -1.1551  2.3236
 8375TIP3    H246541   3.317   4.832   3.014 -0.1591 -1.1209 -0.6718
 8376TIP3   OH246542   0.539   3.484   1.837 -0.3291  0.1802 -0.4795
 8376TIP3    H146543   0.507   3.444   1.917  0.0299 -0.2674 -0.5559
 8376TIP3    H246544   0.521   3.418   1.769  2.2389 -0.8294 -0.2854
 8377TIP3   OH246545   6.457   6.114  14.118 -0.1358  0.4305 -0.2424
 8377TIP3    H146546   6.543   6.073  14.106 -0.1156  0.4388 -0.1230
 8377TIP3    H246547   6.395   6.047  14.088 -0.2575 -0.6448  2.1599
 8378TIP3   OH246548   3.337   3.384   6.211  1.1833 -0.6477 -0.1900
 8378TIP3    H146549   3.430   3.391   6.234  1.6757  0.8774 -2.3062
 8378TIP3    H246550   3.299   3.467   6.237  1.4527  0.5418 -3.2027
 8379TIP3   OH246551   1.938   6.206  16.460  0.2507  0.5218 -0.4357
 8379TIP3    H146552   1.955   6.244  16.546 -1.6401  0.0963  0.1611
 8379TIP3    H246553   1.916   6.280  16.404  0.1025  0.6672 -0.1846
 8380TIP3   OH246554   4.775   6.099  16.806  0.0029  0.5333 -0.2456
 8380TIP3    H146555   4.834   6.174  16.804  0.8742 -0.1212  0.6050
 8380TIP3    H246556   4.821   6.030  16.759  0.4720 -0.3519  1.4294
 8381TIP3   OH246557   3.769   2.585   0.529 -0.3204  0.0482 -0.3489
 8381TIP3    H146558   3.793   2.515   0.469  0.3387 -1.3689  1.4915
 8381TIP3    H246559   3.810   2.561   0.612 -1.6687  1.6350  0.8445
 8382TIP3   OH246560   1.461   5.328   3.900  0.0165  0.0256  0.1764
 8382TIP3    H146561   1.534   5.369   3.855  1.1062 -0.5064  1.3758
 8382TIP3    H246562   1.385   5.384   3.881  0.5536  0.1507 -1.7319
 8383TIP3   OH246563   0.505   4.088   5.659 -0.4533 -0.1005 -0.1243
 8383TIP3    H146564   0.440   4.039   5.709  1.6662 -1.8723  1.0457
 8383TIP3    H246565   0.540   4.152   5.721  0.8616 -1.0518  0.1523
 8384TIP3   OH246566   6.463   6.137  11.922 -0.5379 -0.1300 -0.2595
 8384TIP3    H146567   6.377   6.175  11.905 -0.2915 -0.1785 -1.7259
 8384TIP3    H246568   6.517   6.211  11.949 -1.4675 -0.3766  2.6082
 8385TIP3   OH246569   4.206   3.997  11.735 -0.3890  0.4124 -0.7454
 8385TIP3    H146570   4.300   4.013  11.740 -0.3172  0.0574 -0.9071
 8385TIP3    H246571   4.177   3.994  11.826 -0.3572  1.1603 -0.7075
 8386TIP3   OH246572   5.841   0.097  12.717 -0.3381  0.1352 -0.3383
 8386TIP3    H146573   5.932   0.069  12.707 -0.4663 -0.8565  1.0445
 8386TIP3    H246574   5.816   0.067  12.804 -2.8947 -2.2440 -1.7424
 8387TIP3   OH246575   3.332   3.122   0.244  0.3677  0.1409 -0.8175
 8387TIP3    H146576   3.415   3.124   0.195  0.4665  1.7121 -0.6379
 8387TIP3    H246577   3.358   3.108   0.335  0.4755  0.9252 -0.7200
 8388TIP3   OH246578   3.778   4.394   1.363  0.0613  0.0561 -0.2377
 8388TIP3    H146579   3.725   4.469   1.335  0.4003  0.6999  0.8315
 8388TIP3    H246580   3.863   4.408   1.321  0.9136  1.5841  1.8798
 8389TIP3   OH246581   1.692   5.233   1.838 -0.5602 -0.8527  0.0534
 8389TIP3    H146582   1.758   5.163   1.836  0.0415 -0.3011  0.3715
 8389TIP3    H246583   1.693   5.265   1.928  0.5577  0.8533 -0.5123
 8390TIP3   OH246584   3.025   4.668  13.830  0.1802 -0.2500  1.0609
 8390TIP3    H146585   3.002   4.654  13.738  0.4643 -0.9304  1.0868
 8390TIP3    H246586   3.020   4.763  13.841  0.3979 -0.1315  0.2701
 8391TIP3   OH246587   6.478   2.479  11.611 -0.1991 -0.0418  0.1812
 8391TIP3    H146588   6.526   2.483  11.694  0.1831  2.5485 -0.1091
 8391TIP3    H246589   6.387   2.462  11.637 -0.0283  0.3975  1.1016
 8392TIP3   OH246590   4.603   3.041   3.762  0.0912 -0.0211  0.1134
 8392TIP3    H146591   4.639   2.995   3.837  0.3759  1.0740  0.6670
 8392TIP3    H246592   4.677   3.087   3.723 -0.6724  2.5819  1.5049
 8393TIP3   OH246593   5.592   4.471  15.238  0.5088 -0.3018  0.4574
 8393TIP3    H146594   5.627   4.483  15.149  1.0846 -0.0904  0.7066
 8393TIP3    H246595   5.650   4.523  15.294  0.8660 -1.3700  1.1085
 8394TIP3   OH246596   3.530   5.424   6.204  0.0159  0.0463 -0.7242
 8394TIP3    H146597   3.573   5.341   6.221  1.3157  0.4894 -1.6649
 8394TIP3    H246598   3.599   5.481   6.171 -0.8990  1.4211 -0.4001
 8395TIP3   OH246599   5.946   2.516  15.302  0.0219 -0.2170  0.0913
 8395TIP3    H146600   5.935   2.443  15.241 -0.7832  0.1244 -0.1875
 8395TIP3    H246601   6.010   2.573  15.260  0.3189 -0.5378  0.1019
 8396TIP3   OH246602   1.432   1.794  15.996 -0.4954 -0.1944  0.1643
 8396TIP3    H146603   1.478   1.768  16.075 -1.5712 -1.5771  0.3705
 8396TIP3    H246604   1.352   1.837  16.027  0.5956  2.2994 -0.1838
 8397TIP3   OH246605   3.751   2.481  13.275 -0.7279 -0.2191 -0.2887
 8397TIP3    H146606   3.662   2.493  13.309 -1.1178 -0.4963 -1.1825
 8397TIP3    H246607   3.777   2.395  13.307 -0.5253  0.1240  0.5012
 8398TIP3   OH246608   3.499   2.122  13.526  0.1589  0.1668 -0.7065
 8398TIP3    H146609   3.438   2.078  13.585  0.1755  0.1902 -0.6714
 8398TIP3    H246610   3.497   2.214  13.553  0.2581  0.1563 -0.6621
 8399TIP3   OH246611   0.901   4.637  14.497 -0.2333 -0.0133  0.1302
 8399TIP3    H146612   0.870   4.725  14.519 -0.3669 -0.3626  1.3925
 8399TIP3    H246613   0.887   4.586  14.576  0.9124 -0.8940 -0.2121
 8400TIP3   OH246614   5.265   2.335   1.942 -0.1767 -0.1065 -0.4138
 8400TIP3    H146615   5.266   2.241   1.923  0.9778  0.0184 -1.0967
 8400TIP3    H246616   5.186   2.367   1.898 -0.5800 -0.7446 -0.1796
 8401TIP3   OH246617   4.916   1.133  11.390 -0.6828 -0.3097  0.0437
 8401TIP3    H146618   4.971   1.089  11.455 -0.7891  0.9357  1.0039
 8401TIP3    H246619   4.829   1.092  11.400 -0.0521 -2.2017 -1.4006
 8402TIP3   OH246620   3.838   2.890  12.962 -0.4317 -0.0557 -0.3929
 8402TIP3    H146621   3.919   2.855  13.000  0.5652 -0.0007 -2.3594
 8402TIP3    H246622   3.789   2.813  12.936  0.0037 -0.0664 -1.2019
 8403TIP3   OH246623   0.682   4.097   4.680  0.8731 -0.0058  0.1248
 8403TIP3    H146624   0.761   4.146   4.660  1.8309 -1.1522  0.9404
 8403TIP3    H246625   0.695   4.065   4.769 -0.0753 -1.0411 -0.0824
 8404TIP3   OH246626   4.819   4.819  11.752  0.3518  0.0443 -0.1369
 8404TIP3    H146627   4.787   4.731  11.732  0.3594  0.3496 -1.6544
 8404TIP3    H246628   4.909   4.820  11.719  0.2700  0.6853 -0.3539
 8405TIP3   OH246629   4.677   2.789  12.660  0.1109  0.1539  0.5430
 8405TIP3    H146630   4.750   2.831  12.615  0.0814 -0.8577 -0.5019
 8405TIP3    H246631   4.634   2.859  12.708 -1.4820  1.9572 -3.1335
 8406TIP3   OH246632   2.256   3.495   3.584  0.0547 -0.1128  0.0620
 8406TIP3    H146633   2.260   3.586   3.613  1.7320 -0.2180  0.2548
 8406TIP3    H246634   2.169   3.464   3.612 -0.9003  1.6585 -0.7976
 8407TIP3   OH246635   2.457   1.712   0.553 -0.0075 -0.0620  0.2087
 8407TIP3    H146636   2.492   1.785   0.604 -0.1644 -1.7405  2.8838
 8407TIP3    H246637   2.534   1.660   0.530  0.0175  0.4746 -1.0172
 8408TIP3   OH246638   0.461   1.622   5.442 -0.0666 -0.5585 -0.2256
 8408TIP3    H146639   0.486   1.714   5.448 -1.4123 -0.1151 -1.0960
 8408TIP3    H246640   0.378   1.616   5.488  0.5864 -1.6038  0.8721
 8409TIP3   OH246641   1.713   4.940  17.074 -0.0756  0.0822  0.3950
 8409TIP3    H146642   1.729   5.005  17.006 -3.6576 -0.8286 -1.5632
 8409TIP3    H246643   1.683   4.862  17.026  1.6822 -2.2318  2.7939
 8410TIP3   OH246644   2.820   2.569   5.703 -0.3525 -0.3472 -0.5755
 8410TIP3    H146645   2.908   2.604   5.688 -0.4194 -0.1579 -0.5351
 8410TIP3    H246646   2.762   2.644   5.686 -0.4724 -0.3129 -0.0350
 8411TIP3   OH246647   1.035   2.851  16.491 -0.6236  0.4269 -0.5076
 8411TIP3    H146648   1.102   2.843  16.559 -0.0250 -0.9449 -1.2286
 8411TIP3    H246649   1.070   2.918  16.432  0.0308 -0.1500 -0.7828
 8412TIP3   OH246650   6.439   3.397   5.266 -0.0231 -0.6301  0.4114
 8412TIP3    H146651   6.344   3.394   5.277  0.0258 -1.6972  0.7225
 8412TIP3    H246652   6.469   3.460   5.331 -0.4624 -0.8566  0.8464
 8413TIP3   OH246653   2.476   2.994   3.340  0.3779  0.9730  0.2140
 8413TIP3    H146654   2.407   2.961   3.281 -0.0617 -0.9179  1.6852
 8413TIP3    H246655   2.553   2.942   3.317 -0.0883 -0.5935  1.9634
 8414TIP3   OH246656   5.405   0.607  13.564  0.1421  0.2096 -0.1036
 8414TIP3    H146657   5.464   0.559  13.623 -0.5698  1.0466  1.3510
 8414TIP3    H246658   5.463   0.659  13.509  0.7958  1.4354  1.6634
 8415TIP3   OH246659   5.930   1.375   2.686 -0.3268  0.2577  0.6117
 8415TIP3    H146660   5.902   1.307   2.624 -2.0994 -0.1593  1.7987
 8415TIP3    H246661   5.872   1.449   2.668 -0.1891  0.4898  1.1072
 8416TIP3   OH246662   1.330   2.492   4.148  0.0304 -0.4289  0.4462
 8416TIP3    H146663   1.312   2.583   4.124 -0.2498 -1.0659 -2.0153
 8416TIP3    H246664   1.300   2.485   4.239 -2.3878  1.3014 -0.1124
 8417TIP3   OH246665   6.472   3.229   4.778 -0.1317  0.4613  0.0399
 8417TIP3    H146666   6.440   3.295   4.839  0.3721  1.0025 -0.2776
 8417TIP3    H246667   6.533   3.176   4.829 -2.7837 -1.7482  1.2020
 8418TIP3   OH246668   2.894   0.662   2.095  0.4792 -0.2402  0.0106
 8418TIP3    H146669   2.847   0.671   2.177 -0.5682  0.0725 -0.6001
 8418TIP3    H246670   2.928   0.750   2.077  0.8755 -0.3530  0.2055
 8419TIP3   OH246671   3.628   2.211  16.215 -0.4174  0.4108 -0.0706
 8419TIP3    H146672   3.650   2.123  16.184 -0.4904  0.0167  0.9596
 8419TIP3    H246673   3.584   2.252  16.140  0.6485 -0.0089 -0.9580
 8420TIP3   OH246674   6.592   6.135   0.454 -0.0642 -0.3832 -0.5818
 8420TIP3    H146675   6.663   6.109   0.513  0.4842  2.4239  0.1581
 8420TIP3    H246676   6.637   6.169   0.376 -0.5833  0.7071 -0.4303
 8421TIP3   OH246677   5.174   3.926   2.658  0.1138 -0.1225 -0.0838
 8421TIP3    H146678   5.141   3.873   2.731  0.1388 -0.0725 -0.0358
 8421TIP3    H246679   5.181   4.014   2.694  0.3996 -0.1526 -0.0646
 8422TIP3   OH246680   3.680   5.942  16.975 -0.2018  0.8322 -0.3344
 8422TIP3    H146681   3.743   5.970  16.908 -1.0364 -0.1788 -1.6062
 8422TIP3    H246682   3.596   5.975  16.943 -0.5277  0.8664  0.5479
 8423TIP3   OH246683   2.283   0.577   2.047  0.4645 -0.4542 -0.2562
 8423TIP3    H146684   2.332   0.600   2.126 -0.4120  1.5477 -0.2145
 8423TIP3    H246685   2.203   0.536   2.079  0.1049  0.3667 -0.0722
 8424TIP3   OH246686   0.118   5.318   5.619 -0.0674  0.5719  0.7204
 8424TIP3    H146687   0.047   5.381   5.634 -0.7986 -0.4585  1.7332
 8424TIP3    H246688   0.075   5.233   5.621  1.3349 -0.1585  2.3855
 8425TIP3   OH246689   1.126   1.922   4.587  0.7991 -0.2333 -0.2264
 8425TIP3    H146690   1.107   1.967   4.669 -1.4314  0.8462 -1.2489
 8425TIP3    H246691   1.214   1.887   4.599  0.9631  0.7940  2.2065
 8426TIP3   OH246692   5.817   0.511  13.444  0.0854  0.0870 -0.4736
 8426TIP3    H146693   5.851   0.559  13.368 -2.9990  0.2136 -1.9187
 8426TIP3    H246694   5.778   0.432  13.408 -0.8687 -0.1946  1.0692
 8427TIP3   OH246695   4.565   4.945   5.599 -0.0583 -0.1339  1.0123
 8427TIP3    H146696   4.655   4.913   5.603  0.5300  1.0781 -0.9197
 8427TIP3    H246697   4.571   5.036   5.629 -0.6651 -0.0716  0.9508
 8428TIP3   OH246698   4.034   1.599  13.715 -0.1540 -0.1360  0.1076
 8428TIP3    H146699   4.097   1.652  13.764  1.1021  0.5106 -2.0999
 8428TIP3    H246700   3.967   1.577  13.780  2.1784 -0.6824  2.5135
 8429TIP3   OH246701   6.198   4.956  16.969  0.1489  0.0542 -0.0929
 8429TIP3    H146702   6.157   4.948  16.883  0.5419 -0.4303 -0.2421
 8429TIP3    H246703   6.282   4.999  16.952 -0.5931  1.6935  0.3051
 8430TIP3   OH246704   0.200   3.540  16.400 -0.2284  0.7931 -0.2081
 8430TIP3    H146705   0.156   3.590  16.331 -0.2821  0.0475 -0.7396
 8430TIP3    H246706   0.151   3.457  16.403  2.6152 -1.1896 -2.6725
 8431TIP3   OH246707   2.610   1.660  11.230 -0.0448  0.1167  0.0026
 8431TIP3    H146708   2.623   1.590  11.165  2.3387 -0.1402  0.6792
 8431TIP3    H246709   2.650   1.626  11.310 -2.2399  0.7450  1.4744
 8432TIP3   OH246710   2.321   0.933   6.510  0.2900 -0.5894 -0.6175
 8432TIP3    H146711   2.266   0.976   6.576  0.4276  2.3215 -2.2598
 8432TIP3    H246712   2.400   0.908   6.558  0.0845  0.7964  0.5133
 8433TIP3   OH246713   0.147   2.433  16.126 -0.5395 -0.1982 -0.7064
 8433TIP3    H146714   0.083   2.365  16.145 -0.9239  0.1160 -0.8585
 8433TIP3    H246715   0.226   2.386  16.100 -0.4938 -0.6073  0.1324
 8434TIP3   OH246716   1.521   5.610  16.900  0.0842  0.4961 -0.1460
 8434TIP3    H146717   1.545   5.703  16.891  1.4706  0.0915 -0.9686
 8434TIP3    H246718   1.465   5.593  16.825  1.2472  0.2674 -0.9917
 8435TIP3   OH246719   2.089   5.609   2.749  0.0492  0.2800 -0.3983
 8435TIP3    H146720   2.053   5.531   2.708  0.6200 -1.0442  1.4449
 8435TIP3    H246721   2.014   5.668   2.759 -0.5781 -0.3931 -1.0460
 8436TIP3   OH246722   3.168   2.673   1.359 -0.0581  0.2142  0.3462
 8436TIP3    H146723   3.179   2.711   1.446 -0.0192  0.9410  0.0258
 8436TIP3    H246724   3.122   2.591   1.374  0.1788  0.2132  1.0787
 8437TIP3   OH246725   6.694   0.804   2.534 -0.3485  0.2415  0.4454
 8437TIP3    H146726   6.738   0.886   2.556 -0.5237  0.1705  1.1021
 8437TIP3    H246727   6.705   0.750   2.613 -1.7675  0.2990  0.7018
 8438TIP3   OH246728   2.789   4.039   2.462  0.3437  0.7356 -0.2709
 8438TIP3    H146729   2.837   4.110   2.503  1.0306  0.4180 -0.5125
 8438TIP3    H246730   2.856   3.984   2.422 -0.2993  1.0513 -1.8654
 8439TIP3   OH246731   4.070   0.825   2.493 -0.2446 -0.1476 -0.0428
 8439TIP3    H146732   3.979   0.793   2.492 -0.4404  0.3828  0.1803
 8439TIP3    H246733   4.104   0.805   2.406 -0.3485 -0.9939  0.1054
 8440TIP3   OH246734   5.962   4.985   0.775  0.3101  0.8225 -0.0760
 8440TIP3    H146735   5.927   4.918   0.834 -0.4382  1.6708  0.4640
 8440TIP3    H246736   5.964   5.065   0.828  0.0664  1.4996 -1.0669
 8441TIP3   OH246737   4.368   3.704   1.881 -0.1973 -0.1297 -0.0754
 8441TIP3    H146738   4.287   3.670   1.919 -1.3667  1.3514 -1.1277
 8441TIP3    H246739   4.431   3.704   1.954 -2.0746  1.7308  1.6963
 8442TIP3   OH246740   4.310   2.558   4.845 -0.2527  0.0004 -0.8304
 8442TIP3    H146741   4.218   2.567   4.868 -0.9015 -0.5653 -3.0160
 8442TIP3    H246742   4.356   2.556   4.930 -2.4021 -1.7102  0.3917
 8443TIP3   OH246743   1.121   0.704   4.921 -0.4709  0.6650 -0.0338
 8443TIP3    H146744   1.083   0.616   4.919  0.0664  0.4291 -1.8280
 8443TIP3    H246745   1.201   0.695   4.972  1.1364 -0.6287 -2.5966
 8444TIP3   OH246746   5.240   0.529  11.003  0.5402 -0.3188 -0.2524
 8444TIP3    H146747   5.312   0.512  10.943  1.6062  0.2761  0.8091
 8444TIP3    H246748   5.195   0.605  10.966  0.5424 -0.6003 -0.8397
 8445TIP3   OH246749   4.943   0.995  13.817 -0.0563  0.6103 -0.5807
 8445TIP3    H146750   5.022   1.049  13.804  1.5814 -1.6408 -0.5986
 8445TIP3    H246751   4.958   0.918  13.763 -1.9529 -0.2382  0.0385
 8446TIP3   OH246752   2.139   5.656   4.228 -0.5823  0.0237  0.4232
 8446TIP3    H146753   2.134   5.561   4.231  0.8998 -0.1323 -0.9838
 8446TIP3    H246754   2.099   5.680   4.145  1.0214  0.4243 -0.2714
 8447TIP3   OH246755   5.029   1.732  16.203  0.0104  0.8869  0.2428
 8447TIP3    H146756   5.000   1.823  16.199  1.3328  1.2916 -0.4984
 8447TIP3    H246757   4.953   1.682  16.172 -0.3844  1.8114 -0.3288
 8448TIP3   OH246758   2.731   2.874   3.330  0.0665  0.0737  0.1369
 8448TIP3    H146759   2.769   2.925   3.401  0.5593 -0.0367 -0.0427
 8448TIP3    H246760   2.794   2.881   3.259  0.1995 -0.8798  0.1442
 8449TIP3   OH246761   6.469   0.483   2.931 -0.3336 -0.1350 -0.2089
 8449TIP3    H146762   6.393   0.433   2.901 -0.3030 -0.1678 -0.2318
 8449TIP3    H246763   6.510   0.516   2.851  0.2100 -0.9015 -0.2579
 8450TIP3   OH246764   2.829   3.368   3.102 -0.1413 -0.4599 -0.6800
 8450TIP3    H146765   2.851   3.413   3.183 -1.3964  0.8250 -0.9973
 8450TIP3    H246766   2.750   3.317   3.124 -0.6430  0.1061 -1.1487
 8451TIP3   OH246767   3.058   2.396   0.806 -0.0814 -0.4478  0.0770
 8451TIP3    H146768   3.148   2.429   0.815 -0.5562  0.7223  0.7889
 8451TIP3    H246769   3.062   2.336   0.731  1.6375 -1.7106  1.1006
 8452TIP3   OH246770   1.293   2.907  11.755  0.1880 -0.0530 -0.6092
 8452TIP3    H146771   1.382   2.923  11.786  0.0342  2.2162 -1.2008
 8452TIP3    H246772   1.292   2.940  11.666 -1.4279  0.6332 -0.3715
 8453TIP3   OH246773   2.579   2.601   3.793 -0.8740 -0.2986  0.1527
 8453TIP3    H146774   2.572   2.526   3.733 -2.6807  0.3989 -0.5566
 8453TIP3    H246775   2.573   2.678   3.736 -1.0178  0.3829  1.0768
 8454TIP3   OH246776   3.038   6.304  14.261 -0.5002 -0.4666 -0.2438
 8454TIP3    H146777   3.053   6.309  14.166 -0.0383  1.1802 -0.1103
 8454TIP3    H246778   2.959   6.357  14.275  0.3325  0.6121  0.4653
 8455TIP3   OH246779   2.688   5.142  14.906 -0.0325  0.1508 -0.0541
 8455TIP3    H146780   2.767   5.168  14.952 -1.0020 -1.2652  2.6743
 8455TIP3    H246781   2.718   5.113  14.820  1.8074  3.6202 -0.7523
 8456TIP3   OH246782   3.112   2.517   4.140 -0.1817 -0.2337  0.0421
 8456TIP3    H146783   3.124   2.451   4.208  1.3245 -0.4128 -0.3650
 8456TIP3    H246784   3.055   2.475   4.076  0.2420 -0.9098  0.0975
 8457TIP3   OH246785   2.498   4.317  13.264 -0.0213  0.3717  0.6040
 8457TIP3    H146786   2.576   4.363  13.234 -0.8900  1.1831 -0.5114
 8457TIP3    H246787   2.522   4.224  13.263  1.0738  0.6480  0.7834
 8458TIP3   OH246788   1.281   0.669   2.219  0.0673 -0.8843 -0.0349
 8458TIP3    H146789   1.194   0.635   2.239  0.0569 -0.6082  0.3847
 8458TIP3    H246790   1.270   0.718   2.137 -0.2162 -0.6618  0.1369
 8459TIP3   OH246791   1.018   5.399   0.823  0.4170 -0.3217 -0.2019
 8459TIP3    H146792   1.009   5.360   0.910  0.3718  0.4623  0.1510
 8459TIP3    H246793   1.112   5.417   0.815  0.2363  0.9516  0.2935
 8460TIP3   OH246794   1.498   0.212  16.064 -0.1387 -0.6095  0.0338
 8460TIP3    H146795   1.472   0.161  15.987 -1.2330 -1.5996  1.0237
 8460TIP3    H246796   1.431   0.191  16.130 -0.2643  1.6255  0.6793
 8461TIP3   OH246797   5.934   4.345   5.153  0.1827 -0.0384 -0.3022
 8461TIP3    H146798   6.029   4.337   5.147  0.0675 -0.6691 -1.6790
 8461TIP3    H246799   5.901   4.298   5.077 -1.2590 -0.1722  0.3691
 8462TIP3   OH246800   3.284   2.932  12.058  0.6154 -0.3813  0.1389
 8462TIP3    H146801   3.202   2.949  12.104 -0.6556  1.7011 -2.6501
 8462TIP3    H246802   3.340   3.007  12.081  1.0362 -0.7958  0.4883
 8463TIP3   OH246803   2.868   6.271  13.769 -0.0424 -0.5594 -0.0071
 8463TIP3    H146804   2.878   6.283  13.864  0.7679 -2.4003  0.1678
 8463TIP3    H246805   2.954   6.242  13.739  0.0925  1.2697 -1.5607
 8464TIP3   OH246806   6.248   5.954   1.429  0.0422  0.1840 -0.2824
 8464TIP3    H146807   6.332   5.909   1.438  0.2591  0.2421 -1.7306
 8464TIP3    H246808   6.269   6.034   1.379 -1.0412 -0.4823 -1.9020
 8465TIP3   OH246809   4.897   2.515   3.443  0.6479 -0.2172  0.1671
 8465TIP3    H146810   4.840   2.562   3.382 -0.0502  1.2099  1.8322
 8465TIP3    H246811   4.985   2.523   3.405  0.1388 -0.0531 -1.0244
 8466TIP3   OH246812   3.566   2.957   1.754  0.0489  0.1987  0.3582
 8466TIP3    H146813   3.644   2.964   1.810  1.0331  0.9266 -1.0133
 8466TIP3    H246814   3.564   2.865   1.727  0.4411  0.1684  0.4224
 8467TIP3   OH246815   6.109   3.891  14.134 -0.2211 -0.4347 -0.8064
 8467TIP3    H146816   6.133   3.937  14.054 -0.0422  0.2926 -0.3426
 8467TIP3    H246817   6.192   3.859  14.169 -0.2032 -0.0606 -0.4991
 8468TIP3   OH246818   5.186   4.775  11.236 -0.2835 -0.1136 -0.0783
 8468TIP3    H146819   5.184   4.836  11.310  0.9185  0.3611 -0.4116
 8468TIP3    H246820   5.209   4.691  11.275  2.2446  0.4894 -0.0663
 8469TIP3   OH246821   2.882   0.463  12.809 -0.2795  0.1676 -0.1169
 8469TIP3    H146822   2.971   0.469  12.776  0.0706 -2.7262  0.0384
 8469TIP3    H246823   2.842   0.394  12.757 -2.1790  0.8118  0.4100
 8470TIP3   OH246824   4.501   4.803   2.463 -0.3013 -0.1755  0.4518
 8470TIP3    H146825   4.412   4.814   2.495 -1.0121 -1.5306 -0.9579
 8470TIP3    H246826   4.518   4.882   2.412 -0.3096  0.5371  1.5184
 8471TIP3   OH246827   4.026   4.820   5.241  0.6592  0.6284  0.5571
 8471TIP3    H146828   3.957   4.874   5.280 -1.4160 -0.2826 -1.6006
 8471TIP3    H246829   3.988   4.732   5.237  2.5224 -0.2272  0.5317
 8472TIP3   OH246830   2.871   5.045  15.276  0.4078 -0.4139  0.0217
 8472TIP3    H146831   2.945   5.079  15.327 -0.1245  0.6979  0.0948
 8472TIP3    H246832   2.795   5.057  15.333 -0.1689  0.6464 -0.9065
 8473TIP3   OH246833   6.590   5.553   4.864  0.4785 -0.3745 -0.5758
 8473TIP3    H146834   6.684   5.559   4.848  0.3960  1.8525 -0.6017
 8473TIP3    H246835   6.550   5.589   4.785 -0.1758  2.9722  1.0893
 8474TIP3   OH246836   4.593   5.226   1.007  0.0628 -0.4793 -0.1545
 8474TIP3    H146837   4.544   5.308   1.002 -0.4903 -0.6274  1.9756
 8474TIP3    H246838   4.649   5.235   1.084 -0.5392 -2.3484  0.5762
 8475TIP3   OH246839   2.948   0.010   3.037  0.0295  0.1851  0.0469
 8475TIP3    H146840   2.890   0.003   2.961  1.4488 -0.1483 -1.0369
 8475TIP3    H246841   3.036  -0.001   3.001  0.8138  1.1465  1.5844
 8476TIP3   OH246842   2.287   4.375   3.200  0.5514 -0.1201 -0.2648
 8476TIP3    H146843   2.217   4.421   3.152  1.0991  0.7630 -0.2506
 8476TIP3    H246844   2.243   4.338   3.276  0.0642  0.3172 -0.3212
 8477TIP3   OH246845   3.319   6.727   2.232  0.0795 -0.0065 -0.6336
 8477TIP3    H146846   3.302   6.740   2.139 -0.4652  0.0897 -0.5253
 8477TIP3    H246847   3.412   6.706   2.237  0.0153 -0.4466 -1.2414
 8478TIP3   OH246848   2.291   3.931   2.719  0.0803 -0.4963  0.0199
 8478TIP3    H146849   2.386   3.938   2.727 -0.0261 -0.1270  1.1218
 8478TIP3    H246850   2.259   4.021   2.725 -0.5128 -0.7762  2.8441
 8479TIP3   OH246851   2.586   4.634  14.985 -0.4053  0.0568 -0.1912
 8479TIP3    H146852   2.661   4.595  15.030 -0.0615  0.2623 -0.5750
 8479TIP3    H246853   2.595   4.728  15.001 -0.7117  0.0665 -0.0525
 8480TIP3   OH246854   2.592   0.659  13.595  0.1528  0.2209  0.5208
 8480TIP3    H146855   2.594   0.743  13.549  1.5564  0.5910  1.1983
 8480TIP3    H246856   2.520   0.668  13.657  0.8939  1.3299  1.2670
 8481TIP3   OH246857   0.496   2.575   5.265 -0.1425 -0.0871  0.3552
 8481TIP3    H146858   0.404   2.590   5.243  0.1537  0.4115 -0.6033
 8481TIP3    H246859   0.524   2.505   5.205  0.2340  0.1033  0.3062
 8482TIP3   OH246860   1.244   4.048  12.407  0.4778  0.4510 -0.2814
 8482TIP3    H146861   1.177   4.099  12.362  0.8615  0.6006 -0.6952
 8482TIP3    H246862   1.195   3.985  12.460  0.0150  0.5782 -0.5507
 8483TIP3   OH246863   2.283   1.651   4.646 -0.7330  0.0207  0.3232
 8483TIP3    H146864   2.348   1.593   4.686  0.7361  1.3377 -0.0406
 8483TIP3    H246865   2.234   1.595   4.586  0.6790 -0.8471 -0.0669
 8484TIP3   OH246866   3.388   1.474   2.021  0.2992  0.6421 -0.0313
 8484TIP3    H146867   3.422   1.390   2.052  1.9991  1.0549 -0.6257
 8484TIP3    H246868   3.447   1.498   1.949 -0.6667  1.9372 -0.4343
 8485TIP3   OH246869   3.941   6.059   2.477 -0.1550  0.3967  0.1301
 8485TIP3    H146870   3.889   5.980   2.469  0.2667  0.1219  0.0999
 8485TIP3    H246871   3.969   6.061   2.568 -0.5516  0.7588  0.2503
 8486TIP3   OH246872   4.687   3.950   4.242 -0.0144 -0.1105  0.7260
 8486TIP3    H146873   4.648   3.990   4.320  0.6831  0.7221  0.6599
 8486TIP3    H246874   4.642   3.867   4.233  0.6083 -0.6999  2.6259
 8487TIP3   OH246875   5.780   5.580  15.778  0.1835 -0.7649 -0.6949
 8487TIP3    H146876   5.719   5.565  15.706  0.7470  0.6509 -1.4938
 8487TIP3    H246877   5.821   5.664  15.759  0.1436 -0.2036  1.4389
 8488TIP3   OH246878   0.649   1.561  15.818  0.5401 -0.0746 -0.0683
 8488TIP3    H146879   0.565   1.543  15.774 -1.3397  2.2308  2.2051
 8488TIP3    H246880   0.652   1.498  15.890  1.8256 -1.4621 -1.2791
 8489TIP3   OH246881   1.754   0.232  10.619 -0.1038 -0.0991 -0.0596
 8489TIP3    H146882   1.781   0.206  10.531  0.8934  0.1225  0.1786
 8489TIP3    H246883   1.751   0.327  10.616 -1.0566 -0.1210 -0.1329
 8490TIP3   OH246884   0.137   1.300  13.453 -0.0194  0.4395 -0.4067
 8490TIP3    H146885   0.058   1.299  13.399  0.0033 -0.3604 -0.4373
 8490TIP3    H246886   0.104   1.301  13.543 -0.1025 -1.4489 -0.3812
 8491TIP3   OH246887   5.785   3.736   3.120 -0.1258  0.3349  0.6846
 8491TIP3    H146888   5.862   3.793   3.109 -0.7781  1.1060 -0.0307
 8491TIP3    H246889   5.711   3.797   3.124 -0.7238 -0.4105  1.1962
 8492TIP3   OH246890   4.975   3.643  11.169  1.0495  0.2274  0.6191
 8492TIP3    H146891   4.918   3.571  11.142  0.1882  0.8176  0.8069
 8492TIP3    H246892   4.939   3.670  11.254  0.4128  1.8390 -0.1202
 8493TIP3   OH246893   0.823   3.283   6.051  0.3777 -0.2242 -0.6834
 8493TIP3    H146894   0.882   3.294   6.125  0.1681 -1.1475 -0.3611
 8493TIP3    H246895   0.758   3.220   6.082  0.0542 -0.3077 -1.5168
 8494TIP3   OH246896   2.229   1.620   5.246  0.1782 -0.4573 -0.1829
 8494TIP3    H146897   2.145   1.655   5.276  0.0883 -1.2954  0.6076
 8494TIP3    H246898   2.290   1.693   5.254 -0.0467 -0.3910  1.2306
 8495TIP3   OH246899   3.937   1.086   4.864 -0.0678 -0.0774 -0.2248
 8495TIP3    H146900   3.903   1.166   4.824  1.0730  0.4930 -0.0852
 8495TIP3    H246901   4.019   1.112   4.906  0.0433 -1.2035  0.3062
 8496TIP3   OH246902   5.256   6.674   5.892 -0.1127 -0.1011 -0.4300
 8496TIP3    H146903   5.313   6.598   5.905 -0.8200 -0.3925  1.0806
 8496TIP3    H246904   5.317   6.746   5.871  0.7231 -0.6377  0.1148
 8497TIP3   OH246905   3.582   6.000   1.944 -0.0022 -0.1080 -0.2012
 8497TIP3    H146906   3.527   5.991   1.866 -1.9891 -0.4993  1.1668
 8497TIP3    H246907   3.533   6.060   2.001  0.3891 -1.3808  1.5466
 8498TIP3   OH246908   6.450   0.419  14.590  0.8016 -0.1626 -0.0608
 8498TIP3    H146909   6.384   0.470  14.636  1.2530  0.0554  0.3579
 8498TIP3    H246910   6.463   0.341  14.644 -0.4817 -1.1440 -1.1202
 8499TIP3   OH246911   1.964   3.607  13.085  0.1252 -0.0250 -0.5659
 8499TIP3    H146912   1.924   3.649  13.161 -0.3285  0.3824 -1.0201
 8499TIP3    H246913   1.950   3.669  13.013  1.5018  0.0860 -0.7604
 8500TIP3   OH246914   4.305   4.596   2.818 -0.4391 -0.1231  0.4619
 8500TIP3    H146915   4.265   4.674   2.782 -0.0612  0.2488  0.8340
 8500TIP3    H246916   4.253   4.576   2.897  0.9908  1.2569  1.8282
 8501TIP3   OH246917   1.179   5.252  13.620 -0.2430  0.1549  0.4288
 8501TIP3    H146918   1.121   5.264  13.695 -0.0639  1.2574  0.4054
 8501TIP3    H246919   1.149   5.171  13.579  0.5733 -1.2825  2.4955
 8502TIP3   OH246920   6.364   5.936   1.980  0.3420  0.0989  0.4008
 8502TIP3    H146921   6.413   5.858   2.007  0.0961 -0.1261  0.2079
 8502TIP3    H246922   6.379   5.941   1.886  0.3141  0.2530  0.4055
 8503TIP3   OH246923   6.352   4.541  14.500 -0.2354  0.0113 -0.5654
 8503TIP3    H146924   6.384   4.521  14.411  0.1234  0.4117 -0.5287
 8503TIP3    H246925   6.425   4.585  14.542 -0.3509 -0.3225 -0.0109
 8504TIP3   OH246926   4.068   6.222  11.145 -0.5961 -0.1460  0.3222
 8504TIP3    H146927   4.042   6.267  11.224  0.5255  0.2318  0.4941
 8504TIP3    H246928   4.104   6.290  11.088  0.7281 -0.7290  0.4173
 8505TIP3   OH246929   3.621   4.024  10.487 -0.1211 -0.2492 -0.1995
 8505TIP3    H146930   3.678   4.022  10.564 -0.5524  0.4156  0.1534
 8505TIP3    H246931   3.677   3.997  10.415  0.6159  0.2917  0.1550
 8506TIP3   OH246932   5.899   3.848  13.869 -0.6869  0.8491  0.0737
 8506TIP3    H146933   5.986   3.886  13.861 -0.3924  0.0383 -0.7831
 8506TIP3    H246934   5.850   3.910  13.924  0.1160  1.8330 -0.2963
 8507TIP3   OH246935   3.405   3.834   1.623  0.5069 -0.5755  0.3665
 8507TIP3    H146936   3.456   3.902   1.667  0.5764  0.4499 -1.2188
 8507TIP3    H246937   3.471   3.780   1.580  0.5334 -2.3918  2.5243
 8508TIP3   OH246938   3.906   2.395   4.740  0.0583 -0.3971 -0.0365
 8508TIP3    H146939   3.939   2.411   4.651 -2.4201  0.0769 -0.9595
 8508TIP3    H246940   3.950   2.461   4.794  1.4613 -0.5607 -0.9270
 8509TIP3   OH246941   3.364   0.019   1.749 -0.6776  0.2693 -0.2841
 8509TIP3    H146942   3.349   0.097   1.696 -1.2177 -1.2018 -2.4754
 8509TIP3    H246943   3.410   0.050   1.827  0.8154  2.4954 -1.9327
 8510TIP3   OH246944   5.996   6.652  14.935 -0.6257  0.6455 -0.1213
 8510TIP3    H146945   5.982   6.716  15.005 -0.1655  0.0697  0.5171
 8510TIP3    H246946   6.064   6.690  14.880 -1.1663  1.2161 -0.4036
 8511TIP3   OH246947   6.431   5.119   5.192  0.0544 -0.4997 -0.0686
 8511TIP3    H146948   6.428   5.164   5.107 -0.1545 -0.1817  0.1040
 8511TIP3    H246949   6.368   5.048   5.184 -1.2562  0.5619  0.3893
 8512TIP3   OH246950   3.116   4.213   4.254 -0.0629 -0.0261  0.7281
 8512TIP3    H146951   3.091   4.302   4.230 -2.2130 -1.0389 -1.1814
 8512TIP3    H246952   3.045   4.158   4.221  1.8238 -2.5985  0.6192
 8513TIP3   OH246953   5.479   3.870  12.495 -0.7289 -0.7113  0.1185
 8513TIP3    H146954   5.516   3.957  12.509 -0.8229 -0.8378  1.2914
 8513TIP3    H246955   5.553   3.810  12.506 -1.1718 -0.9513  2.2819
 8514TIP3   OH246956   3.501   0.958  14.563  0.1500  0.1314 -0.2750
 8514TIP3    H146957   3.552   0.949  14.644  1.9227 -0.8470 -1.4102
 8514TIP3    H246958   3.477   0.868  14.540 -0.0678  0.3569 -0.9637
 8515TIP3   OH246959   6.247   2.521   6.163  0.1909  0.1876  0.3639
 8515TIP3    H146960   6.257   2.541   6.256  2.1705 -2.2016  0.7736
 8515TIP3    H246961   6.336   2.522   6.128 -0.4695  0.5225 -1.4006
 8516TIP3   OH246962   0.774   2.853  14.211 -0.2973 -0.4484  0.1938
 8516TIP3    H146963   0.765   2.893  14.124 -0.2164 -0.3369  0.2358
 8516TIP3    H246964   0.685   2.828  14.235 -0.4759  0.4711  0.5234
 8517TIP3   OH246965   5.716   0.974  14.836  0.1158  0.3961  0.3267
 8517TIP3    H146966   5.778   1.028  14.788 -0.7168 -0.6986 -2.1085
 8517TIP3    H246967   5.659   1.037  14.881  0.9450  1.4685 -0.0835
 8518TIP3   OH246968   5.907   5.209  13.658 -0.6686 -0.8335  0.4356
 8518TIP3    H146969   5.880   5.228  13.568 -0.4939  1.9342  0.9026
 8518TIP3    H246970   5.986   5.261  13.672 -0.0415 -2.0736  1.8747
 8519TIP3   OH246971   4.650   0.582   3.496 -0.6931  0.2135  0.1265
 8519TIP3    H146972   4.678   0.666   3.531 -0.0305  0.6010 -1.2739
 8519TIP3    H246973   4.728   0.527   3.500 -0.8312  0.0071  0.0323
 8520TIP3   OH246974   1.499   6.260   1.983  0.2460 -0.3974  1.2385
 8520TIP3    H146975   1.452   6.226   1.906  2.3598  0.1235 -0.3856
 8520TIP3    H246976   1.460   6.214   2.057 -2.0681 -0.7622 -0.0832
 8521TIP3   OH246977   2.159   0.221  11.389  0.4794  0.0547 -0.3184
 8521TIP3    H146978   2.085   0.174  11.352  0.6124  0.4765 -1.1375
 8521TIP3    H246979   2.235   0.193  11.337  0.9404 -0.5300  0.6420
 8522TIP3   OH246980   3.912   2.204   5.576  0.0220  0.0664  0.3322
 8522TIP3    H146981   3.973   2.135   5.551  0.4422  0.5120  0.0947
 8522TIP3    H246982   3.892   2.249   5.493  0.3514  0.7015  0.5877
 8523TIP3   OH246983   1.805   1.208  16.184 -0.0640  0.3213 -0.0721
 8523TIP3    H146984   1.827   1.116  16.166  0.1586  0.2478  0.5584
 8523TIP3    H246985   1.889   1.253  16.184  0.0880  0.1334  1.8103
 8524TIP3   OH246986   1.212   5.773  13.963  0.5715  0.0066 -0.3928
 8524TIP3    H146987   1.269   5.714  14.011  1.0220  0.3601 -0.4840
 8524TIP3    H246988   1.232   5.755  13.871 -1.1650 -1.5539 -0.5416
 8525TIP3   OH246989   3.422   0.503   3.378  0.7665  0.4461 -0.4871
 8525TIP3    H146990   3.380   0.491   3.293 -0.8823 -2.9616  0.6060
 8525TIP3    H246991   3.495   0.441   3.377  1.1375  0.8594  0.3564
 8526TIP3   OH246992   2.157   4.657   3.345  0.4242 -0.3288  0.4250
 8526TIP3    H146993   2.068   4.675   3.377  0.4039  0.6652 -0.1413
 8526TIP3    H246994   2.143   4.611   3.262  0.2022  4.0238 -2.2749
 8527TIP3   OH246995   6.180   2.954  16.584 -0.1604  0.4119 -0.6205
 8527TIP3    H146996   6.250   2.892  16.604 -0.8128 -0.3244 -0.5703
 8527TIP3    H246997   6.114   2.902  16.538 -0.1478  1.3573 -1.7689
 8528TIP3   OH246998   0.581   1.298  12.612 -0.1649 -0.5224  0.0113
 8528TIP3    H146999   0.493   1.328  12.635 -0.0092 -0.6636  0.7983
 8528TIP3    H247000   0.636   1.376  12.621 -0.3844 -0.1183 -1.6593
 8529TIP3   OH247001   0.822   6.618   3.520 -0.1640 -0.2017 -0.0291
 8529TIP3    H147002   0.805   6.634   3.612 -0.2622  2.1770 -0.4019
 8529TIP3    H247003   0.917   6.627   3.511 -0.3409  1.7269 -0.4574
 8530TIP3   OH247004   0.408   1.058  12.387 -0.0722 -0.1357 -0.0221
 8530TIP3    H147005   0.427   1.038  12.479  1.4086  0.1863 -0.2242
 8530TIP3    H247006   0.383   0.974  12.349 -0.3910 -0.3296  0.6037
 8531TIP3   OH247007   4.768   2.208   3.081 -0.5202  0.0137 -0.8080
 8531TIP3    H147008   4.838   2.170   3.132 -0.9120  0.0186 -0.2579
 8531TIP3    H247009   4.783   2.303   3.085 -1.0776  0.0791  0.0993
 8532TIP3   OH247010   5.340   6.002   0.378  0.1292  0.2876  0.7450
 8532TIP3    H147011   5.397   6.038   0.310  1.1880  0.6830  1.8069
 8532TIP3    H247012   5.317   6.077   0.433  0.0277 -0.1625  1.3323
 8533TIP3   OH247013   5.177   4.609   5.419  0.0044  0.1325  0.1774
 8533TIP3    H147014   5.262   4.573   5.393 -0.2292 -0.8423  0.7117
 8533TIP3    H247015   5.159   4.569   5.504 -1.6855 -0.8638 -0.6065
 8534TIP3   OH247016   0.118   6.072  15.067  0.3039  0.3659  0.2945
 8534TIP3    H147017   0.136   6.165  15.073  1.2316  0.1326  1.5119
 8534TIP3    H247018   0.132   6.051  14.975  2.0185  1.0715  0.3577
 8535TIP3   OH247019   2.443   3.187  11.438 -0.4608 -0.5033 -0.0227
 8535TIP3    H147020   2.505   3.132  11.391 -2.3327 -1.5012 -1.5132
 8535TIP3    H247021   2.491   3.220  11.513  1.7975 -1.2915 -1.0357
 8536TIP3   OH247022   6.415   3.629   1.744  0.2943  0.0927  0.0613
 8536TIP3    H147023   6.345   3.631   1.809 -1.0967 -1.9538 -1.2765
 8536TIP3    H247024   6.387   3.689   1.675  0.4881  0.2357  0.1042
 8537TIP3   OH247025   0.562   5.354   5.758  0.0627 -0.5861 -0.8624
 8537TIP3    H147026   0.495   5.348   5.689 -0.4201  0.5558 -0.5138
 8537TIP3    H247027   0.558   5.445   5.787 -0.4802 -1.2616  1.3820
 8538TIP3   OH247028   5.804   2.051   3.923 -0.0207  0.3953 -0.4305
 8538TIP3    H147029   5.833   2.059   3.832  0.8086 -1.4091 -0.3618
 8538TIP3    H247030   5.875   2.088   3.975  0.5439 -0.6380 -0.4388
 8539TIP3   OH247031   6.025   2.799  16.421  0.1957 -0.1436  0.4220
 8539TIP3    H147032   5.965   2.728  16.399 -0.3871  0.0170  1.4589
 8539TIP3    H247033   6.112   2.762  16.406 -0.1256 -0.4102 -0.9957
 8540TIP3   OH247034   3.501   5.374  14.997 -0.1172  0.8360  0.1256
 8540TIP3    H147035   3.426   5.336  14.951  0.1150  2.9290 -2.1894
 8540TIP3    H247036   3.554   5.298  15.022 -1.5835 -0.5384 -0.7204
 8541TIP3   OH247037   6.085   6.463  14.730  0.8041 -0.5932 -0.2597
 8541TIP3    H147038   6.107   6.381  14.773  0.0882 -0.6307  0.0595
 8541TIP3    H247039   6.051   6.519  14.800  4.6486  1.3471  0.2885
 8542TIP3   OH247040   6.434   2.423  14.832  0.1661 -0.8076 -0.2756
 8542TIP3    H147041   6.485   2.420  14.912 -0.7487 -1.6279  0.2993
 8542TIP3    H247042   6.488   2.473  14.771  1.9438 -2.1792  0.0939
 8543TIP3   OH247043   1.645   3.280  11.094  0.0461  0.0302  0.3648
 8543TIP3    H147044   1.685   3.232  11.166  1.6240 -3.4448 -2.4852
 8543TIP3    H247045   1.719   3.326  11.052 -0.5747  0.7564  0.0380
 8544TIP3   OH247046   1.874   1.593  13.915  0.0480 -0.1276 -0.8546
 8544TIP3    H147047   1.802   1.630  13.967 -0.2875  0.3148 -1.6118
 8544TIP3    H247048   1.831   1.528  13.859  0.1222  0.5988 -1.7712
 8545TIP3   OH247049   0.929   4.488  15.172  0.2363  0.3081  0.0230
 8545TIP3    H147050   1.013   4.527  15.194  0.2401  0.8539 -0.9075
 8545TIP3    H247051   0.941   4.395  15.185  1.7874  0.0694 -2.4322
 8546TIP3   OH247052   6.027   4.270   3.184  0.4889  0.2561 -0.0120
 8546TIP3    H147053   6.061   4.192   3.229  1.3007 -0.3518 -1.6244
 8546TIP3    H247054   5.940   4.244   3.155  0.4606  0.2137  0.1100
 8547TIP3   OH247055   5.333   4.427   2.789  0.4713  0.5349 -0.2403
 8547TIP3    H147056   5.338   4.394   2.878  0.5864  1.1353 -0.0225
 8547TIP3    H247057   5.418   4.468   2.773  0.9434 -0.6984 -1.0830
 8548TIP3   OH247058   5.099   3.304  16.062  0.4387 -0.0103  0.6258
 8548TIP3    H147059   5.099   3.336  15.972 -1.4233  0.0913  0.6283
 8548TIP3    H247060   5.063   3.377  16.113  0.3408 -0.5059  1.2733
 8549TIP3   OH247061   2.784   4.615  10.395 -0.0060 -0.1861 -0.3851
 8549TIP3    H147062   2.790   4.555  10.470 -2.1764 -0.6206 -0.4792
 8549TIP3    H247063   2.868   4.605  10.350  0.6330 -1.3130  0.9525
 8550TIP3   OH247064   3.636   0.575   0.913 -0.1668 -0.4127 -0.2763
 8550TIP3    H147065   3.558   0.529   0.883 -0.4592  0.4307 -0.8736
 8550TIP3    H247066   3.700   0.561   0.843 -0.1682 -0.1470 -0.3322
 8551TIP3   OH247067   4.231   1.076  15.285 -0.3937  0.5499 -0.2787
 8551TIP3    H147068   4.314   1.100  15.325 -0.6924 -2.1593  2.3343
 8551TIP3    H247069   4.164   1.113  15.343 -1.0532  1.4470 -1.5437
 8552TIP3   OH247070   5.501   2.761   3.518  0.5283  0.1909 -0.3589
 8552TIP3    H147071   5.581   2.715   3.542  0.3504 -0.1387 -0.3909
 8552TIP3    H247072   5.487   2.739   3.426  0.3420  0.1627 -0.3234
 8553TIP3   OH247073   4.991   2.609   0.324  0.6290 -0.0652  0.3231
 8553TIP3    H147074   4.963   2.666   0.395 -0.3878  2.9598 -2.2590
 8553TIP3    H247075   5.084   2.628   0.313  0.9440 -1.0219  1.1871
 8554TIP3   OH247076   5.683   5.331   0.921  0.5238  0.0538  0.1300
 8554TIP3    H147077   5.684   5.250   0.972 -0.1830 -1.2734 -1.8310
 8554TIP3    H247078   5.674   5.302   0.831 -4.4086  2.3196 -0.4426
 8555TIP3   OH247079   4.818   0.188  14.360  0.1945 -0.1012 -0.1224
 8555TIP3    H147080   4.837   0.206  14.268 -1.3418 -0.9462 -0.6509
 8555TIP3    H247081   4.831   0.272  14.404 -0.3461  0.6554 -1.3525
 8556TIP3   OH247082   4.191   0.742  16.168  0.0495 -0.3585  0.4945
 8556TIP3    H147083   4.139   0.793  16.105  0.2208  1.1364  1.5294
 8556TIP3    H247084   4.273   0.725  16.122  0.5332  1.5092  0.5954
 8557TIP3   OH247085   6.408   2.674   4.267 -0.2497  0.1726 -0.3016
 8557TIP3    H147086   6.469   2.717   4.207 -1.3730  1.4863 -0.5606
 8557TIP3    H247087   6.334   2.735   4.274 -0.6306 -0.4427  1.5934
 8558TIP3   OH247088   1.730   5.954  11.271  0.1665  0.2902  0.1954
 8558TIP3    H147089   1.723   6.048  11.287 -0.0384  0.3960 -0.5007
 8558TIP3    H247090   1.744   5.946  11.177 -0.5657 -0.4094  0.1319
 8559TIP3   OH247091   3.163   6.467   4.736 -0.5256 -0.2335  0.3768
 8559TIP3    H147092   3.099   6.432   4.798 -0.0208  0.7432  1.4700
 8559TIP3    H247093   3.208   6.537   4.784  0.6997 -0.2558 -0.6856
 8560TIP3   OH247094   4.127   6.421   2.995  0.2308  0.0231  0.1014
 8560TIP3    H147095   4.041   6.419   3.038  0.3369  1.3230  0.4185
 8560TIP3    H247096   4.118   6.488   2.927  0.4059 -1.2321 -1.2027
 8561TIP3   OH247097   6.465   1.959   4.754  0.8034  0.6166 -0.3034
 8561TIP3    H147098   6.556   1.981   4.735  0.3171  1.3433 -1.8915
 8561TIP3    H247099   6.416   1.989   4.678 -0.5261 -1.6458 -0.4054
 8562TIP3   OH247100   2.420   0.879  11.131  0.3709 -1.0162  0.1371
 8562TIP3    H147101   2.486   0.940  11.166 -0.9936  0.0110  1.0079
 8562TIP3    H247102   2.449   0.863  11.041  0.2397  1.8050 -0.5104
 8563TIP3   OH247103   6.408   1.761  15.574  0.1118  0.5465 -0.0127
 8563TIP3    H147104   6.369   1.757  15.662  0.5427  2.1155  0.2951
 8563TIP3    H247105   6.342   1.804  15.521  0.3205  0.6898 -0.1587
 8564TIP3   OH247106   0.198   3.389   1.501  0.2492  0.1954  0.4192
 8564TIP3    H147107   0.158   3.472   1.529  0.4393  0.2781  0.4441
 8564TIP3    H247108   0.155   3.323   1.555  0.6375  0.3578  0.9351
 8565TIP3   OH247109   6.313   1.704  16.439 -0.0037 -0.1728 -0.0039
 8565TIP3    H147110   6.220   1.729  16.436  0.1734  0.5288 -2.8462
 8565TIP3    H247111   6.317   1.633  16.503 -2.4462 -0.0048  0.4308
 8566TIP3   OH247112   6.473   4.031  12.881 -0.7343 -0.4695 -0.4810
 8566TIP3    H147113   6.522   3.969  12.827 -0.5617  0.7353 -1.7482
 8566TIP3    H247114   6.415   4.076  12.820 -2.9246 -1.3099  0.8539
 8567TIP3   OH247115   1.664   2.769  12.047 -0.2993  0.1011  0.1606
 8567TIP3    H147116   1.647   2.853  12.088  0.7113  1.4709 -2.0492
 8567TIP3    H247117   1.637   2.704  12.112 -1.3452  2.1093  1.8199
 8568TIP3   OH247118   3.120   0.111   3.347  0.6674 -0.4903  0.2451
 8568TIP3    H147119   3.162   0.177   3.403 -2.0635  0.0005  1.9125
 8568TIP3    H247120   3.031   0.143   3.335  0.0695 -2.5214 -1.2576
 8569TIP3   OH247121   3.243   2.499  10.963 -0.5938  0.8264 -0.0144
 8569TIP3    H147122   3.315   2.554  10.933  1.6647 -1.6431  0.4093
 8569TIP3    H247123   3.195   2.476  10.883  1.2413 -0.2506 -0.8661
 8570TIP3   OH247124   0.993   5.978  15.963 -0.6408  0.1206 -0.2078
 8570TIP3    H147125   1.048   5.958  15.886 -1.2251 -0.1054 -0.5744
 8570TIP3    H247126   0.922   5.914  15.958 -1.0278  0.5199  0.1700
 8571TIP3   OH247127   0.811   6.707  12.110 -0.2949  0.2352 -0.8829
 8571TIP3    H147128   0.722   6.682  12.133 -0.1508  1.5557  1.4709
 8571TIP3    H247129   0.844   6.751  12.188  2.1767  0.4519 -1.9557
 8572TIP3   OH247130   4.552   3.222   1.940 -0.0533 -0.0333  0.0823
 8572TIP3    H147131   4.459   3.235   1.957  0.0195 -0.7224  1.0484
 8572TIP3    H247132   4.566   3.128   1.951  0.5744 -0.0923 -1.0253
 8573TIP3   OH247133   4.822   6.525  14.167  0.2826  0.0347 -0.1531
 8573TIP3    H147134   4.903   6.539  14.118  0.9431 -0.7756  0.6520
 8573TIP3    H247135   4.844   6.456  14.231 -1.0410 -0.2001  0.0906
 8574TIP3   OH247136   5.998   0.230  14.890 -0.6457  0.5559 -0.3115
 8574TIP3    H147137   5.994   0.233  14.985  0.3053  1.1259 -0.2743
 8574TIP3    H247138   5.923   0.176  14.864 -0.1857 -0.6957  0.8270
 8575TIP3   OH247139   5.321   1.294  14.574 -0.4146  0.4723  0.1235
 8575TIP3    H147140   5.281   1.372  14.536  1.2585  1.8195  0.9593
 8575TIP3    H247141   5.262   1.268  14.645 -1.2369  0.6892 -0.4803
 8576TIP3   OH247142   0.399   2.518   4.944 -0.0533 -0.2596  0.4146
 8576TIP3    H147143   0.369   2.484   5.029  0.7593 -0.6302  0.5642
 8576TIP3    H247144   0.429   2.440   4.897 -0.5649 -0.0615 -0.2387
 8577TIP3   OH247145   3.134   5.379   1.195 -0.3692  0.1175 -0.1503
 8577TIP3    H147146   3.076   5.411   1.265 -1.2925  0.1455 -0.9059
 8577TIP3    H247147   3.111   5.433   1.119 -0.3566 -0.8411 -0.8428
 8578TIP3   OH247148   2.582   2.360  11.397  0.2316  0.2309  0.5009
 8578TIP3    H147149   2.664   2.309  11.398  1.0218  1.4537  0.2575
 8578TIP3    H247150   2.573   2.387  11.306  0.7647  1.9553  0.9229
 8579TIP3   OH247151   2.619   3.555  11.991 -0.3602  0.1288  0.1373
 8579TIP3    H147152   2.636   3.570  11.898  2.0812  1.1768  0.6726
 8579TIP3    H247153   2.690   3.497  12.020 -1.2730 -0.4542  1.2899
 8580TIP3   OH247154   5.895   5.885   4.605  0.0519 -0.0899  0.0205
 8580TIP3    H147155   5.924   5.896   4.514  0.2809  2.7071  0.3333
 8580TIP3    H247156   5.800   5.885   4.600  0.0496 -2.0065 -0.3701
 8581TIP3   OH247157   3.467   0.295   3.720 -0.0478 -0.6509  0.0578
 8581TIP3    H147158   3.543   0.286   3.778 -1.2027 -0.6506  1.6393
 8581TIP3    H247159   3.400   0.239   3.758 -0.8148 -0.7867 -1.4034
 8582TIP3   OH247160   4.718   4.643   3.938  0.4119  0.2581 -0.1986
 8582TIP3    H147161   4.624   4.657   3.953  0.4598  1.0843 -0.6052
 8582TIP3    H247162   4.721   4.590   3.859  0.2794  0.1163 -0.1088
 8583TIP3   OH247163   6.478   0.799   3.989  0.3549 -0.1309 -0.2142
 8583TIP3    H147164   6.449   0.806   4.081 -1.1351 -1.8008 -0.4940
 8583TIP3    H247165   6.402   0.828   3.938  2.4421  4.8865 -1.0643
 8584TIP3   OH247166   2.769   0.582   6.299  0.0814  0.4091  0.2548
 8584TIP3    H147167   2.786   0.521   6.228 -0.3639  1.3992 -0.7414
 8584TIP3    H247168   2.851   0.631   6.310 -0.1537  0.9250 -0.2594
 8585TIP3   OH247169   6.432   2.934   3.173 -0.8978 -0.1613 -0.1244
 8585TIP3    H147170   6.430   2.963   3.082 -1.6784 -0.4173 -0.2032
 8585TIP3    H247171   6.525   2.932   3.196 -0.4798 -2.3647 -1.6747
 8586TIP3   OH247172   0.878   1.104  12.094  0.2817 -0.5766  0.1511
 8586TIP3    H147173   0.840   1.019  12.116  1.9369 -1.2957  0.3779
 8586TIP3    H247174   0.849   1.120  12.004 -1.0182 -0.7921  0.5043
 8587TIP3   OH247175   4.123   6.257   5.124  0.5893  0.0709 -0.4154
 8587TIP3    H147176   4.089   6.303   5.201  1.6329  0.9075 -0.4309
 8587TIP3    H247177   4.185   6.319   5.085  1.6217 -1.1362 -0.7476
 8588TIP3   OH247178   5.587   2.960  15.890  0.0122  0.2687  0.0062
 8588TIP3    H147179   5.662   2.904  15.911 -0.1609  0.1919  0.4314
 8588TIP3    H247180   5.519   2.900  15.861 -0.4357  0.1758  1.2138
 8589TIP3   OH247181   3.760   2.810   3.472 -0.2342 -0.2206  0.0407
 8589TIP3    H147182   3.823   2.879   3.449 -0.1291 -0.7956 -1.4825
 8589TIP3    H247183   3.693   2.815   3.404 -1.5712  0.0033  1.3208
 8590TIP3   OH247184   2.361   3.896  14.095 -0.2174  0.0206 -0.0708
 8590TIP3    H147185   2.351   3.981  14.051  2.4625  0.5135  0.1053
 8590TIP3    H247186   2.422   3.848  14.039 -1.8978 -1.9582 -0.3044
 8591TIP3   OH247187   4.768   5.631  11.854 -0.2917 -0.2119 -0.1551
 8591TIP3    H147188   4.713   5.598  11.783 -0.8395  1.6230 -0.6571
 8591TIP3    H247189   4.707   5.650  11.925  0.0421 -0.5655  0.2276
 8592TIP3   OH247190   4.529   5.541  16.744 -0.1377 -0.3772 -0.9315
 8592TIP3    H147191   4.436   5.529  16.761  0.3282 -0.9625  1.6127
 8592TIP3    H247192   4.559   5.455  16.714 -0.1443 -0.6061 -0.2896
 8593TIP3   OH247193   1.618   6.648  12.283 -0.0846 -0.0901 -0.3497
 8593TIP3    H147194   1.591   6.711  12.217  0.9293  0.4842 -0.2233
 8593TIP3    H247195   1.714   6.646  12.278 -0.0899 -1.9608 -0.6744
 8594TIP3   OH247196   6.577   0.025  10.539 -0.5944  0.4465 -0.0224
 8594TIP3    H147197   6.573   0.010  10.633  0.2833 -1.4030 -0.2313
 8594TIP3    H247198   6.641  -0.039  10.507 -0.6031  1.2694 -1.8321
 8595TIP3   OH247199   3.107   1.424   1.196  0.3465 -0.0927  0.0970
 8595TIP3    H147200   3.065   1.339   1.185 -0.9025  0.2079  1.9667
 8595TIP3    H247201   3.145   1.421   1.285  0.7871  1.0896 -0.0288
 8596TIP3   OH247202   6.037   0.993   1.373 -0.0264  0.6023  0.0477
 8596TIP3    H147203   6.121   1.037   1.385  0.1448  0.4343 -0.4928
 8596TIP3    H247204   6.059   0.908   1.334 -0.3373 -0.0629  1.2720
 8597TIP3   OH247205   4.904   3.621   1.237 -0.2252  0.2864  0.0203
 8597TIP3    H147206   4.955   3.620   1.318 -0.4068  0.2806  0.1355
 8597TIP3    H247207   4.927   3.704   1.196 -0.6741  0.6257  0.4307
 8598TIP3   OH247208   5.369   4.016   2.190 -0.1269  0.2239 -0.2537
 8598TIP3    H147209   5.379   3.954   2.262 -0.7313 -0.6349 -0.8954
 8598TIP3    H247210   5.302   4.077   2.221 -0.4145 -0.1675 -0.0908
 8599TIP3   OH247211   3.296   4.753  10.663 -0.4932 -0.2691  0.2573
 8599TIP3    H147212   3.345   4.835  10.663 -1.9384  0.6264  0.2239
 8599TIP3    H247213   3.361   4.687  10.640  0.5676  0.9475 -0.4158
 8600TIP3   OH247214   4.722   5.129   2.918 -0.0890  0.0206 -0.2306
 8600TIP3    H147215   4.668   5.199   2.880  0.6406  0.0852 -1.1610
 8600TIP3    H247216   4.782   5.175   2.977  0.6528  0.2354 -1.1382
 8601TIP3   OH247217   4.614   2.295   1.277 -0.3948  0.4309  0.0507
 8601TIP3    H147218   4.629   2.384   1.245 -0.5702  0.7849  0.9329
 8601TIP3    H247219   4.589   2.306   1.369  1.4418 -0.6411  0.7347
 8602TIP3   OH247220   0.192   0.944   4.086 -0.0863  0.5574  0.5951
 8602TIP3    H147221   0.148   0.874   4.039  1.4152  0.2402 -0.4067
 8602TIP3    H247222   0.129   0.971   4.153 -1.4352 -0.4395 -0.2144
 8603TIP3   OH247223   3.696   0.193   2.271  0.3534  0.3810 -0.1109
 8603TIP3    H147224   3.605   0.182   2.243  0.4419 -0.0714 -0.2283
 8603TIP3    H247225   3.719   0.109   2.311  0.9753  0.2074 -0.8186
 8604TIP3   OH247226   3.020   2.928   1.049  0.0245 -0.4123  0.3462
 8604TIP3    H147227   2.927   2.943   1.031 -0.4031 -3.0484  0.0102
 8604TIP3    H247228   3.052   2.879   0.974  1.1009 -1.5078  1.4568
 8605TIP3   OH247229   4.365   2.870  12.498 -0.3674  0.8041 -0.0408
 8605TIP3    H147230   4.413   2.941  12.458  1.2909 -0.8498 -1.1159
 8605TIP3    H247231   4.326   2.822  12.425 -0.9666  0.2471  0.6187
 8606TIP3   OH247232   2.123   6.078   1.595  0.5361  0.1590 -0.5599
 8606TIP3    H147233   2.131   6.107   1.504 -2.2887 -0.8431 -1.2315
 8606TIP3    H247234   2.047   6.126   1.629  1.5472  0.5275  1.3230
 8607TIP3   OH247235   4.816   6.521  17.073 -0.0493  0.2290 -0.9009
 8607TIP3    H147236   4.898   6.543  17.028  0.8284  1.0961  0.9982
 8607TIP3    H247237   4.771   6.604  17.083 -0.6344 -0.0807 -0.9355
 8608TIP3   OH247238   1.860   3.476  11.409  0.1992  0.3069  0.3597
 8608TIP3    H147239   1.794   3.419  11.450 -0.9513  1.0308 -0.4068
 8608TIP3    H247240   1.906   3.419  11.348  0.4568 -0.2661  1.0667
 8609TIP3   OH247241   3.514   1.950   4.041 -0.0126  0.0949  0.0319
 8609TIP3    H147242   3.456   1.914   4.108  0.4643  0.3940  0.6206
 8609TIP3    H247243   3.474   1.925   3.958 -0.4896 -0.4847  0.4285
 8610TIP3   OH247244   0.809   2.431  11.108  0.3871 -0.0293 -0.0890
 8610TIP3    H147245   0.746   2.394  11.047  1.3367 -0.1384 -1.0338
 8610TIP3    H247246   0.843   2.356  11.156  1.2203 -0.2284 -0.9607
 8611TIP3   OH247247   1.693   5.572  15.444 -0.0771  0.2331 -0.1105
 8611TIP3    H147248   1.653   5.609  15.522  0.2498 -1.6766  1.0237
 8611TIP3    H247249   1.623   5.522  15.402  0.5143 -1.3803  0.7416
 8612TIP3   OH247250   1.009   4.717   5.786 -0.0801  0.8441  0.1507
 8612TIP3    H147251   0.988   4.808   5.762  0.6184  0.8193 -0.6317
 8612TIP3    H247252   0.936   4.689   5.840 -0.7214  1.6034 -0.2964
 8613TIP3   OH247253   1.500   1.096   2.123 -0.1558  0.1477 -0.3453
 8613TIP3    H147254   1.528   1.057   2.040 -1.7121 -0.2247 -0.7367
 8613TIP3    H247255   1.578   1.095   2.178  0.7125 -0.3082 -1.5492
 8614TIP3   OH247256   6.435   0.491   4.069  0.3315  0.2790 -0.0684
 8614TIP3    H147257   6.372   0.422   4.089  1.5717 -0.4311  1.5211
 8614TIP3    H247258   6.517   0.463   4.109  0.9736  2.5105  0.3561
 8615TIP3   OH247259   0.199   4.184  13.322  0.3787 -0.0849  0.8323
 8615TIP3    H147260   0.177   4.253  13.259 -0.9316  0.1447  1.5146
 8615TIP3    H247261   0.294   4.188  13.329  0.3275  1.7481  0.9529
 8616TIP3   OH247262   5.092   5.637  14.880 -0.1520 -0.1910  0.9413
 8616TIP3    H147263   5.116   5.584  14.956  1.5833 -0.9002 -0.0208
 8616TIP3    H247264   5.165   5.698  14.870 -0.2896 -0.1851 -0.1953
 8617TIP3   OH247265   6.490   6.416   0.240 -0.0066  0.0991  0.3982
 8617TIP3    H147266   6.431   6.382   0.307 -1.4872 -0.5909 -1.1771
 8617TIP3    H247267   6.569   6.363   0.249 -1.4093 -2.2967 -0.4914
 8618TIP3   OH247268   2.412   2.566   2.782  0.6228 -0.6545 -0.1120
 8618TIP3    H147269   2.461   2.493   2.744  0.0346 -1.9165  1.4504
 8618TIP3    H247270   2.474   2.608   2.841  0.6514 -0.5544 -0.2145
 8619TIP3   OH247271   1.073   3.824  16.692  0.0008  0.0733 -0.8183
 8619TIP3    H147272   1.004   3.862  16.747  0.6644  1.2853 -0.8019
 8619TIP3    H247273   1.153   3.868  16.720  0.3645  0.7492 -2.7626
 8620TIP3   OH247274   5.511   0.066   0.874 -0.2713  0.0113 -0.1498
 8620TIP3    H147275   5.589   0.078   0.819 -0.4695  1.6394 -0.1209
 8620TIP3    H247276   5.443   0.037   0.814  0.1380 -0.6118 -0.3220
 8621TIP3   OH247277   1.799   5.739  16.457 -0.4312 -0.1992  0.3738
 8621TIP3    H147278   1.747   5.818  16.446 -0.7674 -0.4535  0.1107
 8621TIP3    H247279   1.879   5.768  16.501 -0.8876  0.1630  0.9800
 8622TIP3   OH247280   2.496   0.073  14.798  0.2163  0.3493  0.3923
 8622TIP3    H147281   2.511  -0.013  14.837 -1.7164  0.6768  2.0212
 8622TIP3    H247282   2.428   0.058  14.732  1.3939  0.3211 -0.8828
 8623TIP3   OH247283   3.061   4.011   3.657 -0.3615 -0.6293  0.1663
 8623TIP3    H147284   3.062   3.921   3.627  1.0041 -0.5852 -0.0043
 8623TIP3    H247285   3.006   4.011   3.735 -1.3784 -1.3513 -0.5294
 8624TIP3   OH247286   4.007   5.455  10.789 -0.5204  0.1960 -0.0906
 8624TIP3    H147287   4.092   5.499  10.785 -0.9185  0.9253 -1.0136
 8624TIP3    H247288   4.028   5.362  10.790  0.3515  0.3588  2.0020
 8625TIP3   OH247289   1.595   1.566   5.459  0.3866 -0.2692 -0.3924
 8625TIP3    H147290   1.518   1.562   5.403  1.7090  0.8424 -2.3805
 8625TIP3    H247291   1.582   1.494   5.521 -1.0254 -1.7472 -2.2651
 8626TIP3   OH247292   3.699   2.807  16.778 -0.6171 -0.3430  0.0703
 8626TIP3    H147293   3.746   2.744  16.724 -0.9757 -0.3798 -0.1992
 8626TIP3    H247294   3.610   2.771  16.787 -0.6968 -0.1041  0.2917
 8627TIP3   OH247295   4.653   1.731   3.784 -0.3193 -0.3456 -0.1534
 8627TIP3    H147296   4.662   1.793   3.856 -0.3681  0.8457 -1.1519
 8627TIP3    H247297   4.614   1.653   3.824 -1.9827  0.9182  0.8081
 8628TIP3   OH247298   2.017   6.599  16.493  0.0344 -0.1694 -0.4718
 8628TIP3    H147299   1.987   6.654  16.420 -0.7103 -1.1515 -0.9267
 8628TIP3    H247300   2.077   6.537  16.453 -3.2589 -3.2690 -1.1263
 8629TIP3   OH247301   5.571   5.441  13.936 -0.1697  0.4084  0.3117
 8629TIP3    H147302   5.594   5.534  13.927  1.5299 -0.1573 -2.3536
 8629TIP3    H247303   5.481   5.441  13.967 -1.1430  3.0290 -2.1172
 8630TIP3   OH247304   4.514   0.828  12.483 -0.0185  0.1531  0.2517
 8630TIP3    H147305   4.524   0.918  12.514  0.7537  0.4042 -0.6567
 8630TIP3    H247306   4.449   0.789  12.541 -2.4866  2.1041 -1.0305
 8631TIP3   OH247307   4.226   6.783   0.699  0.2125  0.4127 -0.3933
 8631TIP3    H147308   4.241   6.877   0.706 -0.2818  0.5055 -0.5666
 8631TIP3    H247309   4.262   6.747   0.780 -0.3482  0.8439  0.0526
 8632TIP3   OH247310   5.812   2.296  13.452  0.2264 -0.0752  0.1254
 8632TIP3    H147311   5.906   2.312  13.461  0.1027  0.6586  0.2422
 8632TIP3    H247312   5.772   2.378  13.482 -0.4689 -0.5660  0.5640
 8633TIP3   OH247313   2.165   2.852   3.372  0.6469  0.5032  0.1881
 8633TIP3    H147314   2.143   2.830   3.462 -1.2677  0.6677 -0.1982
 8633TIP3    H247315   2.242   2.799   3.352  1.2691  0.6624  1.9827
 8634TIP3   OH247316   5.605   2.356   1.538 -0.0894  0.2865  0.3990
 8634TIP3    H147317   5.566   2.296   1.602 -0.3273  1.0194  0.9628
 8634TIP3    H247318   5.640   2.299   1.470 -0.2364 -0.4953  0.9564
 8635TIP3   OH247319   2.837   5.240   1.951 -0.0668  0.4524  0.1170
 8635TIP3    H147320   2.877   5.282   2.027 -0.8474  0.9452  0.2686
 8635TIP3    H247321   2.838   5.146   1.972  0.8980  0.4669  0.1576
 8636TIP3   OH247322   1.736   3.433  16.344 -0.4273  0.1158 -0.3290
 8636TIP3    H147323   1.821   3.462  16.377 -0.9377 -0.0358  1.1556
 8636TIP3    H247324   1.735   3.463  16.253  1.0409  0.4800 -0.2516
 8637TIP3   OH247325   3.195   4.089  13.375  0.2722 -0.0416  0.0716
 8637TIP3    H147326   3.230   4.121  13.458 -0.0305  1.2263 -0.2671
 8637TIP3    H247327   3.177   3.996  13.391  0.4452  0.1207  1.3456
 8638TIP3   OH247328   2.631   2.246   2.570 -0.5752 -0.5594  0.1576
 8638TIP3    H147329   2.705   2.194   2.539 -0.3723 -1.1937  1.5869
 8638TIP3    H247330   2.662   2.284   2.653 -0.6828  1.9700 -0.8758
 8639TIP3   OH247331   5.601   6.606   0.995 -0.1685 -0.0353  0.3977
 8639TIP3    H147332   5.646   6.564   0.923 -0.1683 -1.1605  1.0273
 8639TIP3    H247333   5.571   6.690   0.959  0.1067 -0.4277 -0.7971
 8640TIP3   OH247334   0.836   1.050   6.487 -0.0080  0.4239  0.1321
 8640TIP3    H147335   0.810   1.046   6.395 -0.5943  1.1685  0.2477
 8640TIP3    H247336   0.904   0.984   6.497 -1.4865 -1.2380 -0.3120
 8641TIP3   OH247337   5.045   0.328  14.696 -0.2682  0.2428 -0.1939
 8641TIP3    H147338   5.080   0.266  14.632  0.4213  0.8824 -0.4443
 8641TIP3    H247339   5.118   0.385  14.717 -0.4557 -0.0053  1.2459
 8642TIP3   OH247340   1.903   6.392   5.688  0.0643  0.1580  0.3029
 8642TIP3    H147341   1.966   6.412   5.757 -0.0094  0.2942  0.3297
 8642TIP3    H247342   1.818   6.390   5.733  0.0457 -0.0011  0.2624
 8643TIP3   OH247343   4.682   4.839   0.350  0.0149 -0.3566 -0.4801
 8643TIP3    H147344   4.728   4.770   0.302  1.8030  1.0611 -0.9225
 8643TIP3    H247345   4.727   4.842   0.435  1.2253  1.4321 -1.1282
 8644TIP3   OH247346   2.427   5.060   0.743 -0.1890  0.2763  0.3370
 8644TIP3    H147347   2.395   4.975   0.712  0.6405 -0.3297  1.0845
 8644TIP3    H247348   2.348   5.111   0.758 -0.6865 -0.2091 -0.5240
 8645TIP3   OH247349   2.357   6.091  12.221  0.5933  0.6676 -0.0521
 8645TIP3    H147350   2.339   6.009  12.176  0.2479  0.6155  0.1782
 8645TIP3    H247351   2.295   6.094  12.294 -1.1020  2.2899 -1.4745
 8646TIP3   OH247352   5.018   3.160   0.189  0.0146  0.3116 -0.0981
 8646TIP3    H147353   4.990   3.070   0.173  0.9399 -0.1215  0.6431
 8646TIP3    H247354   4.998   3.206   0.108 -0.7299 -0.4937 -0.3849
 8647TIP3   OH247355   3.279   6.739   1.102 -0.1479 -0.0093  0.6615
 8647TIP3    H147356   3.313   6.750   1.014  0.2464 -0.6633  0.7262
 8647TIP3    H247357   3.353   6.706   1.153 -0.6746 -0.7733  0.9633
 8648TIP3   OH247358   0.120   5.645  16.222  0.0752  0.3092 -1.1263
 8648TIP3    H147359   0.187   5.644  16.290  0.2290  0.6410 -1.2719
 8648TIP3    H247360   0.041   5.616  16.267  0.3757 -0.3607 -1.0219
 8649TIP3   OH247361   0.437   5.855  15.717 -0.5265 -0.3072 -0.5293
 8649TIP3    H147362   0.393   5.801  15.782 -1.3687  0.5410 -0.3836
 8649TIP3    H247363   0.433   5.803  15.636  0.2551 -1.2254  0.0009
 8650TIP3   OH247364   5.982   6.117   3.363 -0.6427 -0.3021 -0.2330
 8650TIP3    H147365   5.943   6.175   3.297 -1.1786 -1.4351 -0.9398
 8650TIP3    H247366   5.945   6.031   3.345  0.2286 -0.9072  0.7215
 8651TIP3   OH247367   0.781   6.362   6.461 -0.5448  0.1347  0.1240
 8651TIP3    H147368   0.780   6.457   6.464 -4.1955  0.2073  0.7665
 8651TIP3    H247369   0.817   6.336   6.547  1.1767  0.8251 -0.3351
 8652TIP3   OH247370   6.356   5.518   5.097 -0.4889  0.0280 -0.2762
 8652TIP3    H147371   6.395   5.527   5.011 -1.2488  0.1513 -0.6137
 8652TIP3    H247372   6.267   5.553   5.088 -1.3502 -1.9405 -0.0286
 8653TIP3   OH247373   1.312   4.953  12.783 -0.2339 -0.1175  0.2046
 8653TIP3    H147374   1.287   4.879  12.727 -1.6387  0.7977 -0.4582
 8653TIP3    H247375   1.382   4.997  12.734  1.0431 -1.3148  0.8937
 8654TIP3   OH247376   1.645   3.364  13.151  0.2260 -0.1548 -0.2621
 8654TIP3    H147377   1.655   3.455  13.177  0.4238  0.1965 -1.4763
 8654TIP3    H247378   1.585   3.327  13.215 -0.4034  1.0166 -0.1467
 8655TIP3   OH247379   2.277   4.731   5.212  0.1713  0.1874 -0.3698
 8655TIP3    H147380   2.206   4.717   5.275 -0.3509  1.4295 -0.6549
 8655TIP3    H247381   2.321   4.646   5.207 -1.5587 -0.7516 -0.5037
 8656TIP3   OH247382   4.706   5.581   5.139 -0.1833 -0.6267 -0.0783
 8656TIP3    H147383   4.713   5.618   5.227 -2.3824  0.7894 -0.4250
 8656TIP3    H247384   4.616   5.601   5.111  0.2886 -1.4651 -2.4613
 8657TIP3   OH247385   1.577   6.266   4.500 -0.1595 -0.3732 -0.3957
 8657TIP3    H147386   1.632   6.212   4.556 -0.9450 -0.1206  0.6601
 8657TIP3    H247387   1.638   6.318   4.448  0.6048 -1.8307 -1.0033
 8658TIP3   OH247388   3.955   0.399  16.785  0.2264 -0.0226  0.0979
 8658TIP3    H147389   4.012   0.323  16.770 -1.0068 -1.5246  2.5105
 8658TIP3    H247390   3.924   0.423  16.697  1.5793 -1.5349 -0.8474
 8659TIP3   OH247391   2.747   6.567   4.211 -0.4782  0.1535 -1.2301
 8659TIP3    H147392   2.656   6.593   4.228  0.0020  0.3900  1.3382
 8659TIP3    H247393   2.799   6.627   4.264  1.2131  0.0280 -2.6733
 8660TIP3   OH247394   5.080   4.785   3.813 -0.2399  0.2861 -0.1321
 8660TIP3    H147395   5.014   4.818   3.751  1.9257  3.4325 -0.9803
 8660TIP3    H247396   5.056   4.825   3.897 -1.4950 -1.6544  0.5042
 8661TIP3   OH247397   2.387   3.032  10.845 -0.2423  0.6801  0.1757
 8661TIP3    H147398   2.315   3.006  10.787 -0.9726  1.1893  0.8402
 8661TIP3    H247399   2.465   3.015  10.793 -0.7027 -1.7304  0.1333
 8662TIP3   OH247400   1.340   1.621   5.664 -0.5590  0.2257  0.2194
 8662TIP3    H147401   1.427   1.659   5.656 -1.0550  1.1956 -0.8663
 8662TIP3    H247402   1.309   1.612   5.575 -1.2055 -1.0153  0.5560
 8663TIP3   OH247403   2.545   3.233   1.375 -0.1708 -0.3146 -0.4152
 8663TIP3    H147404   2.532   3.294   1.448  0.3717 -0.4943 -0.1540
 8663TIP3    H247405   2.635   3.249   1.347  0.0719 -1.1645 -0.1676
 8664TIP3   OH247406   0.911   0.627  16.882 -0.7119  0.0695 -0.2382
 8664TIP3    H147407   0.833   0.584  16.847 -0.2856  0.5859 -1.8719
 8664TIP3    H247408   0.934   0.693  16.817  0.2451  0.9220  0.9276
 8665TIP3   OH247409   1.945   0.186   5.846 -0.3269  0.0219 -0.2796
 8665TIP3    H147410   1.881   0.164   5.779  1.3615 -0.5104 -1.8188
 8665TIP3    H247411   2.009   0.114   5.843 -0.4238 -0.2398  2.2425
 8666TIP3   OH247412   5.574   5.121  12.908  0.0848  0.1483  0.5435
 8666TIP3    H147413   5.533   5.179  12.972  0.7021 -0.0960  1.1730
 8666TIP3    H247414   5.640   5.175  12.866  0.2962  0.0547  0.7538
 8667TIP3   OH247415   1.120   1.369  13.615  0.0900 -0.5431  0.4694
 8667TIP3    H147416   1.053   1.412  13.561 -0.1078  0.1504  1.2633
 8667TIP3    H247417   1.199   1.420  13.600 -0.0505 -0.1334  1.1068
 8668TIP3   OH247418   3.270   1.277   4.846 -0.2581 -0.0630  0.4332
 8668TIP3    H147419   3.203   1.308   4.785  0.0026  0.1767  0.2682
 8668TIP3    H247420   3.332   1.228   4.792 -1.2233 -1.8355  0.8364
 8669TIP3   OH247421   2.063   5.993   3.610 -0.1214 -0.1615  0.0070
 8669TIP3    H147422   2.083   6.082   3.641  1.6755 -1.3324  2.5356
 8669TIP3    H247423   2.140   5.969   3.557 -0.1378 -0.5904  0.1801
 8670TIP3   OH247424   4.977   4.808   3.413  0.0992  1.0097 -0.2861
 8670TIP3    H147425   5.020   4.735   3.368 -0.5872  0.4316 -0.0172
 8670TIP3    H247426   4.967   4.875   3.345  0.3941  0.7126 -0.6273
 8671TIP3   OH247427   3.420   5.625   3.827 -0.0676  0.3256  0.1572
 8671TIP3    H147428   3.443   5.542   3.784 -0.0486  1.4148 -2.0682
 8671TIP3    H247429   3.387   5.680   3.756  0.4466  2.4308  1.4806
 8672TIP3   OH247430   5.394   4.688  17.048  0.0943 -0.4447 -0.1954
 8672TIP3    H147431   5.345   4.634  17.110  0.2286  0.4266  0.6829
 8672TIP3    H247432   5.463   4.729  17.101 -0.1035  0.7237 -0.8136
 8673TIP3   OH247433   6.447   5.181  14.491  0.1542  0.0490  0.4415
 8673TIP3    H147434   6.527   5.223  14.461  0.3104 -0.3325  0.3169
 8673TIP3    H247435   6.402   5.248  14.542  0.4904  0.3059  0.4017
 8674TIP3   OH247436   3.396   5.004   2.231 -0.2418  0.2816 -0.5013
 8674TIP3    H147437   3.474   4.979   2.182 -1.6762 -1.7577 -1.9039
 8674TIP3    H247438   3.374   5.091   2.198  1.9506  1.4070  0.7127
 8675TIP3   OH247439   1.843   5.195   3.899  0.2798  0.0040 -0.2329
 8675TIP3    H147440   1.837   5.152   3.984  0.2659  1.1784  0.3731
 8675TIP3    H247441   1.937   5.196   3.879  0.4533  1.1706  0.5449
 8676TIP3   OH247442   4.842   6.746  13.568 -0.2040 -0.2857  0.4071
 8676TIP3    H147443   4.918   6.695  13.599 -0.7983 -1.8766 -0.5997
 8676TIP3    H247444   4.879   6.806  13.503  0.3501 -0.3125  0.6891
 8677TIP3   OH247445   3.975   3.441   0.257 -0.3360  0.0708 -0.2881
 8677TIP3    H147446   3.984   3.536   0.247  1.0553 -0.1700 -1.6679
 8677TIP3    H247447   4.019   3.405   0.180 -1.6279 -1.6802 -0.2435
 8678TIP3   OH247448   1.037   2.265  16.072 -0.3642 -0.6775  0.0835
 8678TIP3    H147449   1.063   2.178  16.103  0.6152 -0.2303  0.5493
 8678TIP3    H247450   0.942   2.267  16.084 -0.7940 -2.5791 -2.1807
 8679TIP3   OH247451   6.426   4.354   0.750 -0.5974 -0.1867  0.3335
 8679TIP3    H147452   6.375   4.295   0.806 -1.4313 -0.7359 -0.9778
 8679TIP3    H247453   6.386   4.346   0.664 -0.1172  1.6064 -0.0788
 8680TIP3   OH247454   4.665   2.171  16.091  0.1245  0.7360 -0.0091
 8680TIP3    H147455   4.696   2.237  16.030  0.2114  2.1535  1.4919
 8680TIP3    H247456   4.620   2.221  16.160 -1.0409 -0.8732  0.4753
 8681TIP3   OH247457   1.055   3.549   1.337  0.5253 -0.0396  0.5321
 8681TIP3    H147458   1.045   3.480   1.271  1.6516  0.0521  0.2465
 8681TIP3    H247459   0.966   3.566   1.368 -0.2457  0.9312 -1.9801
 8682TIP3   OH247460   6.526   6.109   4.437  0.1634 -0.4983  0.7005
 8682TIP3    H147461   6.567   6.036   4.483 -2.1734 -0.9589  2.2611
 8682TIP3    H247462   6.549   6.187   4.488  0.6185 -0.4880  0.4804
 8683TIP3   OH247463   0.254   5.772  11.167 -0.2602  0.5494  0.2736
 8683TIP3    H147464   0.253   5.778  11.071 -0.3043 -0.5970  0.1906
 8683TIP3    H247465   0.344   5.795  11.191 -0.4521  1.6020  0.0194
 8684TIP3   OH247466   1.114   3.043  15.641  0.1233  0.2040 -0.0351
 8684TIP3    H147467   1.181   3.042  15.710 -1.5000 -0.3445  1.6246
 8684TIP3    H247468   1.039   3.088  15.681 -0.8535 -0.0402 -1.4937
 8685TIP3   OH247469   5.285   5.324  13.587  1.2175 -0.7323  0.1116
 8685TIP3    H147470   5.245   5.317  13.500 -0.5349  0.6631  0.7686
 8685TIP3    H247471   5.361   5.265  13.582  0.8392 -1.1369 -2.1612
 8686TIP3   OH247472   3.295   6.485  11.305  0.1880 -0.1821  0.5825
 8686TIP3    H147473   3.376   6.469  11.256  0.3190  0.2046  0.6746
 8686TIP3    H247474   3.233   6.422  11.268 -0.3879  1.5932 -1.6589
 8687TIP3   OH247475   2.930   3.541   0.173 -0.0728  0.8555 -0.0293
 8687TIP3    H147476   2.902   3.573   0.088  0.1022 -0.1670 -0.4922
 8687TIP3    H247477   2.934   3.619   0.229 -1.3709  1.3659 -0.6201
 8688TIP3   OH247478   3.569   1.516  12.015  0.0255  0.1967  0.1625
 8688TIP3    H147479   3.602   1.559  11.936 -0.0593 -0.7632 -0.4147
 8688TIP3    H247480   3.646   1.477  12.055 -0.1895 -1.0214 -0.5429
 8689TIP3   OH247481   5.005   3.161  12.155 -0.2123  0.7351 -0.4462
 8689TIP3    H147482   5.043   3.118  12.231 -0.0544  1.7515  0.0607
 8689TIP3    H247483   4.929   3.208  12.189  0.5521  2.1790 -0.6880
 8690TIP3   OH247484   4.158   0.109   5.338  0.2437 -0.8476 -0.0347
 8690TIP3    H147485   4.136   0.028   5.383 -0.1131 -1.2030 -0.8258
 8690TIP3    H247486   4.158   0.086   5.245  0.1376  0.0581 -0.2724
 8691TIP3   OH247487   5.767   6.156  16.228 -0.2428 -0.0169 -0.1375
 8691TIP3    H147488   5.727   6.206  16.299 -1.2115 -0.1540 -0.5706
 8691TIP3    H247489   5.791   6.222  16.163  0.9621  0.1487  0.4301
 8692TIP3   OH247490   1.157   3.543  13.967 -0.5361  0.3261  0.0820
 8692TIP3    H147491   1.066   3.522  13.945  0.3386 -3.4907 -0.5947
 8692TIP3    H247492   1.156   3.556  14.062 -1.6449 -1.0438  0.2998
 8693TIP3   OH247493   0.215   5.523  14.382  0.0409 -0.5679  0.7296
 8693TIP3    H147494   0.242   5.614  14.392  1.1931 -0.8516  0.2979
 8693TIP3    H247495   0.126   5.521  14.419 -0.6173  1.0519 -0.6110
 8694TIP3   OH247496   2.087   0.796   2.652  0.2368 -0.0126  0.0980
 8694TIP3    H147497   2.083   0.712   2.607 -0.5095  0.7791 -1.3942
 8694TIP3    H247498   2.063   0.861   2.585  1.1245  1.4332  1.1061
 8695TIP3   OH247499   5.274   5.601  12.721  0.3014  0.3453 -0.7444
 8695TIP3    H147500   5.200   5.661  12.730 -0.8739 -1.0543 -0.7645
 8695TIP3    H247501   5.347   5.658  12.695 -0.7584  1.7514 -0.7989
 8696TIP3   OH247502   5.224   5.761  15.282  0.1020 -0.1262 -0.1086
 8696TIP3    H147503   5.234   5.848  15.244 -0.6240  0.9104  1.9450
 8696TIP3    H247504   5.151   5.722  15.234 -0.7718  1.1259  0.1520
 8697TIP3   OH247505   4.646   3.602  16.722  0.0103  0.0029 -0.2924
 8697TIP3    H147506   4.663   3.516  16.684 -2.4549 -0.1635 -1.2398
 8697TIP3    H247507   4.650   3.588  16.817 -0.7959 -1.3041 -0.4276
 8698TIP3   OH247508   5.911   4.336  13.315  0.1541 -0.1769  0.7249
 8698TIP3    H147509   5.862   4.354  13.396  0.2256 -0.1928  0.7721
 8698TIP3    H247510   5.880   4.250  13.287 -0.5117  0.2103  0.2580
 8699TIP3   OH247511   0.164   6.018  14.189 -0.7467  0.2911 -0.4248
 8699TIP3    H147512   0.150   6.096  14.136 -1.3297  2.0464  2.1054
 8699TIP3    H247513   0.188   6.052  14.276 -0.6579 -2.3552  0.6895
 8700TIP3   OH247514   1.954   1.289   4.940  0.0832 -0.1685  0.0677
 8700TIP3    H147515   2.048   1.281   4.924 -0.0046  1.4260 -1.5469
 8700TIP3    H247516   1.935   1.382   4.927 -1.8394 -0.5805 -0.4109
 8701TIP3   OH247517   4.040   1.414   0.193  0.1512  0.0462 -0.2738
 8701TIP3    H147518   3.982   1.489   0.183  1.8398  1.3004 -0.9603
 8701TIP3    H247519   4.067   1.417   0.285  3.0310  2.5366 -1.0420
 8702TIP3   OH247520   2.597   0.728   5.000 -0.3344 -0.3572 -0.4419
 8702TIP3    H147521   2.605   0.664   4.930  0.6857 -2.2909  1.3373
 8702TIP3    H247522   2.506   0.759   4.994 -0.8136 -1.8671 -1.4502
 8703TIP3   OH247523   1.012   1.130   2.220 -0.5027  0.4360 -0.3137
 8703TIP3    H147524   0.989   1.201   2.159 -0.4966  0.0918 -0.7225
 8703TIP3    H247525   1.104   1.112   2.201 -0.6895 -0.1477 -0.6961
 8704TIP3   OH247526   4.203   2.018  10.360 -0.1085  0.6651  0.8635
 8704TIP3    H147527   4.276   1.980  10.311 -0.7844  0.0462  0.2980
 8704TIP3    H247528   4.213   2.113  10.349 -1.1084  0.5527 -1.8967
 8705TIP3   OH247529   4.063   5.737   5.483  0.2642  0.9214  0.4442
 8705TIP3    H147530   4.119   5.813   5.497 -0.0276  0.9664  1.4674
 8705TIP3    H247531   4.021   5.753   5.398  1.5355  1.0374 -0.1851
 8706TIP3   OH247532   2.283   2.080   5.783 -0.3278  0.1276  0.3004
 8706TIP3    H147533   2.358   2.021   5.788 -0.0892  0.1164 -2.0956
 8706TIP3    H247534   2.211   2.024   5.753 -0.6667  0.6348  0.1594
 8707TIP3   OH247535   3.940   6.456   2.390 -0.0027  0.0890  0.5721
 8707TIP3    H147536   3.950   6.384   2.328  2.5372 -0.8813  1.9586
 8707TIP3    H247537   3.845   6.465   2.402 -0.5046 -0.7105 -2.1954
 8708TIP3   OH247538   0.281   2.113   0.055 -0.0557 -0.2642 -0.5604
 8708TIP3    H147539   0.244   2.200   0.038  1.7096  0.6031 -0.1616
 8708TIP3    H247540   0.375   2.126   0.051  0.4333 -1.2756  3.4862
 8709TIP3   OH247541   1.769   0.975   4.761  0.5747 -0.6120  0.4540
 8709TIP3    H147542   1.762   1.061   4.720 -1.6073 -1.0554 -0.2351
 8709TIP3    H247543   1.729   0.915   4.698 -2.9506 -1.3334  3.0257
 8710TIP3   OH247544   0.389   1.207   1.263 -0.0593  0.2734  0.4235
 8710TIP3    H147545   0.331   1.154   1.210  0.6068  0.0043 -0.0403
 8710TIP3    H247546   0.466   1.152   1.280  1.7230  1.7949 -2.0106
 8711TIP3   OH247547   5.408   2.858   0.004  0.2356  0.1422 -0.0418
 8711TIP3    H147548   5.419   2.925  -0.063 -0.5741 -1.3612 -1.7796
 8711TIP3    H247549   5.417   2.905   0.087  3.2301  1.7364 -1.1448
 8712TIP3   OH247550   1.919   2.336  12.726  0.3110  0.0859  0.5950
 8712TIP3    H147551   1.889   2.257  12.679 -0.1378  0.9765 -0.6694
 8712TIP3    H247552   1.842   2.367  12.773 -0.0577  0.8586 -0.4891
 8713TIP3   OH247553   1.667   0.774  12.152 -0.2025  0.4007 -0.4360
 8713TIP3    H147554   1.621   0.797  12.233  0.2984 -0.3844  0.0814
 8713TIP3    H247555   1.633   0.836  12.087  1.1901  2.7603  0.9107
 8714TIP3   OH247556   5.845   2.323   1.848 -0.3506  0.0740  0.1164
 8714TIP3    H147557   5.788   2.247   1.861 -1.2292  0.9181  1.4355
 8714TIP3    H247558   5.806   2.392   1.902 -0.9935  2.2205 -2.8247
 8715TIP3   OH247559   1.338   4.816   6.578 -0.3438 -0.0709 -0.4258
 8715TIP3    H147560   1.270   4.794   6.514 -0.0525 -1.2451 -0.3506
 8715TIP3    H247561   1.323   4.756   6.651  1.3296 -0.9823 -0.7945
 8716TIP3   OH247562   5.705   2.886   2.840  0.0690 -0.4175  0.0001
 8716TIP3    H147563   5.735   2.835   2.915 -0.9621 -1.0406  0.0089
 8716TIP3    H247564   5.610   2.881   2.844 -0.0061 -0.4780 -1.3636
 8717TIP3   OH247565   0.944   4.059  14.822  0.0219  0.1655  0.0569
 8717TIP3    H147566   0.866   4.115  14.815 -0.4363 -0.5806 -1.0888
 8717TIP3    H247567   1.009   4.100  14.766  0.5398  0.8893  1.1582
 8718TIP3   OH247568   4.995   4.741   2.385  0.0320  0.1628  0.1763
 8718TIP3    H147569   5.077   4.732   2.434 -0.3091  0.5314  0.8185
 8718TIP3    H247570   5.021   4.726   2.294  0.6239 -0.7991  0.4839
 8719TIP3   OH247571   3.522   2.685  13.732 -0.6398  0.2175  0.2168
 8719TIP3    H147572   3.523   2.772  13.773 -0.4359 -0.0378  0.7615
 8719TIP3    H247573   3.603   2.682  13.682 -1.0591  0.6680 -0.5173
 8720TIP3   OH247574   3.818   6.456  11.366 -0.3408  0.2925  0.3641
 8720TIP3    H147575   3.785   6.442  11.277  0.0392  1.6246 -0.0093
 8720TIP3    H247576   3.752   6.415  11.423 -0.6011 -0.5544 -0.5103
 8721TIP3   OH247577   4.805   2.006   5.278  0.2595  0.2766 -0.1352
 8721TIP3    H147578   4.899   2.024   5.269  0.1729  0.1805 -1.3727
 8721TIP3    H247579   4.777   2.063   5.350  0.9373  1.6014 -0.8629
 8722TIP3   OH247580   3.801   3.409   3.943  0.3782 -0.3394 -0.2614
 8722TIP3    H147581   3.723   3.356   3.958 -1.0472  1.2459 -1.5788
 8722TIP3    H247582   3.824   3.392   3.851  0.6362  0.3653 -0.3352
 8723TIP3   OH247583   6.543   0.730   0.618 -0.6882 -0.1385 -0.3216
 8723TIP3    H147584   6.568   0.643   0.650  1.8563  0.2360 -1.1221
 8723TIP3    H247585   6.589   0.791   0.675 -0.1569  0.6158 -1.5210
 8724TIP3   OH247586   0.195   2.930  16.090  0.4670 -0.3631 -0.6100
 8724TIP3    H147587   0.204   2.839  16.062  1.7829 -0.1330 -0.9528
 8724TIP3    H247588   0.148   2.972  16.019  0.1821 -0.6790 -0.6160
 8725TIP3   OH247589   6.609   4.850  14.986 -0.2665 -0.4630 -0.1353
 8725TIP3    H147590   6.639   4.854  14.895  0.1015  1.1302  0.0332
 8725TIP3    H247591   6.689   4.845  15.038 -0.1838  2.8441  0.2642
 8726TIP3   OH247592   4.740   5.684   5.975  0.0423  0.7108 -0.8772
 8726TIP3    H147593   4.747   5.686   5.880  1.0842 -1.0416 -0.8916
 8726TIP3    H247594   4.674   5.616   5.992  1.2025 -0.3262 -0.3615
 8727TIP3   OH247595   4.961   4.293   4.875 -0.3464 -0.3770 -0.2408
 8727TIP3    H147596   5.008   4.358   4.822 -0.0198  0.4703  1.0370
 8727TIP3    H247597   4.872   4.328   4.883  0.0245  0.3378  1.0726
 8728TIP3   OH247598   0.208   1.473   4.281 -0.0459 -0.2608 -0.0858
 8728TIP3    H147599   0.139   1.424   4.325 -1.1734  0.3255 -1.1668
 8728TIP3    H247600   0.196   1.454   4.188  0.1833  1.1893 -0.4336
 8729TIP3   OH247601   6.440   4.607  13.515 -0.6007  0.5579 -0.5099
 8729TIP3    H147602   6.382   4.650  13.578 -0.7738  1.2154 -1.1047
 8729TIP3    H247603   6.425   4.655  13.433  2.8051  2.6337 -0.1074
 8730TIP3   OH247604   5.547   5.272   4.752  0.0617 -0.3076 -0.1295
 8730TIP3    H147605   5.641   5.272   4.771  0.0912 -0.0813 -0.2691
 8730TIP3    H247606   5.518   5.183   4.775 -0.0823  0.1869  1.7729
 8731TIP3   OH247607   3.080   3.848   1.266  0.5153  0.6967  0.1763
 8731TIP3    H147608   3.043   3.791   1.334 -0.5400  0.0814 -0.8845
 8731TIP3    H247609   3.074   3.936   1.303 -1.4659  0.5457  0.3168
 8732TIP3   OH247610   1.915   6.068   4.072  0.0866 -0.4655  0.3529
 8732TIP3    H147611   1.872   5.983   4.086  1.2138 -0.9983  0.6529
 8732TIP3    H247612   1.995   6.048   4.025  0.1487  0.4934  0.0193
 8733TIP3   OH247613   4.097   5.796  12.735  0.0778 -0.2123  0.0187
 8733TIP3    H147614   4.165   5.815  12.800 -0.0773 -0.2134  0.1816
 8733TIP3    H247615   4.037   5.736  12.779  0.3649 -0.7963 -0.3703
 8734TIP3   OH247616   5.024   0.854   0.060  0.6160 -0.2284 -0.1412
 8734TIP3    H147617   5.045   0.942   0.093 -1.5302  0.2534  0.0831
 8734TIP3    H247618   5.100   0.801   0.085  1.1986  1.1684  1.2870
 8735TIP3   OH247619   5.748   1.219   1.051 -0.5547 -0.1437 -0.6348
 8735TIP3    H147620   5.774   1.192   0.963 -1.1024 -1.1774 -0.4916
 8735TIP3    H247621   5.657   1.246   1.042 -1.0213 -1.4917 -0.1517
 8736TIP3   OH247622   5.645   5.951   0.077  0.8065  0.4071 -0.1187
 8736TIP3    H147623   5.582   6.014   0.113 -0.5591 -2.0091  2.0226
 8736TIP3    H247624   5.642   5.967  -0.018 -1.0854  2.1097  0.1488
 8737TIP3   OH247625   2.785   0.280   1.570  0.3524  0.4346  0.1779
 8737TIP3    H147626   2.842   0.353   1.545 -0.3996  0.5100 -1.4211
 8737TIP3    H247627   2.821   0.249   1.653  2.4487  0.7619 -0.5501
 8738TIP3   OH247628   3.214   5.336   2.217  0.4179 -0.1244 -0.2726
 8738TIP3    H147629   3.283   5.315   2.155  0.9866  0.0457  0.2942
 8738TIP3    H247630   3.217   5.431   2.226 -0.7501  0.0242 -1.2214
 8739TIP3   OH247631   4.424   3.224  11.565  0.0087  0.6941 -0.1726
 8739TIP3    H147632   4.506   3.271  11.549 -0.3138  1.0793 -0.7318
 8739TIP3    H247633   4.411   3.228  11.660 -0.4485  2.4877 -0.2830
 8740TIP3   OH247634   5.661   1.569   1.189 -0.2973  0.0886 -0.2892
 8740TIP3    H147635   5.640   1.662   1.185 -0.0740  0.1302 -0.5207
 8740TIP3    H247636   5.623   1.531   1.110 -1.8732 -0.3347  0.6233
 8741TIP3   OH247637   5.290   1.753   6.340  0.3349  0.4757 -0.0212
 8741TIP3    H147638   5.218   1.692   6.325 -0.8077  2.2424 -2.4175
 8741TIP3    H247639   5.368   1.698   6.339 -0.6088 -0.9978 -2.4631
 8742TIP3   OH247640   3.839   5.880  14.477  0.6432  0.4087  0.1040
 8742TIP3    H147641   3.831   5.947  14.409 -3.0839  0.5621  0.4620
 8742TIP3    H247642   3.880   5.806  14.433 -0.3883  0.9849 -1.9647
 8743TIP3   OH247643   2.117   1.949  14.294 -0.6323 -0.4133  0.3667
 8743TIP3    H147644   2.030   1.920  14.323 -0.6474  0.3770  1.1887
 8743TIP3    H247645   2.147   2.006  14.365 -0.7190  1.7738 -1.2437
 8744TIP3   OH247646   5.582   5.324   3.707 -0.0448 -0.1287  0.0706
 8744TIP3    H147647   5.674   5.349   3.700  0.0266 -0.6845 -1.4552
 8744TIP3    H247648   5.534   5.400   3.675 -0.1732  0.3706  1.3829
 8745TIP3   OH247649   6.798   1.369   4.400  0.1499 -0.2423  0.3959
 8745TIP3    H147650   6.806   1.324   4.484  2.6201  0.1439  0.4436
 8745TIP3    H247651   6.781   1.298   4.337  0.2031 -0.7652  0.9570
 8746TIP3   OH247652   0.711   2.453   0.258  0.0074 -0.4206  0.5729
 8746TIP3    H147653   0.716   2.517   0.329  0.2015 -1.9923  2.0591
 8746TIP3    H247654   0.788   2.470   0.204  0.4010  0.1828  1.3070
 8747TIP3   OH247655   6.319   5.358   0.227 -0.0536  0.0174 -0.2367
 8747TIP3    H147656   6.350   5.308   0.152 -1.8465 -0.5334 -0.6725
 8747TIP3    H247657   6.376   5.435   0.231  0.0879  0.0484 -2.1667
 8748TIP3   OH247658   1.058   6.120   2.528 -0.4956  0.2045 -0.0389
 8748TIP3    H147659   1.019   6.180   2.465  1.0227 -1.2016 -2.5036
 8748TIP3    H247660   1.025   6.034   2.503 -0.6981 -0.3193  1.8413
 8749TIP3   OH247661   6.246   0.479   0.316 -0.7806 -0.5144 -0.0145
 8749TIP3    H147662   6.160   0.477   0.357 -0.6506  2.5017  0.6092
 8749TIP3    H247663   6.228   0.480   0.222 -1.4981  0.6370  0.1173
 8750TIP3   OH247664   0.186   4.348   0.774 -0.4125 -0.3635 -0.2592
 8750TIP3    H147665   0.118   4.280   0.775 -1.2670  0.4014 -1.7135
 8750TIP3    H247666   0.249   4.318   0.708  0.7047 -1.0586  1.0657
 8751TIP3   OH247667   1.953   5.846   0.259  0.1825  0.3020 -0.2028
 8751TIP3    H147668   1.970   5.794   0.180 -0.6308  0.0486 -0.2200
 8751TIP3    H247669   1.906   5.786   0.317 -0.9056  1.0423 -0.2834
 8752TIP3   OH247670   5.238   0.426  16.737  0.5545  0.2857 -0.0891
 8752TIP3    H147671   5.158   0.479  16.736 -1.6729 -2.7628  0.6482
 8752TIP3    H247672   5.232   0.376  16.818  1.5632 -2.3478 -1.5264
 8753TIP3   OH247673   5.381   3.963   0.669 -0.1971  0.1820 -0.2732
 8753TIP3    H147674   5.330   4.019   0.728 -0.5359  0.0752 -0.4634
 8753TIP3    H247675   5.470   3.964   0.706 -0.0939  1.1835 -0.5180
 8754TIP3   OH247676   3.821   4.629  16.053 -0.3796 -0.4268  0.0791
 8754TIP3    H147677   3.822   4.704  16.112 -0.6125 -0.4508  0.1163
 8754TIP3    H247678   3.888   4.570  16.087 -0.2020 -0.2391  0.0537
 8755TIP3   OH247679   1.422   4.500   4.423  0.0958 -0.5492 -0.0614
 8755TIP3    H147680   1.454   4.545   4.501  0.2536  0.8205 -0.8781
 8755TIP3    H247681   1.493   4.509   4.359 -1.2674  1.2821 -1.4318
 8756TIP3   OH247682   3.080   3.923   2.334 -0.4150 -0.0081 -0.1651
 8756TIP3    H147683   3.124   3.839   2.352 -1.3131 -0.3083  0.6961
 8756TIP3    H247684   2.992   3.899   2.308 -0.2515  0.6213 -1.3688
 8757TIP3   OH247685   5.635   4.319  11.312  0.3853  0.1000 -1.0320
 8757TIP3    H147686   5.702   4.301  11.246  1.5695  0.7674 -0.0426
 8757TIP3    H247687   5.610   4.233  11.345  1.4772 -0.1143 -0.7278
 8758TIP3   OH247688   6.067   5.078   2.458  0.7053 -0.2274  1.0463
 8758TIP3    H147689   6.139   5.027   2.421  0.3545 -0.8074  1.1558
 8758TIP3    H247690   6.107   5.124   2.532  1.3874  0.8736  0.0363
 8759TIP3   OH247691   5.820   0.001  16.936 -0.4370 -0.2400  0.0126
 8759TIP3    H147692   5.860   0.083  16.908 -0.5466 -0.0917  0.2940
 8759TIP3    H247693   5.785   0.019  17.023  0.0750 -0.7561  0.3339
 8760TIP3   OH247694   2.646   6.243  14.160 -0.0228  0.6864  0.3357
 8760TIP3    H147695   2.628   6.233  14.254  3.4332  1.4373  1.2215
 8760TIP3    H247696   2.656   6.154  14.128  0.4241  0.4579  1.0823
 8761TIP3   OH247697   1.584   0.941  11.978  0.2515 -0.5713 -0.6126
 8761TIP3    H147698   1.532   1.021  11.973  0.1423 -0.3937  1.9134
 8761TIP3    H247699   1.662   0.959  11.925 -0.5296  0.5815 -1.3874
 8762TIP3   OH247700   2.953   6.243   1.429  0.2049  0.6699  0.6231
 8762TIP3    H147701   2.858   6.234   1.427  0.0442  1.7664  2.2782
 8762TIP3    H247702   2.969   6.337   1.429  1.3523  0.5122 -0.6471
 8763TIP3   OH247703   4.384   2.386  12.584  0.4154 -0.0650 -0.3146
 8763TIP3    H147704   4.465   2.335  12.590  0.0338 -0.4858  1.9039
 8763TIP3    H247705   4.412   2.470  12.545  2.0130 -0.0272  0.8095
 8764TIP3   OH247706   1.670   4.234   4.384  0.4736  0.0606 -0.1203
 8764TIP3    H147707   1.734   4.208   4.450  0.7523  0.2692 -0.3045
 8764TIP3    H247708   1.684   4.328   4.372  0.9706 -0.1121 -1.0420
 8765TIP3   OH247709   0.675   4.172   3.485 -0.1697 -0.0431  0.5306
 8765TIP3    H147710   0.719   4.252   3.458  0.1061 -0.5637 -0.6030
 8765TIP3    H247711   0.691   4.110   3.414  0.8796 -1.5827  2.0160
 8766TIP3   OH247712   5.049   1.922  15.596 -0.2661 -0.5968  0.0431
 8766TIP3    H147713   5.047   1.947  15.503 -1.2574  1.6761  0.6043
 8766TIP3    H247714   4.968   1.872  15.608  0.1719 -1.4455 -0.4231
 8767TIP3   OH247715   0.722   0.998   5.433 -0.4468  0.3170 -0.2170
 8767TIP3    H147716   0.799   1.053   5.421 -0.3184 -0.1494 -1.6210
 8767TIP3    H247717   0.695   1.015   5.523  0.7655  1.1573  0.0126
 8768TIP3   OH247718   3.600   2.532  14.664  0.0062 -0.2324  0.9001
 8768TIP3    H147719   3.693   2.527  14.684 -0.1979  0.1730  1.9992
 8768TIP3    H247720   3.597   2.541  14.568  1.0577 -0.9686  0.7830
 8769TIP3   OH247721   5.750   0.671   5.959 -0.1348 -0.2779  0.5800
 8769TIP3    H147722   5.830   0.639   6.002  0.0623 -0.6053 -0.0204
 8769TIP3    H247723   5.679   0.631   6.010 -0.0131  1.8437  2.5718
 8770TIP3   OH247724   4.371   1.300  13.180 -0.0168  0.3720  0.1442
 8770TIP3    H147725   4.420   1.222  13.152  0.6044  0.3359  1.2714
 8770TIP3    H247726   4.423   1.374  13.147 -0.2605  0.3133 -0.3695
 8771TIP3   OH247727   4.170   1.919   3.084  0.1783 -0.1313 -0.1860
 8771TIP3    H147728   4.082   1.947   3.108  0.7879  1.1246  0.6882
 8771TIP3    H247729   4.221   1.926   3.165  1.9258  2.7192 -1.3932
 8772TIP3   OH247730   4.377   1.769   4.893 -0.3767 -0.1735  0.8323
 8772TIP3    H147731   4.337   1.699   4.840 -1.2124  1.2473 -0.5050
 8772TIP3    H247732   4.455   1.729   4.931  0.4895 -1.2110 -1.7788
 8773TIP3   OH247733   5.690   4.337  16.894 -0.0490  0.2722 -0.2035
 8773TIP3    H147734   5.776   4.365  16.925 -0.8541  1.6473  0.8882
 8773TIP3    H247735   5.678   4.249  16.929  0.5773  0.3922  0.3058
 8774TIP3   OH247736   1.477   3.984   6.385  0.1797  0.0641  0.1822
 8774TIP3    H147737   1.557   3.935   6.365  0.8831  0.2371  2.3147
 8774TIP3    H247738   1.506   4.051   6.448 -1.6756 -0.0136  1.1656
 8775TIP3   OH247739   0.613   5.973  16.219 -0.2285  0.4213  0.1267
 8775TIP3    H147740   0.586   5.986  16.128  1.9930 -2.1142 -1.0442
 8775TIP3    H247741   0.646   6.059  16.247 -0.5802  1.1503 -1.5769
 8776TIP3   OH247742   1.368   2.564   2.750 -0.1946 -0.3727  0.9701
 8776TIP3    H147743   1.290   2.619   2.740 -0.5438 -0.7295  1.6387
 8776TIP3    H247744   1.410   2.595   2.830  0.5273  0.0171  0.4510
 8777TIP3   OH247745   2.545   6.738   0.251  0.6461  0.0683  0.1261
 8777TIP3    H147746   2.519   6.656   0.209 -1.3059  0.3091  0.7439
 8777TIP3    H247747   2.587   6.789   0.181  0.2035 -0.7271 -0.7383
 8778TIP3   OH247748   2.484   3.161   0.685  0.1271  0.0896  0.6698
 8778TIP3    H147749   2.430   3.142   0.762  1.6622 -2.7288  1.2143
 8778TIP3    H247750   2.542   3.232   0.712 -0.8657  0.6766  1.3030
 8779TIP3   OH247751   1.282   3.427  16.184  0.7343 -0.1081 -0.4463
 8779TIP3    H147752   1.196   3.387  16.198  0.6179 -0.2759 -1.5253
 8779TIP3    H247753   1.318   3.437  16.272 -0.2569 -0.3193  0.0063
 8780TIP3   OH247754   1.332   1.875  16.945  0.0889  0.1735  0.3395
 8780TIP3    H147755   1.300   1.785  16.943  0.4092  0.0647  0.1131
 8780TIP3    H247756   1.411   1.872  16.998  0.0051  0.3565  0.4790
 8781TIP3   OH247757   4.252   1.675   2.658 -0.1343  0.0265  0.2782
 8781TIP3    H147758   4.337   1.638   2.633  0.3732  1.0801  0.4080
 8781TIP3    H247759   4.248   1.664   2.753  1.6862  3.5576  0.9055
 8782TIP3   OH247760   6.729   6.121  14.494 -0.3010  0.0539  0.5969
 8782TIP3    H147761   6.638   6.102  14.473 -0.4279 -0.9913  1.9202
 8782TIP3    H247762   6.752   6.195  14.438 -1.9123  0.2451  0.1375
 8783TIP3   OH247763   2.908   6.700   5.391 -0.2596 -0.2307  0.3165
 8783TIP3    H147764   2.897   6.655   5.474 -0.6309 -1.1566 -0.2207
 8783TIP3    H247765   2.933   6.631   5.329 -0.4643  0.3620 -0.4418
 8784TIP3   OH247766   5.893   2.805  15.946  1.0709  0.4913  0.4358
 8784TIP3    H147767   5.858   2.741  15.883  1.1099  0.0755  0.8343
 8784TIP3    H247768   5.974   2.836  15.906  0.3658  1.3314 -0.4156
 8785TIP3   OH247769   4.658   5.016  16.456  0.3527 -0.7867  0.1867
 8785TIP3    H147770   4.647   5.023  16.362  0.4281 -0.2346  0.2160
 8785TIP3    H247771   4.681   5.104  16.485 -1.6672 -0.4612  0.9833
 8786TIP3   OH247772   3.284   5.536  15.044  0.6055 -0.3296  0.1658
 8786TIP3    H147773   3.230   5.479  15.100  0.7591 -1.4709 -0.8216
 8786TIP3    H247774   3.367   5.490  15.036 -0.0639 -1.2337 -2.6184
 8787TIP3   OH247775   0.728   6.589  16.938  0.3064  0.9248  0.2374
 8787TIP3    H147776   0.697   6.543  16.860 -0.3352  0.1886  0.9023
 8787TIP3    H247777   0.824   6.587  16.931  0.3800 -1.7859  0.8949
 8788TIP3   OH247778   1.090   1.798   1.330 -0.3213  0.0435  0.0378
 8788TIP3    H147779   1.122   1.761   1.248 -0.9986 -1.3177  0.3571
 8788TIP3    H247780   1.006   1.756   1.344 -0.0077 -0.0997  1.6691
 8789TIP3   OH247781   5.296   0.266  16.399 -0.0391 -0.3057 -0.5472
 8789TIP3    H147782   5.276   0.264  16.306 -1.0904  1.7488 -0.4169
 8789TIP3    H247783   5.365   0.332  16.408  0.2223 -0.6507  0.1207
 8790TIP3   OH247784   0.100   6.777  17.072  0.1451 -0.4426 -0.0385
 8790TIP3    H147785   0.122   6.717  17.144 -2.2155 -1.7426 -0.3140
 8790TIP3    H247786   0.161   6.753  17.002 -0.2452 -2.0164  0.1264
 8791TIP3   OH247787   2.824   1.173  15.414  0.1744 -0.0597 -0.0139
 8791TIP3    H147788   2.729   1.171  15.418  0.0657 -0.5915 -1.8794
 8791TIP3    H247789   2.844   1.195  15.323  1.8453  0.9367  0.5476
 8792TIP3   OH247790   6.541   1.288  14.318  0.4188 -0.2559 -0.2962
 8792TIP3    H147791   6.591   1.358  14.361  0.6743 -1.0879  0.8188
 8792TIP3    H247792   6.468   1.270  14.378 -0.2292 -0.2418 -1.0710
 8793TIP3   OH247793   6.305   2.142  16.385 -0.1763 -0.3737 -0.3390
 8793TIP3    H147794   6.230   2.112  16.435  1.1230 -4.0938 -0.2982
 8793TIP3    H247795   6.381   2.121  16.440  1.0570  0.3106 -1.6863
 8794TIP3   OH247796   2.711   1.203   0.361 -0.5308  0.3296 -0.3831
 8794TIP3    H147797   2.646   1.270   0.381  0.3191  0.4353  2.6127
 8794TIP3    H247798   2.680   1.125   0.408  1.6685  0.5609  1.6792
 8795TIP3   OH247799   4.438   1.970   4.684 -0.2979  0.5099  0.1194
 8795TIP3    H147800   4.529   1.958   4.657 -0.8054  1.6871 -2.4018
 8795TIP3    H247801   4.417   1.892   4.736  1.1335 -1.4654 -2.1092
 8796TIP3   OH247802   6.626   5.538  13.047 -0.6842 -0.2962 -0.2817
 8796TIP3    H147803   6.575   5.611  13.011  0.3583 -0.2481 -1.7518
 8796TIP3    H247804   6.676   5.577  13.119  0.9670  0.8653 -1.9591
 8797TIP3   OH247805   2.369   6.809  14.038 -0.3150  0.1686  0.7325
 8797TIP3    H147806   2.452   6.781  14.001 -0.1966  0.5633  0.6868
 8797TIP3    H247807   2.304   6.793  13.970  0.1471  2.4638 -0.3440
 8798TIP3   OH247808   1.622   3.484  14.546 -0.3684 -0.2080  0.1762
 8798TIP3    H147809   1.594   3.531  14.625  1.8797 -1.0008  1.5366
 8798TIP3    H247810   1.673   3.411  14.579  0.4766 -0.6820 -2.0436
 8799TIP3   OH247811   2.979   1.072   2.725 -0.7286  0.2051  0.5853
 8799TIP3    H147812   2.946   1.153   2.765  0.1693  0.9782 -0.1819
 8799TIP3    H247813   3.060   1.054   2.772  0.6896  1.4859 -1.1982
 8800TIP3   OH247814   6.401   0.614   4.364  0.1328  0.4390 -0.1022
 8800TIP3    H147815   6.358   0.574   4.288 -0.5918  0.3799  0.3275
 8800TIP3    H247816   6.383   0.554   4.436 -0.4210  1.2043  0.4127
 8801TIP3   OH247817   1.317   1.575   5.411 -0.1942 -0.1570 -0.4498
 8801TIP3    H147818   1.287   1.656   5.371  1.6997  0.7634 -0.1402
 8801TIP3    H247819   1.250   1.510   5.389 -2.0053  1.5738 -0.3020
 8802TIP3   OH247820   1.556   0.872   4.192  0.2752 -0.7335  0.3519
 8802TIP3    H147821   1.523   0.794   4.148 -0.8672 -0.9059  1.4756
 8802TIP3    H247822   1.478   0.922   4.216  0.9604  0.4450  0.2434
 8803TIP3   OH247823   2.347   2.045   6.127 -0.1725 -0.1212 -0.3298
 8803TIP3    H147824   2.287   2.116   6.149 -0.7814 -0.3534 -1.1659
 8803TIP3    H247825   2.409   2.041   6.200 -0.1256  1.2670 -0.2675
 8804TIP3   OH247826   3.578   4.685  13.750  0.1516 -0.0492 -0.0094
 8804TIP3    H147827   3.570   4.779  13.736 -0.0692 -0.0451  0.1381
 8804TIP3    H247828   3.502   4.647  13.707  1.4953 -0.4021 -2.2511
 8805TIP3   OH247829   2.191   2.619   0.397 -0.3295 -0.2669 -0.4328
 8805TIP3    H147830   2.214   2.665   0.317  0.1612 -0.1234 -0.2097
 8805TIP3    H247831   2.165   2.688   0.458  1.0562 -0.2163  0.1216
 8806TIP3   OH247832   3.031   5.217  13.448 -0.0380  0.2033  0.7858
 8806TIP3    H147833   3.033   5.276  13.373 -0.1992 -0.4561  0.2529
 8806TIP3    H247834   2.944   5.228  13.485 -1.2328 -1.9379 -1.1664
 8807TIP3   OH247835   4.758   2.856  12.067 -0.2892 -0.4832 -0.0240
 8807TIP3    H147836   4.718   2.922  12.124  0.2849 -1.3615  1.4420
 8807TIP3    H247837   4.729   2.880  11.979 -0.9344  1.1058  0.5901
 8808TIP3   OH247838   6.090   2.005  16.489  0.0476 -0.5089 -0.1393
 8808TIP3    H147839   6.064   2.012  16.581 -0.5410 -0.1337 -0.3254
 8808TIP3    H247840   6.081   1.912  16.469  0.4608 -0.6397  0.2630
 8809TIP3   OH247841   3.474   0.261   5.628  0.1744 -0.1284 -0.4810
 8809TIP3    H147842   3.404   0.250   5.564  0.6873  1.6115 -1.3847
 8809TIP3    H247843   3.529   0.184   5.616 -0.2866 -0.3275 -1.4185
 8810TIP3   OH247844   0.801   0.670   4.527 -0.9731  0.2644 -0.4629
 8810TIP3    H147845   0.833   0.690   4.615 -0.8901  0.2835 -0.4975
 8810TIP3    H247846   0.731   0.606   4.542 -0.7183 -0.0046 -0.4082
 8811TIP3   OH247847   1.729   0.195   0.593  0.0350 -0.1826 -0.5393
 8811TIP3    H147848   1.730   0.100   0.583 -1.5529 -0.2776 -0.1487
 8811TIP3    H247849   1.643   0.214   0.631  0.7979  1.3043  0.5614
 8812TIP3   OH247850   1.587   0.180  13.445 -0.3254 -0.4369 -0.5230
 8812TIP3    H147851   1.563   0.204  13.535  1.8073 -1.7922  0.4989
 8812TIP3    H247852   1.675   0.217  13.434 -0.3949 -0.6509 -1.9264
 8813TIP3   OH247853   0.468   6.657   3.294 -1.0093 -0.2571  0.3316
 8813TIP3    H147854   0.456   6.740   3.247  1.0924 -0.0448  0.0898
 8813TIP3    H247855   0.495   6.595   3.226  1.5151 -0.0790  1.0605
 8814TIP3   OH247856   3.174   0.117  11.055 -0.0761 -0.6756  0.4557
 8814TIP3    H147857   3.233   0.144  10.984 -0.1545 -2.6207 -0.4083
 8814TIP3    H247858   3.110   0.187  11.060  1.9953  1.3040  1.1231
 8815TIP3   OH247859   0.082   6.724  11.742  0.2229 -0.6460  0.6527
 8815TIP3    H147860   0.047   6.769  11.665 -1.2405 -0.5954  1.2996
 8815TIP3    H247861   0.171   6.758  11.752 -0.0198  0.3205 -0.2511
 8816TIP3   OH247862   2.115   4.132   1.218  0.2267 -0.2798  0.2280
 8816TIP3    H147863   2.180   4.171   1.275 -1.3758  0.5643  1.5544
 8816TIP3    H247864   2.162   4.114   1.136  1.7141  1.7251  0.5863
 8817TIP3   OH247865   3.386   4.791  16.989  0.6051  0.6257 -0.0876
 8817TIP3    H147866   3.316   4.856  16.994  1.9450  2.0496  1.1947
 8817TIP3    H247867   3.412   4.776  17.080  0.2970 -1.8035 -0.3285
 8818TIP3   OH247868   4.902   2.998  13.731 -0.0812 -0.3661 -0.3246
 8818TIP3    H147869   4.929   3.010  13.822  0.6714 -0.2173 -0.5669
 8818TIP3    H247870   4.852   2.916  13.732 -0.1639 -0.3136  0.2381
 8819TIP3   OH247871   4.284   4.203   5.136 -0.0738 -0.3039 -0.0612
 8819TIP3    H147872   4.310   4.261   5.208  1.4162 -0.4208 -0.4756
 8819TIP3    H247873   4.357   4.142   5.127 -0.9896 -1.3654 -0.5743
 8820TIP3   OH247874   2.761   5.000  14.264  0.1718  0.4479  0.3201
 8820TIP3    H147875   2.835   4.979  14.321  0.6254 -0.0853 -0.4554
 8820TIP3    H247876   2.684   4.978  14.316  0.5462  0.9045  1.0915
 8821TIP3   OH247877   0.233   5.140   1.227  0.4221  0.2508 -1.0266
 8821TIP3    H147878   0.315   5.104   1.191  0.9772  1.8539 -1.4308
 8821TIP3    H247879   0.255   5.160   1.318  0.2244 -0.0833 -0.9046
 8822TIP3   OH247880   4.085   5.241  13.558 -0.6393  0.1566 -0.1015
 8822TIP3    H147881   4.142   5.173  13.519  0.2221  0.1537  1.1095
 8822TIP3    H247882   4.112   5.244  13.650 -1.6647  1.1511  0.1756
 8823TIP3   OH247883   1.782   0.519   6.283  0.2836 -0.0124 -0.1834
 8823TIP3    H147884   1.816   0.438   6.319 -1.0958 -0.3283  0.4959
 8823TIP3    H247885   1.798   0.584   6.351 -1.9861 -0.5326  0.9404
 8824TIP3   OH247886   3.255   3.302  17.013  0.4254  0.3194 -0.1281
 8824TIP3    H147887   3.164   3.273  17.016  1.3412 -2.8397  0.8479
 8824TIP3    H247888   3.261   3.371  17.079 -1.3102  0.8240 -0.4676
 8825TIP3   OH247889   6.348   1.473  13.863 -0.5348 -0.1793 -0.1196
 8825TIP3    H147890   6.356   1.410  13.935  0.6630 -0.4426 -0.4519
 8825TIP3    H247891   6.398   1.434  13.792 -0.4484  0.7786 -0.5982
 8826TIP3   OH247892   1.557   0.602   2.287 -0.3981 -0.6936  0.1936
 8826TIP3    H147893   1.616   0.664   2.246  0.1696 -0.6258  1.1000
 8826TIP3    H247894   1.470   0.642   2.278  0.0932  0.8917  1.9226
 8827TIP3   OH247895   5.140   1.400  15.795  0.1835  0.1054 -0.3547
 8827TIP3    H147896   5.183   1.483  15.817  1.2567  0.2861 -2.7985
 8827TIP3    H247897   5.054   1.426  15.762 -0.0196  0.1280  0.1901
 8828TIP3   OH247898   2.543   0.297  14.609  0.0483 -0.2985 -0.8955
 8828TIP3    H147899   2.609   0.289  14.677 -0.4625 -0.9290 -0.4653
 8828TIP3    H247900   2.594   0.305  14.528  0.6553  0.3811 -0.4614
 8829TIP3   OH247901   2.758   2.341   5.851  0.2214  0.3862  0.4196
 8829TIP3    H147902   2.775   2.420   5.801 -0.0067 -0.9374 -1.9174
 8829TIP3    H247903   2.662   2.332   5.850  0.3138 -1.5395 -2.2539
 8830TIP3   OH247904   2.011   3.012  16.311  0.2513 -0.7301 -0.1127
 8830TIP3    H147905   2.002   2.931  16.262 -1.3178 -1.8583  1.8685
 8830TIP3    H247906   1.982   3.081  16.251  1.3308 -1.6135 -1.7247
 8831TIP3   OH247907   6.601   2.505   3.278 -0.0940  0.2354 -0.7417
 8831TIP3    H147908   6.658   2.560   3.330  0.1763 -0.3605 -0.3991
 8831TIP3    H247909   6.517   2.552   3.275 -0.0036  0.4420 -0.0726
 8832TIP3   OH247910   3.872   1.542   5.795 -0.1898 -0.0699 -0.0872
 8832TIP3    H147911   3.914   1.617   5.754 -1.0617  0.7709  0.5410
 8832TIP3    H247912   3.908   1.540   5.884  0.7712 -1.1626 -0.4649
 8833TIP3   OH247913   1.894   1.190  12.166  0.9223  0.2925 -0.2488
 8833TIP3    H147914   1.819   1.237  12.130  1.4463  0.2859 -1.4149
 8833TIP3    H247915   1.941   1.255  12.218  0.4524  0.4650 -0.0353
 8834TIP3   OH247916   2.664   1.359  14.839  0.0381  0.7167 -0.0585
 8834TIP3    H147917   2.611   1.297  14.889  0.5077 -0.6601 -1.1872
 8834TIP3    H247918   2.671   1.436  14.895 -0.7680 -0.1586  1.2954
 8835TIP3   OH247919   3.253   3.855  15.598  0.2198 -0.0381 -0.1688
 8835TIP3    H147920   3.191   3.870  15.526 -1.3889  0.2294  1.2229
 8835TIP3    H247921   3.277   3.942  15.628 -0.4564 -0.1369  0.7058
 8836TIP3   OH247922   6.341   2.959  15.570 -0.1406 -0.1232 -0.1019
 8836TIP3    H147923   6.388   3.006  15.639  1.1165 -0.2704 -0.8203
 8836TIP3    H247924   6.410   2.921  15.515 -1.0553  0.8986 -2.0696
 8837TIP3   OH247925   1.395   5.625   2.004  0.0449  0.1136 -0.2108
 8837TIP3    H147926   1.446   5.635   1.923  0.6852 -0.4124  0.1187
 8837TIP3    H247927   1.455   5.583   2.065 -0.3765  0.6514  0.5999
 8838TIP3   OH247928   4.465   6.713  13.037 -0.0985  0.0783 -0.5795
 8838TIP3    H147929   4.415   6.789  13.006  0.0860 -0.0365 -1.1683
 8838TIP3    H247930   4.428   6.694  13.123 -1.9292 -0.7599 -1.4902
 8839TIP3   OH247931   0.733   3.024   1.560  0.2752  0.0549 -0.2946
 8839TIP3    H147932   0.743   3.110   1.519 -0.5490 -0.1726 -1.0007
 8839TIP3    H247933   0.676   3.040   1.635 -1.1458 -0.1152 -1.3096
 8840TIP3   OH247934   4.644   1.944  15.938  0.3436 -0.8675  0.1396
 8840TIP3    H147935   4.642   1.974  15.847 -1.7642  0.1814  0.4785
 8840TIP3    H247936   4.672   2.022  15.987  2.7346 -1.7699  0.3329
 8841TIP3   OH247937   6.624   5.482   3.708  0.4163 -0.4482 -0.3768
 8841TIP3    H147938   6.601   5.562   3.660 -0.6721 -0.6449 -0.2102
 8841TIP3    H247939   6.695   5.509   3.766 -0.7605  0.7405  0.5751
 8842TIP3   OH247940   3.900   4.027  16.238 -0.2217 -0.7134  0.4102
 8842TIP3    H147941   3.882   3.981  16.155  3.0603 -1.1459 -0.2146
 8842TIP3    H247942   3.853   3.976  16.304 -0.9646 -1.8218 -0.9158
 8843TIP3   OH247943   0.341   4.451  13.514 -0.3994  0.2413 -0.1504
 8843TIP3    H147944   0.396   4.373  13.514 -1.1014 -0.2940 -1.7757
 8843TIP3    H247945   0.251   4.416  13.515 -0.7579  1.0852  2.1608
 8844TIP3   OH247946   1.349   5.070  10.830 -0.1868 -0.2948  0.4503
 8844TIP3    H147947   1.414   5.003  10.812 -0.3697 -0.2678 -0.3380
 8844TIP3    H247948   1.265   5.024  10.826 -0.3141 -0.0195 -0.1213
 8845TIP3   OH247949   5.498   0.332  14.451  0.1482  0.2999 -0.3269
 8845TIP3    H147950   5.491   0.257  14.511  0.0858  1.0488  0.6312
 8845TIP3    H247951   5.422   0.325  14.395 -1.1925  0.9482  1.3153
 8846TIP3   OH247952   3.666   4.617  11.944  0.2128 -0.0743  0.0032
 8846TIP3    H147953   3.604   4.689  11.932 -0.5120 -0.8292 -0.8976
 8846TIP3    H247954   3.673   4.606  12.039 -0.0741  0.8298  0.1337
 8847TIP3   OH247955   1.977   0.897   1.171 -0.5572  0.3894  0.3091
 8847TIP3    H147956   2.047   0.834   1.156 -2.0124 -0.9312 -1.3582
 8847TIP3    H247957   1.953   0.885   1.263 -0.7497 -1.4860  0.0600
 8848TIP3   OH247958   2.235   6.746   1.843 -0.4621  0.0133  0.0607
 8848TIP3    H147959   2.174   6.788   1.782 -0.0812  0.7503  0.1713
 8848TIP3    H247960   2.321   6.759   1.804  0.0162  2.1969  1.6209
 8849TIP3   OH247961   6.588   4.034  11.428  0.1695 -0.0139 -0.1665
 8849TIP3    H147962   6.571   4.061  11.518 -2.4658 -0.7717 -0.3536
 8849TIP3    H247963   6.612   4.114  11.383 -2.4123  1.1650  0.3941
 8850TIP3   OH247964   1.423   2.811   1.766 -0.3033  0.7154  0.2150
 8850TIP3    H147965   1.347   2.838   1.818  0.2046  2.3029  0.1965
 8850TIP3    H247966   1.474   2.756   1.824 -0.0249  2.0137  1.2588
 8851TIP3   OH247967   0.343   1.332  10.957  0.0364 -0.6681 -0.1796
 8851TIP3    H147968   0.398   1.294  11.025 -0.2910 -1.6606 -0.4468
 8851TIP3    H247969   0.265   1.275  10.955 -1.1036  0.8099  0.3373
 8852TIP3   OH247970   1.650   2.692   5.959  0.3605  0.0266 -0.3279
 8852TIP3    H147971   1.664   2.771   5.907  0.1560 -0.7693 -1.6481
 8852TIP3    H247972   1.649   2.723   6.050 -1.1532  1.7450 -0.8685
 8853TIP3   OH247973   1.113   5.667  11.098 -0.3715 -0.5648 -0.0795
 8853TIP3    H147974   1.063   5.747  11.113  0.6654  0.3409 -1.1678
 8853TIP3    H247975   1.098   5.614  11.176 -0.2376  1.1605  1.1837
 8854TIP3   OH247976   5.711   6.663   1.611  0.3407 -0.2429  0.4762
 8854TIP3    H147977   5.786   6.713   1.641  1.2402 -0.1249 -1.7395
 8854TIP3    H247978   5.718   6.665   1.515 -1.0830 -2.3477  0.2601
 8855TIP3   OH247979   5.734   6.675  11.830  0.0201  0.2358 -0.2593
 8855TIP3    H147980   5.824   6.652  11.807  0.2439 -0.2237  0.9694
 8855TIP3    H247981   5.703   6.600  11.880 -0.8265  0.6773 -0.1108
 8856TIP3   OH247982   3.461   5.504   1.757  0.1051  0.2578  0.1573
 8856TIP3    H147983   3.504   5.419   1.749 -0.6966 -0.1079 -0.4331
 8856TIP3    H247984   3.480   5.533   1.846 -3.1926 -2.5748  2.0018
 8857TIP3   OH247985   5.574   5.372   1.326 -0.0727  0.5833 -0.5021
 8857TIP3    H147986   5.655   5.411   1.294  0.3344  0.1782  0.0160
 8857TIP3    H247987   5.576   5.282   1.295 -0.0036  0.3851  0.0532
 8858TIP3   OH247988   1.788   1.770  12.790 -0.2756 -0.1530  0.8410
 8858TIP3    H147989   1.786   1.701  12.857 -0.0215  0.6047  1.6466
 8858TIP3    H247990   1.698   1.776  12.759 -0.4398 -0.3795  1.2647
 8859TIP3   OH247991   4.458   3.696   5.966 -0.1963  0.3769  0.4821
 8859TIP3    H147992   4.494   3.625   6.018 -1.0926 -0.5037 -0.0550
 8859TIP3    H247993   4.513   3.772   5.986 -0.1788 -0.0669  2.2730
 8860TIP3   OH247994   0.628   0.872  12.806 -0.8987 -0.7387  0.0152
 8860TIP3    H147995   0.575   0.900  12.880 -0.3242 -2.1522  0.9800
 8860TIP3    H247996   0.586   0.792  12.775  0.0068 -1.2381  0.0648
 8861TIP3   OH247997   3.443   1.016  15.523  0.0687 -0.1943  0.4850
 8861TIP3    H147998   3.494   1.079  15.473  0.9723 -0.7825  0.6457
 8861TIP3    H247999   3.373   1.068  15.563 -0.1018  0.4350 -0.6017
 8862TIP3   OH248000   3.724   3.392   1.057 -0.0061 -0.3477 -0.4666
 8862TIP3    H148001   3.751   3.333   0.987  0.5130  0.3681 -0.8868
 8862TIP3    H248002   3.774   3.363   1.134  0.7257 -0.0829 -0.8280
 8863TIP3   OH248003   2.163   6.033  10.997  0.1440  0.1212  0.2735
 8863TIP3    H148004   2.121   6.106  11.043 -0.8708 -1.4212  1.9079
 8863TIP3    H248005   2.091   5.979  10.967  0.8691  0.0168 -1.3855
 8864TIP3   OH248006   2.126   6.286   3.576  0.2954 -0.3993  0.0408
 8864TIP3    H148007   2.096   6.350   3.640  2.2966 -0.4033  1.0640
 8864TIP3    H248008   2.103   6.324   3.491  0.6801  1.2847  0.6574
 8865TIP3   OH248009   0.437   3.923  15.082 -0.1146 -0.1725 -0.3339
 8865TIP3    H148010   0.516   3.926  15.135  0.1665 -0.0621 -0.7506
 8865TIP3    H248011   0.420   3.829  15.070  1.3523 -0.2501 -2.2618
 8866TIP3   OH248012   2.015   3.774   1.544  0.3024  0.0617 -0.5430
 8866TIP3    H148013   2.108   3.792   1.532 -0.0443  0.5952 -2.7470
 8866TIP3    H248014   1.976   3.859   1.564  0.4734 -0.4197  2.3560
 8867TIP3   OH248015   6.501   4.717   2.173 -0.9906  0.1594  0.3014
 8867TIP3    H148016   6.447   4.660   2.118 -0.7036 -0.6299  0.8117
 8867TIP3    H248017   6.537   4.781   2.112 -2.8648  1.0091  0.0240
 8868TIP3   OH248018   5.655   1.691   6.060  0.0990 -0.3993  0.0838
 8868TIP3    H148019   5.742   1.656   6.078 -0.1141 -0.9944 -0.0275
 8868TIP3    H248020   5.621   1.635   5.991 -0.8791 -1.0040  1.0153
 8869TIP3   OH248021   5.730   6.284   4.302  0.4616 -0.1577 -0.1630
 8869TIP3    H148022   5.648   6.333   4.311 -0.5355 -2.0268  1.8398
 8869TIP3    H248023   5.798   6.345   4.332 -0.5510  0.5075  0.8504
 8870TIP3   OH248024   4.784   4.936   2.399  0.0815  0.5449 -0.1173
 8870TIP3    H148025   4.758   4.959   2.487  0.3453  0.4572 -0.0143
 8870TIP3    H248026   4.846   4.864   2.410 -1.6549 -1.0955 -0.4763
 8871TIP3   OH248027   2.032   3.237  12.855 -0.1067 -0.0556  0.3432
 8871TIP3    H148028   2.097   3.262  12.790  0.0139 -1.0989  0.0557
 8871TIP3    H248029   1.948   3.252  12.812 -0.0310 -0.4645  0.0543
 8872TIP3   OH248030   3.752   2.471  16.059  0.2302  0.3527  0.1091
 8872TIP3    H148031   3.750   2.503  16.149  0.1578  1.7095 -0.3472
 8872TIP3    H248032   3.673   2.417  16.051 -0.4518  1.2582  0.5108
 8873TIP3   OH248033   6.061   3.792  15.714 -0.5701 -0.9377 -0.0067
 8873TIP3    H148034   6.013   3.718  15.749  2.3004 -2.2229  1.6127
 8873TIP3    H248035   6.101   3.833  15.792 -1.0102  1.5466 -0.9933
 8874TIP3   OH248036   2.092   0.160   1.331  0.3884  0.0419  0.1646
 8874TIP3    H148037   2.178   0.179   1.369 -0.9411 -0.1201  3.6278
 8874TIP3    H248038   2.059   0.246   1.304  1.3031  0.2016 -0.5111
 8875TIP3   OH248039   3.750   3.847  14.009 -0.2017  0.0575  0.7621
 8875TIP3    H148040   3.674   3.899  14.033  0.9200  1.1708  2.0660
 8875TIP3    H248041   3.825   3.897  14.043  1.2224 -0.3381 -1.5551
 8876TIP3   OH248042   1.450   0.157  11.527 -0.1055  0.2183 -0.0310
 8876TIP3    H148043   1.496   0.122  11.451 -0.0424  1.0276 -0.3636
 8876TIP3    H248044   1.511   0.219  11.566 -0.5058  0.5061  0.1379
 8877TIP3   OH248045   5.836   2.084  12.742  0.0799 -0.1460  0.4168
 8877TIP3    H148046   5.908   2.089  12.679 -0.6599 -0.3035 -0.4800
 8877TIP3    H248047   5.785   2.163  12.725 -0.0667 -0.1387  0.9001
 8878TIP3   OH248048   2.295   0.267  12.457  0.3069 -0.1776  0.4460
 8878TIP3    H148049   2.208   0.231  12.440 -0.1597  1.1193 -0.0709
 8878TIP3    H248050   2.354   0.213  12.404  0.1936 -2.5699  2.5548
 8879TIP3   OH248051   5.716   4.600  11.707 -0.4942 -0.5167 -0.3162
 8879TIP3    H148052   5.740   4.511  11.683  0.2935 -0.7943  1.3351
 8879TIP3    H248053   5.649   4.590  11.774  0.7878  0.0309  1.1278
 8880TIP3   OH248054   5.490   3.745   0.367  0.1243 -0.8694 -0.2133
 8880TIP3    H148055   5.558   3.684   0.340  2.3083  0.7203  1.3141
 8880TIP3    H248056   5.455   3.780   0.285  0.9984 -1.8886 -1.0474
 8881TIP3   OH248057   0.321   6.496   6.052 -0.0797 -0.3350  0.1080
 8881TIP3    H148058   0.246   6.536   6.007  0.6438  0.9153 -0.0228
 8881TIP3    H248059   0.397   6.545   6.021  0.5357  0.0337  2.0508
 8882TIP3   OH248060   0.762   3.635  11.236  0.1085 -0.7068  0.3484
 8882TIP3    H148061   0.675   3.609  11.265  0.5109 -1.2723  1.0640
 8882TIP3    H248062   0.816   3.631  11.314  0.9730 -1.2077 -0.2591
 8883TIP3   OH248063   4.468   2.633  12.582  0.4407 -0.1765 -0.4582
 8883TIP3    H148064   4.549   2.660  12.624  0.7162 -1.0012 -0.4425
 8883TIP3    H248065   4.430   2.715  12.548  1.5684  0.1424 -0.9882
 8884TIP3   OH248066   4.514   1.021  14.427 -0.0437 -0.3048 -0.3279
 8884TIP3    H148067   4.464   0.965  14.367  0.3506 -0.1436 -0.8130
 8884TIP3    H248068   4.592   1.045  14.378 -0.2133  0.6914 -0.1268
 8885TIP3   OH248069   6.162   5.254  11.024  0.3253 -0.4103 -0.2810
 8885TIP3    H148070   6.174   5.348  11.037  4.9590 -0.8997  0.5673
 8885TIP3    H248071   6.147   5.244  10.930 -0.5475  1.1034 -0.3402
 8886TIP3   OH248072   0.515   0.456   5.305  0.4686 -0.2016 -0.1131
 8886TIP3    H148073   0.448   0.414   5.360  1.2832 -2.3809 -0.6923
 8886TIP3    H248074   0.590   0.468   5.363 -0.1390  1.6280  0.3589
 8887TIP3   OH248075   0.778   5.135   4.506 -0.1510 -0.8765 -0.2084
 8887TIP3    H148076   0.689   5.101   4.493  0.0192 -1.8297  0.9768
 8887TIP3    H248077   0.767   5.211   4.562 -0.1086 -1.9951  1.3905
 8888TIP3   OH248078   2.324   2.671   3.267 -0.8919  0.0141 -0.4366
 8888TIP3    H148079   2.305   2.579   3.285  1.3358 -0.5160 -0.5473
 8888TIP3    H248080   2.296   2.685   3.176 -1.7316 -0.3773 -0.2485
 8889TIP3   OH248081   2.436   4.137   5.374 -0.0053 -0.3691  0.3325
 8889TIP3    H148082   2.499   4.068   5.392 -1.3598 -1.6400  0.3453
 8889TIP3    H248083   2.450   4.159   5.282  2.8458  1.9391  1.1462
 8890TIP3   OH248084   5.828   5.517  12.303  0.0008 -0.3652 -0.0717
 8890TIP3    H148085   5.876   5.435  12.294 -1.0117 -0.9786 -0.0124
 8890TIP3    H248086   5.763   5.515  12.232  0.6987  0.9104 -0.7767
 8891TIP3   OH248087   4.581   6.352  13.568 -0.1998  0.8704  0.0607
 8891TIP3    H148088   4.491   6.358  13.536  0.1096 -0.9425 -1.4145
 8891TIP3    H248089   4.633   6.339  13.488  1.3230  1.5169  0.9128
 8892TIP3   OH248090   0.858   2.321   2.475 -0.2504 -0.4023 -0.0300
 8892TIP3    H148091   0.928   2.374   2.437 -0.9812  0.0704 -0.7555
 8892TIP3    H248092   0.814   2.378   2.537  0.4397 -0.9233  0.9510
 8893TIP3   OH248093   1.753   1.337   3.782 -0.1909 -0.0694  0.0117
 8893TIP3    H148094   1.799   1.332   3.698 -2.1988 -0.4946 -1.1302
 8893TIP3    H248095   1.785   1.261   3.832  1.6436  0.6509  0.0205
 8894TIP3   OH248096   0.051   2.303   2.714  0.1890 -0.2218  0.4652
 8894TIP3    H148097   0.042   2.318   2.620 -0.6817  2.9880  0.9398
 8894TIP3    H248098   0.145   2.292   2.727  0.3226 -0.7297 -0.7708
 8895TIP3   OH248099   4.001   5.221  16.214  0.2210 -0.0058  0.2823
 8895TIP3    H148100   3.941   5.295  16.218 -1.1392 -0.9100 -1.7144
 8895TIP3    H248101   4.077   5.254  16.165  0.6626  0.6765  1.3906
 8896TIP3   OH248102   2.731   1.042  15.786  0.3796 -0.2157  0.1897
 8896TIP3    H148103   2.689   1.006  15.708 -0.2688 -0.5777  0.6938
 8896TIP3    H248104   2.825   1.033  15.769  0.3034  1.5852 -1.4142
 8897TIP3   OH248105   6.749   6.242   4.922  0.0916  0.1972  0.2735
 8897TIP3    H148106   6.686   6.197   4.866 -1.0292 -1.3294  2.5766
 8897TIP3    H248107   6.832   6.198   4.905  0.0803  0.6658 -1.1103
 8898TIP3   OH248108   1.517   4.707   1.345  0.5002  0.0545  0.7099
 8898TIP3    H148109   1.512   4.742   1.256  1.3272 -0.3128  0.5112
 8898TIP3    H248110   1.543   4.782   1.399  0.0792  0.2577  0.6349
 8899TIP3   OH248111   0.613   5.929  13.126 -0.4427 -0.5257 -0.2172
 8899TIP3    H148112   0.704   5.948  13.100 -0.6633 -0.5531 -1.0439
 8899TIP3    H248113   0.588   5.855  13.070 -1.2991  0.1125 -0.6921
 8900TIP3   OH248114   4.100   3.777  12.182 -0.3581 -0.3587 -0.0301
 8900TIP3    H148115   4.069   3.747  12.097  0.2298  0.2277 -0.4583
 8900TIP3    H248116   4.082   3.871  12.182 -0.8614 -0.4417  0.7228
 8901TIP3   OH248117   1.082   3.822  14.915 -0.2077 -0.2334 -0.1130
 8901TIP3    H148118   1.060   3.849  15.005 -0.3769 -0.3365 -0.1232
 8901TIP3    H248119   1.114   3.733  14.924  1.3977  0.3272  0.0592
 8902TIP3   OH248120   4.982   2.660   5.434 -0.0492 -0.0389  0.3925
 8902TIP3    H148121   4.990   2.707   5.517  0.9718 -0.7881  0.7396
 8902TIP3    H248122   4.918   2.591   5.452 -0.1390  0.0532  0.4283
 8903TIP3   OH248123   6.801   4.658   4.615 -0.5851  0.6310  0.6331
 8903TIP3    H148124   6.804   4.565   4.638 -0.0057  0.4914  0.0219
 8903TIP3    H248125   6.814   4.703   4.699 -1.3691  0.1772  1.0107
 8904TIP3   OH248126   5.920   0.935   3.344 -0.2834 -0.4265 -0.9424
 8904TIP3    H148127   5.967   0.886   3.277 -0.0258  0.1585 -1.1986
 8904TIP3    H248128   5.976   0.931   3.421  0.4114  0.6022 -1.3591
 8905TIP3   OH248129   3.541   2.593  15.079 -1.0107 -0.1116  0.0109
 8905TIP3    H148130   3.448   2.575  15.088 -0.9420 -2.0995 -2.1947
 8905TIP3    H248131   3.548   2.639  14.995 -0.0059  0.1163  0.2081
 8906TIP3   OH248132   3.381   6.345   3.867  0.2016  0.5451 -0.2818
 8906TIP3    H148133   3.303   6.296   3.841  0.1691  0.1617  0.4973
 8906TIP3    H248134   3.408   6.391   3.788 -1.8970  2.1837 -0.1182
 8907TIP3   OH248135   2.361   3.782   0.579 -0.2518  0.3078 -0.8044
 8907TIP3    H148136   2.334   3.705   0.629  1.2714  1.4629  2.0534
 8907TIP3    H248137   2.292   3.846   0.593 -0.4621  0.1977 -1.3236
 8908TIP3   OH248138   1.655   2.077  11.034  0.3769 -0.2648  0.2234
 8908TIP3    H148139   1.572   2.099  11.077  0.1625  0.5803 -0.5953
 8908TIP3    H248140   1.637   1.997  10.986  0.4350 -0.8522  1.1487
 8909TIP3   OH248141   3.860   4.701   0.245  0.3141  0.0107  0.0474
 8909TIP3    H148142   3.767   4.716   0.226  0.7105  0.3285 -1.8188
 8909TIP3    H248143   3.878   4.613   0.213  0.8565  0.3115 -0.5132
 8910TIP3   OH248144   2.426   1.079  13.013 -0.2765  0.4849 -0.9071
 8910TIP3    H148145   2.387   1.030  12.940 -0.3128  0.0770 -0.6158
 8910TIP3    H248146   2.455   1.011  13.074 -1.2502  0.8468 -0.0185
 8911TIP3   OH248147   4.429   1.668   2.894  0.0828 -0.3777 -0.1357
 8911TIP3    H148148   4.367   1.597   2.912 -0.9048  0.9150  1.9960
 8911TIP3    H248149   4.500   1.655   2.957 -0.0351  0.4083  0.1737
 8912TIP3   OH248150   1.672   1.430  16.256  0.0187  0.3661  0.0348
 8912TIP3    H148151   1.598   1.448  16.199 -0.5522 -0.9295  0.3329
 8912TIP3    H248152   1.706   1.345  16.227 -0.3839 -0.4054  1.6842
 8913TIP3   OH248153   1.443   2.720   4.587 -0.0104 -0.0399 -0.4713
 8913TIP3    H148154   1.368   2.683   4.633  0.0661  0.1538 -0.1877
 8913TIP3    H248155   1.490   2.644   4.552 -0.3715 -0.1604 -0.7106
 8914TIP3   OH248156   6.191   4.895   3.439 -0.4149 -0.2760  0.5347
 8914TIP3    H148157   6.210   4.837   3.512 -1.5324  1.4125  2.2815
 8914TIP3    H248158   6.196   4.839   3.362  2.1411 -1.8613  1.7164
 8915TIP3   OH248159   5.158   4.272   1.525  0.2910  0.3063  0.1584
 8915TIP3    H148160   5.105   4.284   1.446 -2.9414 -2.8040  1.6020
 8915TIP3    H248161   5.108   4.317   1.593  0.8426 -0.5702  1.1533
 8916TIP3   OH248162   4.619   5.136   4.001  0.5373  0.0646  0.9712
 8916TIP3    H148163   4.527   5.162   4.007 -0.5920 -3.4331  1.3045
 8916TIP3    H248164   4.641   5.104   4.089  1.8156  0.0090  0.6568
 8917TIP3   OH248165   0.748   2.729   3.837 -0.3577 -0.3193  0.1577
 8917TIP3    H148166   0.662   2.739   3.796 -0.6347 -0.7993  0.6101
 8917TIP3    H248167   0.736   2.758   3.927  0.1524  0.3549  0.0152
 8918TIP3   OH248168   6.053   2.046  12.590 -0.5304 -0.2232 -0.5550
 8918TIP3    H148169   6.135   2.081  12.625 -0.3771 -0.6082 -0.5185
 8918TIP3    H248170   6.077   1.959  12.558 -0.7876 -0.0888 -1.1189
 8919TIP3   OH248171   4.693   3.651  12.330 -0.0097 -0.4894  0.0557
 8919TIP3    H148172   4.654   3.698  12.403  0.4747  0.6167 -0.3834
 8919TIP3    H248173   4.644   3.569  12.325 -1.2723  0.2289  0.4436
 8920TIP3   OH248174   6.441   2.576  11.193 -0.2420  0.2142 -0.7742
 8920TIP3    H148175   6.383   2.651  11.205 -0.2644  0.0894 -0.0219
 8920TIP3    H248176   6.451   2.568  11.098  0.4229  1.6679 -0.8570
 8921TIP3   OH248177   3.876   3.862  15.310  0.6619  0.4658  0.2043
 8921TIP3    H148178   3.940   3.909  15.257 -0.5259 -0.0833 -1.8012
 8921TIP3    H248179   3.791   3.895  15.281 -0.0779 -0.6902  0.9664
 8922TIP3   OH248180   3.881   4.440  15.037  0.1993 -0.5823 -0.4911
 8922TIP3    H148181   3.836   4.405  15.114  0.9810 -1.5069 -0.4346
 8922TIP3    H248182   3.863   4.375  14.968 -1.8407  1.0209 -1.5695
 8923TIP3   OH248183   5.918   3.145   5.208 -0.3233  0.3327 -0.0046
 8923TIP3    H148184   6.011   3.148   5.233  0.2577 -0.1485 -1.9279
 8923TIP3    H248185   5.911   3.208   5.136 -1.1991 -0.4952 -0.6752
 8924TIP3   OH248186   4.443   1.114   4.228 -0.4652 -1.1074 -0.1527
 8924TIP3    H148187   4.418   1.144   4.315 -0.2999 -0.0676 -0.4446
 8924TIP3    H248188   4.436   1.019   4.232 -1.8453 -1.0012  0.5625
 8925TIP3   OH248189   6.185   5.987  16.214 -0.4635  0.2380  0.1403
 8925TIP3    H148190   6.278   5.976  16.196 -0.5763  1.4395 -1.4226
 8925TIP3    H248191   6.157   5.903  16.250  0.8402 -0.7969 -1.1464
 8926TIP3   OH248192   5.948   1.617  16.886 -0.5067 -0.0737  0.1766
 8926TIP3    H148193   5.897   1.537  16.876 -1.1655  0.2868  0.6189
 8926TIP3    H248194   5.885   1.688  16.873  0.2650  0.3911 -1.2027
 8927TIP3   OH248195   5.591   1.603  16.237 -0.9096  0.7451 -0.2484
 8927TIP3    H148196   5.495   1.609  16.233 -0.8748  1.2562 -0.3227
 8927TIP3    H248197   5.611   1.518  16.197 -1.2942  0.8916 -0.7645
 8928TIP3   OH248198   3.391   0.912  11.887  0.2664 -0.3481 -0.2953
 8928TIP3    H148199   3.434   0.829  11.867  1.6286  0.3964 -0.5478
 8928TIP3    H248200   3.457   0.962  11.935 -0.5212  0.6211 -0.1967
 8929TIP3   OH248201   6.407   3.916  11.738 -0.3277  0.1379 -0.0548
 8929TIP3    H148202   6.354   3.840  11.711 -0.3051  0.2352 -0.3803
 8929TIP3    H248203   6.486   3.877  11.775  0.6564 -0.0125 -2.1624
 8930TIP3   OH248204   1.422   4.674  15.566 -0.2914 -0.5331  0.0795
 8930TIP3    H148205   1.513   4.695  15.547  0.1345 -0.0992  2.3071
 8930TIP3    H248206   1.422   4.580  15.585 -0.5008 -0.7231 -0.8050
 8931TIP3   OH248207   2.989   3.953  14.982  0.2746  0.0938 -0.0714
 8931TIP3    H148208   2.914   4.008  15.004  1.0460  1.4212 -0.6169
 8931TIP3    H248209   2.984   3.942  14.887  0.8314  0.2920 -0.1284
 8932TIP3   OH248210   0.727   4.764  16.290 -0.3161  0.8262  0.1005
 8932TIP3    H148211   0.808   4.772  16.238 -0.0806 -2.2952 -0.2034
 8932TIP3    H248212   0.657   4.766  16.224 -0.3869  1.5870  0.1843
 8933TIP3   OH248213   4.172   1.277   5.261 -0.0193  0.4299  0.3388
 8933TIP3    H148214   4.094   1.325   5.290  0.2392  0.6874  0.6153
 8933TIP3    H248215   4.230   1.344   5.226 -0.4436  0.0945 -1.0700
 8934TIP3   OH248216   3.084   3.449   3.157 -0.1158 -0.0280 -0.5817
 8934TIP3    H148217   3.101   3.433   3.064  1.9841  1.2677 -0.4722
 8934TIP3    H248218   3.092   3.363   3.198  1.2481 -0.2834 -1.3180
 8935TIP3   OH248219   2.631   0.963  11.315  0.0385 -0.1519 -0.0378
 8935TIP3    H148220   2.691   0.950  11.241  1.7197 -0.6676  1.3477
 8935TIP3    H248221   2.625   1.058  11.325 -0.1765 -0.0799 -0.8036
 8936TIP3   OH248222   4.138   4.297   0.761 -0.4874  0.6743 -0.0938
 8936TIP3    H148223   4.202   4.234   0.727  0.2037  1.9966 -1.3131
 8936TIP3    H248224   4.159   4.305   0.854 -0.7544 -1.0549  0.1587
 8937TIP3   OH248225   3.499   5.156  12.961 -0.2761  0.0205  0.2960
 8937TIP3    H148226   3.404   5.156  12.958 -0.2944 -0.2690  0.8728
 8937TIP3    H248227   3.525   5.184  12.873 -0.8778 -1.0714 -0.2488
 8938TIP3   OH248228   1.482   1.167  10.819 -0.0524  0.3149  0.1543
 8938TIP3    H148229   1.456   1.093  10.873  2.2462 -1.6208 -1.1691
 8938TIP3    H248230   1.400   1.202  10.783 -1.1819 -2.0997  0.2054
 8939TIP3   OH248231   6.737   3.267   5.745 -0.3480  0.1951  0.2311
 8939TIP3    H148232   6.806   3.212   5.710 -0.7870 -0.0864 -0.2047
 8939TIP3    H248233   6.674   3.275   5.674 -0.4163  1.0433  0.3767
 8940TIP3   OH248234   0.422   0.250  13.817 -0.3769 -0.3206  0.1130
 8940TIP3    H148235   0.351   0.294  13.770  0.8478  1.1171 -0.4486
 8940TIP3    H248236   0.407   0.157  13.802 -0.8150  0.0427 -1.9695
 8941TIP3   OH248237   2.122   6.583   1.023 -0.2251 -0.0123 -0.1442
 8941TIP3    H148238   2.103   6.497   0.986 -3.1588  1.1877 -1.7087
 8941TIP3    H248239   2.184   6.623   0.962 -2.0573  0.4737 -1.7884
 8942TIP3   OH248240   3.363   0.853  10.768  1.0277  0.0854 -0.0306
 8942TIP3    H148241   3.401   0.941  10.765 -1.1447  1.3168  3.2989
 8942TIP3    H248242   3.404   0.811  10.843  0.4258 -0.8936 -0.2345
 8943TIP3   OH248243   5.118   1.151   1.672  0.2234  0.9281  0.1382
 8943TIP3    H148244   5.024   1.142   1.684  0.2104  0.6061 -0.1853
 8943TIP3    H248245   5.157   1.091   1.735  0.1934  0.5202 -0.2275
 8944TIP3   OH248246   5.919   4.751   5.127  0.2364  0.0361  0.3229
 8944TIP3    H148247   5.927   4.670   5.077  0.7619 -0.5959  1.4171
 8944TIP3    H248248   5.910   4.819   5.060 -1.2823 -1.0052 -0.6122
 8945TIP3   OH248249   4.414   4.557   1.514  0.5902 -0.0379  0.7144
 8945TIP3    H148250   4.405   4.498   1.589  0.6631 -2.1113 -0.8376
 8945TIP3    H248251   4.484   4.618   1.540  0.7910 -0.8655  2.2178
 8946TIP3   OH248252   0.547   5.545  16.915  0.5524 -0.1096 -0.3015
 8946TIP3    H148253   0.500   5.487  16.855  1.1841 -1.4962  0.4799
 8946TIP3    H248254   0.589   5.610  16.860 -1.7487  0.7973 -1.0754
 8947TIP3   OH248255   5.607   3.445   2.334 -0.1156  0.0859 -0.1390
 8947TIP3    H148256   5.513   3.444   2.354  0.2044 -0.1561  1.4625
 8947TIP3    H248257   5.614   3.497   2.254 -1.6198  0.0372 -0.3278
 8948TIP3   OH248258   3.560   5.345  13.938 -0.0164 -0.2469  0.2941
 8948TIP3    H148259   3.569   5.251  13.955  0.3273 -0.2915 -0.1001
 8948TIP3    H248260   3.486   5.351  13.877 -0.5783 -0.1822  0.9776
 8949TIP3   OH248261   0.352   0.791  12.314  0.0462 -0.3552  0.0980
 8949TIP3    H148262   0.331   0.792  12.408 -1.6437  1.5965 -0.2176
 8949TIP3    H248263   0.448   0.792  12.311  0.1497 -1.4172  1.7682
 8950TIP3   OH248264   1.154   3.550   0.424 -0.1154  0.3350 -0.2605
 8950TIP3    H148265   1.159   3.486   0.353 -1.0210 -0.3682  0.2750
 8950TIP3    H248266   1.088   3.514   0.483 -0.6811  1.7911  0.0356
 8951TIP3   OH248267   2.141   0.095   0.098 -0.4189  0.1065  0.3432
 8951TIP3    H148268   2.121   0.089   0.005  1.1394  0.3670 -0.0468
 8951TIP3    H248269   2.087   0.027   0.139  0.2809 -1.3260 -1.0137
 8952TIP3   OH248270   2.385   2.073   3.519  0.2947  0.6629  0.1988
 8952TIP3    H148271   2.471   2.032   3.525 -0.0180  0.0925  0.9245
 8952TIP3    H248272   2.347   2.038   3.439  0.3272  0.0959  0.4262
 8953TIP3   OH248273   0.848   0.361   5.896 -0.8669  0.4792 -0.3850
 8953TIP3    H148274   0.796   0.308   5.956 -0.1401  0.5711  0.3477
 8953TIP3    H248275   0.860   0.306   5.819  0.2008 -0.5775  0.5190
 8954TIP3   OH248276   4.470   5.531  11.453 -0.3331 -0.1474 -0.7658
 8954TIP3    H148277   4.426   5.603  11.409  2.4473  1.2910 -1.3853
 8954TIP3    H248278   4.546   5.511  11.398  1.8280 -0.0453  1.9269
 8955TIP3   OH248279   5.297   5.059  11.655 -0.2605  0.0868  0.4544
 8955TIP3    H148280   5.371   5.012  11.692  2.4499  2.9257 -0.8829
 8955TIP3    H248281   5.254   5.100  11.731 -0.3509 -1.3811  1.2208
 8956TIP3   OH248282   6.221   4.395   3.336 -0.1114 -0.1953  0.2630
 8956TIP3    H148283   6.206   4.359   3.424 -0.0650 -1.5235 -0.2602
 8956TIP3    H248284   6.148   4.362   3.283 -0.8164  1.5773  0.0420
 8957TIP3   OH248285   6.769   2.323   5.913 -0.4986  0.5351 -0.2710
 8957TIP3    H148286   6.744   2.343   5.822  0.1320  1.7250 -0.2141
 8957TIP3    H248287   6.740   2.400   5.962 -2.0818 -0.6941  0.8016
 8958TIP3   OH248288   2.222   4.759   5.816 -0.0991  0.0778  0.1753
 8958TIP3    H148289   2.300   4.721   5.856  0.4001  0.0399 -0.8146
 8958TIP3    H248290   2.163   4.776   5.890 -0.3366 -2.5481  0.7168
 8959TIP3   OH248291   2.027   2.698   1.089  0.1400 -0.3477 -0.6039
 8959TIP3    H148292   2.042   2.607   1.115  0.9137 -0.0934 -0.1476
 8959TIP3    H248293   2.081   2.749   1.149  0.4602  0.3608 -1.4848
 8960TIP3   OH248294   2.880   3.961  15.951 -0.0666  0.6518 -0.2348
 8960TIP3    H148295   2.853   3.870  15.959 -0.0167  0.6131 -0.5027
 8960TIP3    H248296   2.894   3.974  15.857  1.5186  0.4754 -0.0457
 8961TIP3   OH248297   6.244   2.520   3.719 -0.2354 -0.3150 -0.1711
 8961TIP3    H148298   6.274   2.570   3.795 -0.2949 -1.1122  0.3921
 8961TIP3    H248299   6.310   2.535   3.651 -0.1952  0.4219  0.0315
 8962TIP3   OH248300   6.360   4.912  10.376 -0.3816  0.4308  0.2156
 8962TIP3    H148301   6.306   4.949  10.306  0.4366  1.0315 -0.1180
 8962TIP3    H248302   6.432   4.868  10.331 -0.4720 -0.1844  0.6577
 8963TIP3   OH248303   3.337   3.674  14.296 -0.3986  0.2657 -0.0665
 8963TIP3    H148304   3.329   3.678  14.201  0.0240  1.1922 -0.0715
 8963TIP3    H248305   3.399   3.602  14.311  2.7521  2.6364 -0.7235
 8964TIP3   OH248306   3.054   0.209  15.814  0.4780 -0.5075  0.2628
 8964TIP3    H148307   3.050   0.299  15.781 -0.0614 -0.3887  0.6318
 8964TIP3    H248308   3.140   0.177  15.787  0.3728 -0.1391 -0.5360
 8965TIP3   OH248309   5.543   3.895   3.732  0.0229 -0.1083  0.1480
 8965TIP3    H148310   5.620   3.912   3.678  0.4902 -0.0663  0.8090
 8965TIP3    H248311   5.575   3.901   3.822 -1.2284  2.3711  0.5392
 8966TIP3   OH248312   6.016   1.171   1.094  0.0690  0.1155 -0.1528
 8966TIP3    H148313   5.924   1.199   1.095 -0.5262 -1.6799 -0.3341
 8966TIP3    H248314   6.015   1.089   1.043  1.6501 -0.3187  0.4604
 8967TIP3   OH248315   5.927   0.590   2.346  0.0411  0.7160 -0.2314
 8967TIP3    H148316   5.942   0.498   2.321 -1.6418  0.4161 -0.2572
 8967TIP3    H248317   5.886   0.585   2.432 -1.1141  1.3763 -0.7293
 8968TIP3   OH248318   3.396   4.888   0.199  0.3735 -0.3194  0.2133
 8968TIP3    H148319   3.410   4.980   0.177 -1.0081 -0.0772  0.2168
 8968TIP3    H248320   3.415   4.882   0.293 -1.9893  0.5790  0.8195
 8969TIP3   OH248321   3.306   1.056   3.047 -0.4663 -0.3681  0.3545
 8969TIP3    H148322   3.346   0.969   3.050  0.7263  0.1257 -0.4850
 8969TIP3    H248323   3.272   1.070   3.135 -1.2781 -1.9402  0.3258
 8970TIP3   OH248324   1.852   0.045   4.271 -0.0855  0.1798  0.3101
 8970TIP3    H148325   1.769   0.086   4.297  0.3770  1.3363  0.0439
 8970TIP3    H248326   1.827  -0.039   4.234 -1.2380  0.9318 -0.6852
 8971TIP3   OH248327   5.130   4.149  15.190 -0.3794  0.8330 -1.1601
 8971TIP3    H148328   5.214   4.105  15.177 -1.3933 -1.0435 -1.6670
 8971TIP3    H248329   5.069   4.079  15.213 -1.4826  2.3501  0.9420
 8972TIP3   OH248330   6.664   6.673  11.264  0.0167 -0.0338  0.0056
 8972TIP3    H148331   6.698   6.761  11.247  0.8759 -0.4626 -0.5838
 8972TIP3    H248332   6.700   6.649  11.349  0.1698  0.0005 -0.0496
 8973TIP3   OH248333   2.815   2.440  15.527  0.0816 -0.1634  0.3346
 8973TIP3    H148334   2.811   2.471  15.437  0.5141  0.8576  0.6457
 8973TIP3    H248335   2.748   2.372  15.533 -0.7383  0.5652 -0.4415
 8974TIP3   OH248336   4.716   2.900   6.770  0.4664  0.2206  0.2295
 8974TIP3    H148337   4.773   2.827   6.793  0.4422  0.5607  1.4319
 8974TIP3    H248338   4.633   2.882   6.815  0.5530  1.1217  0.7682
 8975TIP3   OH248339   5.310   4.595  11.706 -0.0505 -0.1413  0.7260
 8975TIP3    H148340   5.216   4.610  11.699 -0.1767 -0.5829  1.3907
 8975TIP3    H248341   5.335   4.562  11.620 -0.0810  2.1082 -0.1950
 8976TIP3   OH248342   5.409   5.620  15.764  0.0120  0.2427 -0.0124
 8976TIP3    H148343   5.415   5.682  15.837  1.4343  0.5832 -0.3779
 8976TIP3    H248344   5.318   5.589  15.766 -0.3144  1.1832  1.1187
 8977TIP3   OH248345   4.751   0.382   2.485  0.1355  0.1338  0.2983
 8977TIP3    H148346   4.792   0.314   2.538  0.2824  1.0502  1.3950
 8977TIP3    H248347   4.822   0.415   2.429  0.7523  1.1679  1.6290
 8978TIP3   OH248348   2.088   4.276   1.558  0.7435  0.4217  1.0363
 8978TIP3    H148349   2.158   4.270   1.493 -0.8874 -0.3686 -0.7729
 8978TIP3    H248350   2.127   4.321   1.632  2.9756  0.5378 -0.1282
 8979TIP3   OH248351   3.093   4.755   2.575 -0.4357  0.5161 -0.1161
 8979TIP3    H148352   3.027   4.808   2.619 -0.0517  0.6428  0.3120
 8979TIP3    H248353   3.048   4.720   2.498 -1.1769  0.1188  0.4840
 8980TIP3   OH248354   6.161   5.225  16.937 -0.2580  0.4187 -0.1097
 8980TIP3    H148355   6.106   5.165  16.988  0.4775 -0.8331 -0.7457
 8980TIP3    H248356   6.100   5.293  16.906 -0.9381  0.5589  1.4014
 8981TIP3   OH248357   2.610   2.109  15.988 -0.0841  0.8126  0.3061
 8981TIP3    H148358   2.643   2.151  15.908 -0.0718  1.0866  0.4545
 8981TIP3    H248359   2.662   2.147  16.058 -0.2902  0.7809  0.4758
 8982TIP3   OH248360   5.913   6.109  15.231  0.1462  0.4000  0.2379
 8982TIP3    H148361   5.989   6.154  15.194 -0.2234  1.3209  0.5785
 8982TIP3    H248362   5.883   6.166  15.301 -1.2455  0.3644 -0.3079
 8983TIP3   OH248363   4.744   5.605   3.830 -0.2517  0.2797  0.4086
 8983TIP3    H148364   4.801   5.554   3.773 -0.2036  2.0695 -1.2592
 8983TIP3    H248365   4.730   5.550   3.907 -1.0376 -2.6510 -1.6836
 8984TIP3   OH248366   1.004   4.020  11.026  0.4239  0.0399  0.2096
 8984TIP3    H148367   1.057   3.961  11.080  0.9209  1.6958  1.6574
 8984TIP3    H248368   0.916   4.012  11.062  0.5686  0.4386  0.6710
 8985TIP3   OH248369   0.013   6.403   3.165 -0.1210  0.0981 -0.0200
 8985TIP3    H148370   0.087   6.348   3.191  0.5812  0.8820 -0.2875
 8985TIP3    H248371   0.018   6.406   3.070 -0.5638  0.0672 -0.0440
 8986TIP3   OH248372   3.388   1.457  13.428 -0.0905 -0.0950 -0.2013
 8986TIP3    H148373   3.360   1.385  13.484 -2.8160  1.2961  0.3937
 8986TIP3    H248374   3.398   1.531  13.488 -0.1958  0.7187 -1.1740
 8987TIP3   OH248375   5.136   1.049   1.400  0.5897 -0.1034  0.3010
 8987TIP3    H148376   5.217   0.998   1.394 -0.1346 -1.3626  0.8456
 8987TIP3    H248377   5.133   1.079   1.491  0.3902 -0.1349  0.3047
 8988TIP3   OH248378   5.546   2.634   3.823  0.4478 -0.1199 -0.7374
 8988TIP3    H148379   5.522   2.632   3.915  2.1761  1.3509 -0.1902
 8988TIP3    H248380   5.483   2.577   3.780 -0.2709 -1.0004  1.3739
 8989TIP3   OH248381   4.340   0.699   1.623  0.4543  0.1434  0.3793
 8989TIP3    H148382   4.257   0.706   1.576  0.6914  0.0798 -0.0443
 8989TIP3    H248383   4.407   0.723   1.559  0.7909 -0.1013  0.6364
 8990TIP3   OH248384   5.296   0.589  10.708  0.6153 -0.0428 -0.1718
 8990TIP3    H148385   5.283   0.681  10.686  1.7007  0.2246  0.2398
 8990TIP3    H248386   5.210   0.558  10.737  0.3643  0.9969  0.2280
 8991TIP3   OH248387   5.865   4.446   4.692 -0.4785 -0.0213  0.0385
 8991TIP3    H148388   5.855   4.364   4.644 -1.0791  0.0072  0.1091
 8991TIP3    H248389   5.958   4.450   4.713 -0.4542 -0.7118  0.0850
 8992TIP3   OH248390   0.222   1.025  11.934 -0.5149 -0.5313  0.5529
 8992TIP3    H148391   0.164   1.025  12.011  0.9168  0.5698  1.7002
 8992TIP3    H248392   0.303   1.065  11.966 -0.0251  0.3709 -1.6663
 8993TIP3   OH248393   0.687   6.668   4.358 -0.7133 -0.2757 -0.1920
 8993TIP3    H148394   0.609   6.723   4.358 -0.3789  0.2037  0.0901
 8993TIP3    H248395   0.694   6.636   4.448 -0.5514 -0.2683 -0.2007
 8994TIP3   OH248396   1.099   4.539   3.927  0.5655  0.5627 -0.4141
 8994TIP3    H148397   1.157   4.553   4.002  0.9746 -0.8482 -0.4442
 8994TIP3    H248398   1.151   4.567   3.851  1.0765 -0.3245 -0.4027
 8995TIP3   OH248399   5.649   6.142  13.448  0.4136  0.2542 -0.0626
 8995TIP3    H148400   5.696   6.118  13.367 -0.4243 -0.2752 -0.4043
 8995TIP3    H248401   5.644   6.061  13.498  0.1656  0.3879  0.1317
 8996TIP3   OH248402   1.343   4.795  16.914  0.5066 -0.1091 -0.6891
 8996TIP3    H148403   1.428   4.754  16.929 -0.7771 -2.1582  1.7640
 8996TIP3    H248404   1.348   4.880  16.958  1.5586  0.2622 -1.4718
 8997TIP3   OH248405   4.288   5.887   4.514  0.1750  0.2402  0.0483
 8997TIP3    H148406   4.285   5.814   4.575 -0.1808  1.0029  0.9716
 8997TIP3    H248407   4.366   5.936   4.540 -0.2155  0.8041  0.1810
 8998TIP3   OH248408   4.366   3.607  16.376 -0.0345  0.5647  0.1722
 8998TIP3    H148409   4.353   3.567  16.461  0.2487  0.9081  0.3790
 8998TIP3    H248410   4.338   3.540  16.313 -1.4058  0.7476  0.5587
 8999TIP3   OH248411   3.740   6.552   0.653 -0.6488 -0.0753 -0.8907
 8999TIP3    H148412   3.728   6.478   0.593  1.1497  0.7917 -2.4046
 8999TIP3    H248413   3.833   6.549   0.675 -0.6430  1.4856 -0.6391
 9000TIP3   OH248414   1.947   1.920  11.382 -0.5190  0.2060 -0.3280
 9000TIP3    H148415   1.879   1.985  11.364 -0.8259  0.0705  0.3560
 9000TIP3    H248416   2.016   1.941  11.318 -0.8246  0.8875 -0.4462
 9001TIP3   OH248417   1.020   4.752  13.470 -0.0030 -0.0058 -0.5015
 9001TIP3    H148418   0.958   4.724  13.402  0.4428  0.1455 -0.9812
 9001TIP3    H248419   1.097   4.781  13.421  0.2206  0.3696  0.0635
 9002TIP3   OH248420   5.628   4.339   2.969  0.6220 -0.3869 -0.4901
 9002TIP3    H148421   5.661   4.326   2.880  0.3649  0.1090 -0.6596
 9002TIP3    H248422   5.543   4.295   2.969  1.2235 -1.5963 -0.0766
 9003TIP3   OH248423   2.571   6.615  12.945 -0.0667  1.1928 -0.3987
 9003TIP3    H148424   2.518   6.671  13.002 -1.9936  0.3779 -1.3029
 9003TIP3    H248425   2.535   6.630  12.857  0.2931 -0.4101 -0.8474
 9004TIP3   OH248426   2.049   1.015   0.901 -0.4924  0.1439 -0.3279
 9004TIP3    H148427   2.121   0.956   0.881  0.1996  0.7636  0.2803
 9004TIP3    H248428   2.016   0.986   0.986 -1.2939 -0.4448 -0.8269
 9005TIP3   OH248429   3.095   0.460  12.100  0.4879 -0.5118  0.3153
 9005TIP3    H148430   3.022   0.514  12.132 -0.4057 -1.1177 -0.5978
 9005TIP3    H248431   3.134   0.422  12.179 -0.4689 -0.5056  0.8119
 9006TIP3   OH248432   0.392   4.401  12.254 -0.0511  0.2066 -0.2351
 9006TIP3    H148433   0.436   4.467  12.200  1.8845 -0.8593 -0.0790
 9006TIP3    H248434   0.464   4.347  12.287 -1.0738  0.8922  3.5899
 9007TIP3   OH248435   3.324   4.191   2.099  0.5551 -0.4868 -0.1842
 9007TIP3    H148436   3.396   4.244   2.064  1.4228 -1.1176  0.5974
 9007TIP3    H248437   3.353   4.165   2.186 -1.1493  0.2430  0.6506
 9008TIP3   OH248438   5.336   2.229  15.219  0.4491 -0.5373  0.1446
 9008TIP3    H148439   5.251   2.273  15.219 -0.5230 -2.3039 -0.2697
 9008TIP3    H248440   5.377   2.256  15.301 -0.1042  1.0345 -0.0533
 9009TIP3   OH248441   0.875   6.118  14.436  0.0902  0.4621 -0.4447
 9009TIP3    H148442   0.962   6.106  14.398 -0.2823 -1.8451 -0.7133
 9009TIP3    H248443   0.838   6.030  14.440 -2.0707  1.3253  0.1016
 9010TIP3   OH248444   3.826   4.666   4.971 -0.1427 -0.0473  0.6122
 9010TIP3    H148445   3.758   4.648   4.907  0.6396 -0.1788 -0.2058
 9010TIP3    H248446   3.779   4.696   5.049 -1.0481  4.1620 -1.2427
 9011TIP3   OH248447   4.786   0.638   1.295 -0.2666 -0.1363  0.4581
 9011TIP3    H148448   4.798   0.622   1.202 -0.3401 -1.4362  0.6492
 9011TIP3    H248449   4.854   0.701   1.318 -0.5282  0.5304 -0.5501
 9012TIP3   OH248450   2.320   5.870   1.542  0.1650  0.3132 -0.1893
 9012TIP3    H148451   2.376   5.913   1.477 -1.0313  0.0698 -1.4119
 9012TIP3    H248452   2.246   5.930   1.554 -0.7727 -0.6899 -0.7986
 9013TIP3   OH248453   6.100   5.397   4.533 -0.1015  0.1770  0.1245
 9013TIP3    H148454   6.093   5.331   4.602  2.1959 -1.0263 -0.6854
 9013TIP3    H248455   6.184   5.441   4.549 -0.0258  0.6048 -1.2643
 9014TIP3   OH248456   0.578   1.251  14.619  0.1035  0.1158 -0.0134
 9014TIP3    H148457   0.610   1.161  14.616  0.4507  0.2570 -1.2604
 9014TIP3    H248458   0.484   1.244  14.603 -0.2711 -0.1758  2.0863
 9015TIP3   OH248459   3.949   0.489  10.810  0.0589 -0.0871  0.8165
 9015TIP3    H148460   3.944   0.573  10.854  2.1532  0.0744  0.8378
 9015TIP3    H248461   4.028   0.448  10.844  1.0994 -0.4966 -1.8155
 9016TIP3   OH248462   3.412   3.919  16.328  0.1084 -0.4832  0.1459
 9016TIP3    H148463   3.491   3.973  16.339  0.7778 -0.8697 -2.1258
 9016TIP3    H248464   3.377   3.909  16.416  2.1913  0.3353  1.1398
 9017TIP3   OH248465   2.215   2.107   2.515 -0.6607 -0.2426  0.5907
 9017TIP3    H148466   2.134   2.155   2.497 -0.9011 -0.8237  0.0508
 9017TIP3    H248467   2.195   2.017   2.488 -0.0267 -0.5170  1.0147
 9018TIP3   OH248468   4.886   5.881   3.636 -0.0481 -0.0406 -0.2533
 9018TIP3    H148469   4.939   5.805   3.614 -0.9171 -0.6940 -0.1834
 9018TIP3    H248470   4.948   5.953   3.644  0.8115 -0.7723 -0.1858
 9019TIP3   OH248471   3.930   2.197  11.000  0.2663  0.6878  0.6489
 9019TIP3    H148472   3.947   2.226  10.910  2.3303  1.5719  1.2394
 9019TIP3    H248473   3.839   2.220  11.016 -0.5578 -0.6802 -1.6105
 9020TIP3   OH248474   0.560   2.647   5.876 -0.1073 -0.2193 -0.1361
 9020TIP3    H148475   0.529   2.724   5.923  0.8751  0.2250 -0.1838
 9020TIP3    H248476   0.522   2.655   5.789  0.8207  0.8031 -0.4840
 9021TIP3   OH248477   0.527   6.671   0.059 -0.1396  0.5036 -0.7454
 9021TIP3    H148478   0.451   6.616   0.042  0.3666 -0.5143  0.1777
 9021TIP3    H248479   0.588   6.650  -0.012  0.1024 -0.2551 -0.3309
 9022TIP3   OH248480   5.282   1.564   5.292 -0.8456  0.0028  0.0858
 9022TIP3    H148481   5.276   1.530   5.202 -1.2191  1.1607 -0.3376
 9022TIP3    H248482   5.252   1.654   5.286 -1.0869  0.0313  1.4271
 9023TIP3   OH248483   3.100   1.361   5.717  0.4426  0.1069 -0.5972
 9023TIP3    H148484   3.053   1.415   5.653  2.3244  0.5167 -1.6934
 9023TIP3    H248485   3.192   1.369   5.693  0.9396 -2.3927  0.1473
 9024TIP3   OH248486   6.445   5.228  14.071  0.0179 -0.1588 -0.0002
 9024TIP3    H148487   6.406   5.309  14.040  0.3622  0.0292  0.0573
 9024TIP3    H248488   6.456   5.174  13.992 -0.3156 -0.1981 -0.0216
 9025TIP3   OH248489   5.748   3.270  13.976  0.7037 -0.1204  0.1190
 9025TIP3    H148490   5.657   3.264  14.005  0.2040 -0.2381 -1.4084
 9025TIP3    H248491   5.762   3.189  13.927  1.0279  0.7383 -1.2554
 9026TIP3   OH248492   1.875   6.407  15.037 -0.0071 -0.0630  0.4066
 9026TIP3    H148493   1.898   6.315  15.042 -0.7156 -0.3335 -0.8332
 9026TIP3    H248494   1.928   6.450  15.104 -0.2960 -1.4868  1.5868
 9027TIP3   OH248495   2.655   2.553   1.375  0.7729  0.1378 -0.3951
 9027TIP3    H148496   2.578   2.511   1.337  0.1272  0.2033  0.7755
 9027TIP3    H248497   2.673   2.627   1.318  0.8977 -0.7436 -1.5354
 9028TIP3   OH248498   1.085   2.095   2.840  0.1250 -0.1914  0.2514
 9028TIP3    H148499   1.166   2.146   2.840  0.2712 -0.3793  1.3959
 9028TIP3    H248500   1.042   2.120   2.922 -0.0729 -1.4833  0.5533
 9029TIP3   OH248501   2.045   3.485  10.794  0.1509 -0.4603  0.4091
 9029TIP3    H148502   2.022   3.478  10.701  1.0803  3.9790 -0.3661
 9029TIP3    H248503   2.139   3.471  10.797 -0.1965 -3.4044  1.2872
 9030TIP3   OH248504   4.190   6.239  14.051 -0.4793 -0.2386 -0.6259
 9030TIP3    H148505   4.257   6.197  14.105 -0.4674 -0.9941 -1.2083
 9030TIP3    H248506   4.204   6.203  13.963 -1.1617  0.1773 -0.9137
 9031TIP3   OH248507   6.164   3.998  11.288 -0.3527  0.1564  0.1719
 9031TIP3    H148508   6.150   3.969  11.378  1.9617  0.9661  0.8657
 9031TIP3    H248509   6.144   4.091  11.289 -0.1815  0.1984 -0.1238
 9032TIP3   OH248510   1.244   3.560  15.049 -0.0749 -0.6146  0.0922
 9032TIP3    H148511   1.332   3.523  15.036 -0.4105 -1.3653 -0.0625
 9032TIP3    H248512   1.259   3.640  15.099  0.8365 -0.0306 -1.0732
 9033TIP3   OH248513   1.577   1.622   0.414 -0.1408  0.3826 -0.0227
 9033TIP3    H148514   1.646   1.631   0.349 -0.9928  1.2472 -0.8485
 9033TIP3    H248515   1.495   1.631   0.365 -0.8519 -0.4703  0.9464
 9034TIP3   OH248516   3.431   0.554  12.788  0.8455 -0.0874 -0.3675
 9034TIP3    H148517   3.451   0.576  12.879 -3.0509  0.5634  0.5166
 9034TIP3    H248518   3.451   0.461  12.781 -0.1729 -0.5259  1.6818
 9035TIP3   OH248519   3.787   5.405   5.473  0.3512  0.3526 -0.6496
 9035TIP3    H148520   3.724   5.453   5.420 -0.3670  0.7399  0.5235
 9035TIP3    H248521   3.735   5.346   5.527  0.7660  1.7690  1.4684
 9036TIP3   OH248522   1.949   4.967  16.541 -0.1420 -0.0807  0.1524
 9036TIP3    H148523   1.995   4.909  16.481 -0.3333  0.0819 -0.1533
 9036TIP3    H248524   1.981   4.942  16.628 -2.1995 -2.5536  0.3339
 9037TIP3   OH248525   1.120   3.784   1.122  0.7459 -0.5747  0.2201
 9037TIP3    H148526   1.076   3.719   1.068  1.2117 -2.1159  1.6095
 9037TIP3    H248527   1.050   3.826   1.172  0.3232  0.8110 -1.4351
 9038TIP3   OH248528   5.179   0.985  14.129 -0.3989  0.5642  0.0716
 9038TIP3    H148529   5.199   1.030  14.047  0.5208  0.7818  0.4032
 9038TIP3    H248530   5.093   0.946  14.114  0.9324 -1.8962 -2.0751
 9039TIP3   OH248531   1.120   3.729   5.615  0.2841 -0.0670  0.1578
 9039TIP3    H148532   1.095   3.762   5.529  1.2286  0.5106  0.0886
 9039TIP3    H248533   1.041   3.736   5.668  0.4840  2.5601  0.2193
 9040TIP3   OH248534   5.418   5.766   1.097  0.0184 -0.1535  0.1521
 9040TIP3    H148535   5.439   5.743   1.188  1.8701  0.7807  0.0236
 9040TIP3    H248536   5.348   5.706   1.072 -1.9664  0.8897  2.8088
 9041TIP3   OH248537   3.766   3.675  13.114 -0.0581 -0.0005 -0.1396
 9041TIP3    H148538   3.702   3.605  13.103  1.5958 -1.5152 -0.4815
 9041TIP3    H248539   3.761   3.725  13.032 -0.4318 -0.4033 -0.3667
 9042TIP3   OH248540   4.541   3.354   3.092  0.0470  0.2099 -0.3468
 9042TIP3    H148541   4.459   3.313   3.122  1.4443 -1.3178  1.6522
 9042TIP3    H248542   4.541   3.341   2.997 -2.4534  1.1423 -0.5486
 9043TIP3   OH248543   3.673   2.685  10.572  0.3881 -0.3262  0.1985
 9043TIP3    H148544   3.672   2.758  10.633 -1.4684 -0.3341  0.2463
 9043TIP3    H248545   3.636   2.720  10.491 -2.5619 -1.6225  0.8503
 9044TIP3   OH248546   0.684   2.563  10.413  0.1717  0.3482 -0.2260
 9044TIP3    H148547   0.768   2.527  10.438 -0.5772 -0.7007  0.9012
 9044TIP3    H248548   0.683   2.651  10.451  0.4074  0.0347  0.5156
 9045TIP3   OH248549   5.457   4.670  14.531 -0.3681  0.1946 -0.2405
 9045TIP3    H148550   5.553   4.670  14.536 -0.3721  2.4362  1.6187
 9045TIP3    H248551   5.434   4.762  14.519 -2.3022 -0.1994  0.1626
 9046TIP3   OH248552   2.149   4.384   1.789 -0.4706 -0.2879 -0.1869
 9046TIP3    H148553   2.203   4.438   1.847 -0.9642  1.5344 -1.3390
 9046TIP3    H248554   2.082   4.347   1.847 -0.6716  1.0988  0.5226
 9047TIP3   OH248555   4.077   0.828  12.615  0.6553 -0.4817  0.5585
 9047TIP3    H148556   3.991   0.850  12.651 -0.2850 -1.5006 -0.9443
 9047TIP3    H248557   4.111   0.911  12.582 -0.2249 -0.2355  0.2326
 9048TIP3   OH248558   4.153   2.165  13.106 -0.3727 -0.6010  0.4356
 9048TIP3    H148559   4.076   2.222  13.097 -0.0123 -0.3321 -1.2109
 9048TIP3    H248560   4.208   2.187  13.031  0.1884 -2.5136  0.2368
 9049TIP3   OH248561   0.426   4.210   5.430  0.5100 -0.4639  0.1637
 9049TIP3    H148562   0.334   4.235   5.438  0.2015 -1.9915  2.8555
 9049TIP3    H248563   0.447   4.172   5.515  3.5334 -0.5773 -0.5361
 9050TIP3   OH248564   0.412   1.774   6.222 -0.5227  0.3615 -0.3345
 9050TIP3    H148565   0.395   1.680   6.222  0.3568  0.1877  0.4272
 9050TIP3    H248566   0.328   1.813   6.247 -0.4137 -0.3510  1.3169
 9051TIP3   OH248567   4.744   4.987  11.255 -0.2818  0.3762 -0.4714
 9051TIP3    H148568   4.687   4.944  11.191  1.4753 -0.0677 -1.8195
 9051TIP3    H248569   4.802   5.042  11.203  2.3103 -1.2506  0.4727
 9052TIP3   OH248570   0.024   2.870   2.341  0.0449  0.1161  0.3492
 9052TIP3    H148571   0.096   2.811   2.362 -0.4856 -1.3573 -1.6505
 9052TIP3    H248572   0.048   2.908   2.256 -0.8466  0.7407  0.3590
 9053TIP3   OH248573   0.325   2.317   6.514  0.5315 -0.2530 -0.2182
 9053TIP3    H148574   0.326   2.231   6.471 -0.8371  0.5301 -1.9497
 9053TIP3    H248575   0.414   2.350   6.504  1.6224 -2.1862  2.1656
 9054TIP3   OH248576   2.625   6.297   1.754  0.0775  0.1760  0.4606
 9054TIP3    H148577   2.577   6.377   1.778  0.5463  0.3435  0.8648
 9054TIP3    H248578   2.688   6.326   1.688 -0.4466 -0.0643 -0.1486
 9055TIP3   OH248579   2.871   4.366   2.886 -0.0804 -0.4390 -0.3289
 9055TIP3    H148580   2.937   4.372   2.817 -0.2581  0.0733 -0.4564
 9055TIP3    H248581   2.919   4.387   2.966  0.1879 -1.3053 -0.2550
 9056TIP3   OH248582   3.691   2.336   3.579 -0.3231 -0.2120 -0.3707
 9056TIP3    H148583   3.677   2.407   3.515 -0.7748 -0.5226 -0.6243
 9056TIP3    H248584   3.609   2.287   3.577  0.5023 -1.6081 -1.2822
 9057TIP3   OH248585   6.485   3.618   4.179  0.5959 -0.0935 -0.1360
 9057TIP3    H148586   6.402   3.599   4.223 -0.4070  1.1540 -1.4065
 9057TIP3    H248587   6.548   3.626   4.250 -0.6549  0.2822  0.9741
 9058TIP3   OH248588   6.637   3.621  13.531  0.7891  0.0345  0.7884
 9058TIP3    H148589   6.586   3.689  13.487 -1.4515 -0.2800  2.6869
 9058TIP3    H248590   6.589   3.540  13.514  3.5034 -1.2304 -1.5623
 9059TIP3   OH248591   1.116   1.699  15.604 -0.1988 -0.3768  0.2943
 9059TIP3    H148592   1.088   1.773  15.658 -1.0246  0.3031 -1.0077
 9059TIP3    H248593   1.156   1.638  15.666 -2.4938 -0.3491  1.9414
 9060TIP3   OH248594   4.776   3.350  14.388 -0.5495 -0.1652 -0.3400
 9060TIP3    H148595   4.799   3.262  14.357  2.1494  0.5484 -0.6439
 9060TIP3    H248596   4.801   3.350  14.481 -0.0826  0.3866 -0.4570
 9061TIP3   OH248597   2.062   5.240  11.607 -0.2882  0.4768 -0.3159
 9061TIP3    H148598   1.983   5.271  11.651  0.1321  0.0639  0.7775
 9061TIP3    H248599   2.034   5.221  11.517 -1.3234  0.7482 -0.0650
 9062TIP3   OH248600   3.147   4.701  12.231 -0.6120 -0.4092  0.6117
 9062TIP3    H148601   3.177   4.717  12.321  2.2664  0.4911 -0.3816
 9062TIP3    H248602   3.150   4.606  12.221 -2.2062 -0.6261  1.7858
 9063TIP3   OH248603   2.093   5.807  16.903  0.1300  0.3142 -0.4695
 9063TIP3    H148604   2.010   5.793  16.859  0.1173 -0.5113 -0.1931
 9063TIP3    H248605   2.082   5.765  16.989  0.2733  1.5819  0.2017
 9064TIP3   OH248606   0.951   2.023   2.609  0.2559 -0.0787 -0.3520
 9064TIP3    H148607   0.991   2.017   2.696 -0.4178 -1.7841 -0.1085
 9064TIP3    H248608   1.017   2.066   2.555  0.3067  1.8951  1.1909
 9065TIP3   OH248609   1.067   4.905   0.381 -0.5112  0.1644 -0.1756
 9065TIP3    H148610   1.008   4.963   0.333 -1.2769  0.3538  0.9503
 9065TIP3    H248611   1.106   4.961   0.448  0.9441  0.0300 -0.8764
 9066TIP3   OH248612   2.778   0.028  14.320 -0.4199 -0.2618 -0.0347
 9066TIP3    H148613   2.709  -0.018  14.271 -1.3135 -1.6079  2.3477
 9066TIP3    H248614   2.859  -0.017  14.296 -0.8138 -0.8164 -0.3345
 9067TIP3   OH248615   0.058   2.565  15.133  0.0498  0.5542 -0.6625
 9067TIP3    H148616   0.046   2.472  15.112  0.0688  0.7995 -1.8004
 9067TIP3    H248617   0.147   2.585  15.105  0.4329  0.6676  0.5716
 9068TIP3   OH248618   0.017   1.911  15.029  0.0576 -0.3989 -0.6606
 9068TIP3    H148619   0.076   1.921  14.955 -0.5932  3.7370 -0.8279
 9068TIP3    H248620  -0.068   1.940  14.997 -0.4912  0.4251  1.3429
 9069TIP3   OH248621   5.805   2.396   2.536 -0.4893  0.6882 -0.0005
 9069TIP3    H148622   5.780   2.487   2.550 -0.1572  1.1446 -1.9652
 9069TIP3    H248623   5.857   2.398   2.455 -0.4333 -1.2381 -0.0672
 9070TIP3   OH248624   3.830   1.321  11.664 -0.0924  0.2509  0.2856
 9070TIP3    H148625   3.904   1.380  11.662 -0.4525  0.6865 -0.6180
 9070TIP3    H248626   3.803   1.312  11.573 -1.7952  0.9375  0.6778
 9071TIP3   OH248627   1.573   3.976   5.267  0.2987  0.1409 -0.4879
 9071TIP3    H148628   1.620   3.896   5.245  0.4706  0.2901 -0.6610
 9071TIP3    H248629   1.486   3.946   5.293  0.2600 -0.0792 -0.8683
 9072TIP3   OH248630   3.563   2.036  14.413 -0.4113  0.0023  0.1867
 9072TIP3    H148631   3.607   1.954  14.433  0.2327  0.3870  0.3582
 9072TIP3    H248632   3.487   2.010  14.360 -0.5577 -0.7536  0.7486
 9073TIP3   OH248633   6.440   2.877   0.015 -0.4047  0.5906 -0.0487
 9073TIP3    H148634   6.373   2.939  -0.012  0.2529  0.4140 -2.3986
 9073TIP3    H248635   6.518   2.904  -0.034  0.9101  0.0830  1.6941
 9074TIP3   OH248636   0.093   5.694   5.783 -0.2017 -0.1459 -1.0665
 9074TIP3    H148637   0.043   5.648   5.715 -3.4354  1.1611  0.2147
 9074TIP3    H248638   0.070   5.649   5.864 -0.6216  1.4690 -0.2423
 9075TIP3   OH248639   5.786   0.334  11.443  0.3143 -0.4554  0.3989
 9075TIP3    H148640   5.744   0.286  11.371 -1.7327 -1.3796  2.1066
 9075TIP3    H248641   5.825   0.266  11.498 -0.3518  0.0150  1.4794
 9076TIP3   OH248642   6.253   4.673   5.585  0.6942 -0.2986  0.8229
 9076TIP3    H148643   6.219   4.625   5.510 -2.7943  0.6891  1.6090
 9076TIP3    H248644   6.282   4.757   5.550 -0.7494  0.0903  0.5194
 9077TIP3   OH248645   6.544   5.151  13.401 -0.2568  0.2172 -0.1028
 9077TIP3    H148646   6.535   5.233  13.353 -0.6671 -1.7949 -3.7770
 9077TIP3    H248647   6.457   5.133  13.434 -0.6627  0.2611 -1.1154
 9078TIP3   OH248648   0.595   4.068  14.751  0.1945 -0.3665  0.0206
 9078TIP3    H148649   0.647   4.118  14.813  0.7228 -0.2446 -0.5033
 9078TIP3    H248650   0.535   4.131  14.713 -1.1188 -0.7266  1.4164
 9079TIP3   OH248651   6.737   1.518  15.398 -0.6183  0.0454  0.1695
 9079TIP3    H148652   6.788   1.599  15.401 -0.2392 -0.2010  0.5801
 9079TIP3    H248653   6.702   1.508  15.487  1.9990 -1.8931  1.1184
 9080TIP3   OH248654   6.197   1.854   6.007  0.0777  0.3139 -0.2961
 9080TIP3    H148655   6.232   1.772   6.042  1.0299  0.3747 -1.0601
 9080TIP3    H248656   6.114   1.866   6.054  0.8669 -0.0525  1.2742
 9081TIP3   OH248657   5.625   3.651  15.219 -0.3555  0.5557  0.1057
 9081TIP3    H148658   5.648   3.712  15.288  2.8200 -2.0360  1.6131
 9081TIP3    H248659   5.598   3.571  15.265 -0.3561 -0.5512 -1.6872
 9082TIP3   OH248660   4.748   0.360   0.677 -0.5377  0.3890  0.8210
 9082TIP3    H148661   4.742   0.331   0.769  1.2960 -0.3338  0.7467
 9082TIP3    H248662   4.790   0.446   0.682 -1.7624  1.0212  0.7196
 9083TIP3   OH248663   4.820   4.800  12.905 -1.0072  0.1569  0.2981
 9083TIP3    H148664   4.856   4.732  12.963  0.9679  2.0131  1.3801
 9083TIP3    H248665   4.883   4.806  12.833 -2.6865 -1.0915 -1.3962
 9084TIP3   OH248666   5.149   6.410  13.628 -0.3329  0.4068 -0.1465
 9084TIP3    H148667   5.063   6.379  13.599 -0.6173 -1.0566  2.0828
 9084TIP3    H248668   5.211   6.361  13.574 -0.8481  1.1981 -1.5084
 9085TIP3   OH248669   5.997   4.647  11.978 -0.2884  0.1207  0.0363
 9085TIP3    H148670   6.004   4.558  12.010  0.5830  0.1502 -0.0543
 9085TIP3    H248671   5.916   4.680  12.016 -1.2723 -1.1039 -0.9189
 9086TIP3   OH248672   2.185   0.105   2.464 -0.1478 -0.1877  0.3029
 9086TIP3    H148673   2.133   0.026   2.452  0.1052 -0.5137  1.2902
 9086TIP3    H248674   2.194   0.114   2.559 -0.3509  1.1435  0.2204
 9087TIP3   OH248675   0.743   2.875  16.522 -0.5054 -0.0862  0.1636
 9087TIP3    H148676   0.736   2.847  16.614  1.0070  1.9332  0.9732
 9087TIP3    H248677   0.828   2.841  16.494 -0.0165  1.0985  0.1966
 9088TIP3   OH248678   2.835   2.116  16.146  0.2273  0.1810  0.0150
 9088TIP3    H148679   2.917   2.136  16.103 -0.0796 -1.8316 -1.6443
 9088TIP3    H248680   2.839   2.022  16.164 -2.4867 -0.4707 -2.0700
 9089TIP3   OH248681   4.483   6.366  12.917 -0.4887 -0.5044 -0.0242
 9089TIP3    H148682   4.444   6.279  12.928  1.5186 -1.4573 -0.0607
 9089TIP3    H248683   4.576   6.349  12.904 -0.0799  1.6600 -0.2398
 9090TIP3   OH248684   2.910   5.499  15.979  0.4059 -0.2834  0.1147
 9090TIP3    H148685   2.924   5.404  15.971 -0.1494 -0.4403  0.8911
 9090TIP3    H248686   2.986   5.530  16.028  1.9623  0.1159 -2.4110
 9091TIP3   OH248687   4.562   6.070  12.317 -0.0896  0.2875 -0.1075
 9091TIP3    H148688   4.546   6.139  12.253 -1.4250 -1.6126 -1.9466
 9091TIP3    H248689   4.651   6.039  12.298 -0.6000 -0.4841 -1.2949
 9092TIP3   OH248690   4.370   0.880   2.039 -0.0265  0.3849  0.0884
 9092TIP3    H148691   4.350   0.970   2.015 -0.1956  0.3884  0.2467
 9092TIP3    H248692   4.459   0.884   2.075  0.2099  0.3862 -0.4958
 9093TIP3   OH248693   3.105   0.205   5.802  0.1920 -0.0504  0.0110
 9093TIP3    H148694   3.116   0.116   5.767 -0.6955 -0.5952  1.0537
 9093TIP3    H248695   3.036   0.196   5.868  2.5243  0.6311  2.7567
 9094TIP3   OH248696   1.363   2.745   4.310 -0.2952 -0.1383  0.3288
 9094TIP3    H148697   1.390   2.762   4.400  1.2016  3.5745 -0.6315
 9094TIP3    H248698   1.277   2.787   4.303  0.5519  1.5859 -0.4289
 9095TIP3   OH248699   5.852   5.987  10.509  0.8051  0.0250 -0.5049
 9095TIP3    H148700   5.877   6.014  10.597  2.7905 -0.4026 -0.8929
 9095TIP3    H248701   5.852   6.067  10.457 -1.3884  0.4536  0.0310
 9096TIP3   OH248702   1.791   2.536  13.168  0.1320  0.3885  1.0037
 9096TIP3    H148703   1.730   2.552  13.096 -0.3671 -1.0636  1.0672
 9096TIP3    H248704   1.863   2.487  13.127  1.1610  1.8407  0.9836
 9097TIP3   OH248705   6.040   0.576  15.456  0.0485 -0.2607  0.1015
 9097TIP3    H148706   5.992   0.627  15.522 -0.2746  1.0126 -1.0858
 9097TIP3    H248707   6.039   0.486  15.491 -2.1371 -0.0601  0.7143
 9098TIP3   OH248708   5.848   2.859  13.435  0.0686  0.2064  0.4209
 9098TIP3    H148709   5.764   2.844  13.391 -0.3967  0.2470  1.2587
 9098TIP3    H248710   5.895   2.918  13.378 -0.7178  0.6485  0.2136
 9099TIP3   OH248711   3.522   6.572  14.849 -0.1003  0.1151  0.5138
 9099TIP3    H148712   3.599   6.537  14.894  0.8910  4.1876  2.4183
 9099TIP3    H248713   3.558   6.624  14.777 -1.2004  0.5985  0.2888
 9100TIP3   OH248714   1.599   0.475  11.924 -0.0331 -0.1290 -0.2033
 9100TIP3    H148715   1.530   0.498  11.862  0.2460  2.8909  0.4368
 9100TIP3    H248716   1.676   0.522  11.894  2.5467 -4.8540 -1.9799
 9101TIP3   OH248717   3.261   1.070  16.969 -0.3239 -0.2809 -0.1220
 9101TIP3    H148718   3.301   0.999  17.021 -2.0838  0.0981  1.8784
 9101TIP3    H248719   3.178   1.033  16.938 -1.5525  1.0076  1.4515
 9102TIP3   OH248720   4.144   3.854  12.715 -0.1246 -0.2794 -0.7356
 9102TIP3    H148721   4.130   3.784  12.651 -1.2993 -0.8275  0.0828
 9102TIP3    H248722   4.127   3.812  12.799  0.8385  0.5767 -0.1064
 9103TIP3   OH248723   4.010   6.061   0.641 -0.1276 -0.0145 -1.0218
 9103TIP3    H148724   3.966   6.119   0.579 -0.6241  0.6258 -0.1107
 9103TIP3    H248725   4.102   6.086   0.637 -0.2251  0.3199 -1.1840
 9104TIP3   OH248726   6.254   3.386   4.589  0.2293 -0.1046 -1.0677
 9104TIP3    H148727   6.313   3.457   4.614 -0.7022 -0.0562  1.2169
 9104TIP3    H248728   6.169   3.428   4.575  0.2527 -0.4417 -2.3798
 9105TIP3   OH248729   1.730   4.449  16.392 -0.4495 -0.6694  0.2258
 9105TIP3    H148730   1.705   4.423  16.481  1.3269 -1.8100  0.4277
 9105TIP3    H248731   1.824   4.437  16.389 -0.2445  0.9032 -1.3385
 9106TIP3   OH248732   2.605   3.338   0.081 -0.1519 -0.2249 -0.1153
 9106TIP3    H148733   2.660   3.382   0.017 -1.5614  0.5893 -0.7994
 9106TIP3    H248734   2.659   3.334   0.161  1.3197 -0.5336 -1.0866
 9107TIP3   OH248735   2.919   0.898   3.967  0.0650 -0.0538 -0.1153
 9107TIP3    H148736   2.874   0.835   3.911 -0.2890  0.0636  0.0373
 9107TIP3    H248737   3.007   0.862   3.978  0.4941  0.4216 -1.6098
 9108TIP3   OH248738   2.310   4.068  16.194 -0.5287 -0.0373  0.0503
 9108TIP3    H148739   2.401   4.072  16.164 -0.0208  2.2689  1.6750
 9108TIP3    H248740   2.281   3.980  16.169  1.5374 -0.2002 -2.1451
 9109TIP3   OH248741   5.558   6.753  15.416  0.0217 -0.3389 -0.8509
 9109TIP3    H148742   5.480   6.741  15.470  0.1105 -1.7080 -0.9828
 9109TIP3    H248743   5.534   6.820  15.353  0.0056  1.5455  1.0275
 9110TIP3   OH248744   3.907   5.170  16.860 -0.0208 -0.0083 -0.1548
 9110TIP3    H148745   3.934   5.111  16.789  2.9638  1.1478 -0.1221
 9110TIP3    H248746   3.820   5.200  16.835  0.8827  0.3073 -3.3332
 9111TIP3   OH248747   5.994   0.920  15.728  0.7164  0.5457  0.3331
 9111TIP3    H148748   6.041   0.981  15.671 -0.6619  1.5625  0.2145
 9111TIP3    H248749   6.037   0.929  15.813  2.8365 -1.0426 -0.4922
 9112TIP3   OH248750   4.108   0.287   1.917  0.3857  0.7041  0.6752
 9112TIP3    H148751   4.109   0.373   1.875 -2.9360 -0.0200 -1.2230
 9112TIP3    H248752   4.039   0.294   1.982 -1.1100 -0.9404 -0.6613
 9113TIP3   OH248753   3.954   5.611  14.411 -0.1781 -1.0245 -0.3803
 9113TIP3    H148754   3.893   5.547  14.447 -0.3029 -0.3578  0.6285
 9113TIP3    H248755   3.996   5.566  14.338  0.5688 -2.6576  0.9995
 9114TIP3   OH248756   4.480   1.107  12.140  0.4689 -0.5034 -0.6264
 9114TIP3    H148757   4.520   1.126  12.225 -0.1523  1.0875 -0.6446
 9114TIP3    H248758   4.419   1.035  12.158 -1.5025  1.3844  0.9283
 9115TIP3   OH248759   4.760   5.263  11.511 -0.3806  0.0497 -0.6727
 9115TIP3    H148760   4.795   5.269  11.600 -2.1369  2.6035 -0.0533
 9115TIP3    H248761   4.701   5.187  11.514 -0.0866 -0.1588  0.2105
 9116TIP3   OH248762   3.755   0.519   4.020 -0.0326 -0.0257  0.3620
 9116TIP3    H148763   3.782   0.609   4.001 -1.8180  0.5678  0.4711
 9116TIP3    H248764   3.784   0.505   4.110  1.3238 -0.0130 -0.0443
 9117TIP3   OH248765   2.226   2.287  15.287 -0.0573  0.4969 -0.3604
 9117TIP3    H148766   2.152   2.323  15.240  0.4177  1.0853 -0.6772
 9117TIP3    H248767   2.302   2.337  15.255  0.4703 -0.0691 -0.0314
 9118TIP3   OH248768   2.946   5.727  12.739 -0.2883 -0.5735 -0.5592
 9118TIP3    H148769   2.865   5.713  12.787  0.5173 -1.1328  0.7048
 9118TIP3    H248770   2.949   5.821  12.722 -0.9308 -0.4688 -0.1044
 9119TIP3   OH248771   0.993   0.855   5.125  0.6520 -0.5905  0.0684
 9119TIP3    H148772   0.961   0.765   5.135  0.7548 -0.5647  0.6433
 9119TIP3    H248773   1.031   0.857   5.037 -0.1608 -0.8567 -0.2987
 9120TIP3   OH248774   2.785   1.517   0.088  0.6774 -0.1956 -0.1693
 9120TIP3    H148775   2.709   1.466   0.057 -0.9030  0.7042  1.9775
 9120TIP3    H248776   2.848   1.450   0.115 -0.1794 -1.0040 -0.0927
 9121TIP3   OH248777   1.946   6.619  16.980 -0.2989  0.3675 -0.1167
 9121TIP3    H148778   1.854   6.607  17.003 -0.2962  1.7718  0.7916
 9121TIP3    H248779   1.987   6.535  16.999 -1.3618 -0.2574 -0.4660
 9122TIP3   OH248780   2.170   5.075  12.410 -0.1930  0.1634  0.4707
 9122TIP3    H148781   2.178   5.005  12.345  1.2272  0.8702 -0.1616
 9122TIP3    H248782   2.245   5.132  12.393 -0.7333  1.2746  1.6573
 9123TIP3   OH248783   3.265   5.903  16.914 -0.0358  0.0322 -0.2222
 9123TIP3    H148784   3.333   5.860  16.965 -0.2737 -0.5289 -0.3704
 9123TIP3    H248785   3.313   5.949  16.845  0.1448 -1.3694 -1.0711
 9124TIP3   OH248786   5.351   5.511   6.218 -0.4375 -0.6364 -0.1824
 9124TIP3    H148787   5.396   5.466   6.289 -2.2774 -1.6432  0.4001
 9124TIP3    H248788   5.327   5.442   6.156 -0.5515 -0.0331 -0.8300
 9125TIP3   OH248789   0.135   0.994  12.193 -0.1866 -0.1960  0.2763
 9125TIP3    H148790   0.148   0.923  12.256  0.1011  0.0213  0.4591
 9125TIP3    H248791   0.052   1.034  12.218 -1.9038 -2.3061 -1.5710
 9126TIP3   OH248792   1.728   3.172  12.261 -0.4865 -0.1906  0.1166
 9126TIP3    H148793   1.776   3.106  12.311 -0.9621 -0.0136  0.8203
 9126TIP3    H248794   1.747   3.255  12.306 -1.6754 -0.1563  0.5882
 9127TIP3   OH248795   6.265   5.566  12.935  0.0540 -0.2134  0.1198
 9127TIP3    H148796   6.293   5.555  12.844  0.9061 -1.4334  0.5086
 9127TIP3    H248797   6.343   5.598  12.980  1.2080 -4.1933  1.3359
 9128TIP3   OH248798   5.917   2.069  11.518  0.3042 -0.6299  0.1477
 9128TIP3    H148799   5.984   2.064  11.586 -0.4412  0.7510  1.0124
 9128TIP3    H248800   5.864   2.144  11.542 -0.1516 -0.2854 -1.8270
 9129TIP3   OH248801   3.642   0.926   5.305 -0.0479  0.6943  0.3791
 9129TIP3    H148802   3.685   0.926   5.220 -0.5429  1.7316  0.1021
 9129TIP3    H248803   3.700   0.979   5.361 -0.1349  0.7096  0.4550
 9130TIP3   OH248804   3.041   5.988   5.552 -0.2666  0.0430 -0.0800
 9130TIP3    H148805   3.069   6.072   5.515  1.8774 -1.4242 -2.0400
 9130TIP3    H248806   2.953   5.974   5.518  0.7397 -0.1417 -2.8635
 9131TIP3   OH248807   0.070   4.795  14.351 -0.2085 -0.2974 -1.1199
 9131TIP3    H148808  -0.023   4.789  14.373 -0.0055 -1.1148 -0.3838
 9131TIP3    H248809   0.078   4.875  14.299 -1.3404 -0.2937 -1.3200
 9132TIP3   OH248810   5.080   3.289   3.799  0.1020  0.3725 -0.6541
 9132TIP3    H148811   5.154   3.342   3.827  0.7999 -1.1695  0.5233
 9132TIP3    H248812   5.055   3.326   3.714  0.6882  2.4172  0.0081
 9133TIP3   OH248813   4.196   3.168  13.135 -0.0469 -0.0072 -0.7596
 9133TIP3    H148814   4.125   3.134  13.080  2.1029 -2.4943 -2.2276
 9133TIP3    H248815   4.217   3.095  13.194 -0.3215  1.5750  1.4210
 9134TIP3   OH248816   0.296   4.530  11.057 -0.7949  0.6724  0.0085
 9134TIP3    H148817   0.260   4.557  10.972  0.0864 -0.8676 -0.9047
 9134TIP3    H248818   0.232   4.467  11.091 -0.2366 -0.1221 -0.4023
 9135TIP3   OH248819   2.763   5.024  14.676 -0.3783 -0.1174 -0.3046
 9135TIP3    H148820   2.711   4.961  14.625  0.0526 -1.4337  0.8316
 9135TIP3    H248821   2.847   4.980  14.689  0.0914  0.8896  0.1514
 9136TIP3   OH248822   5.894   5.732  16.951 -0.3248 -0.1032  0.0831
 9136TIP3    H148823   5.933   5.712  16.866 -0.7147 -0.7988  0.0590
 9136TIP3    H248824   5.938   5.672  17.012 -0.5743 -0.1226  0.2454
 9137TIP3   OH248825   2.815   6.298  15.337 -0.3901  0.2236 -0.1955
 9137TIP3    H148826   2.762   6.219  15.326  1.3215 -1.0315  0.1377
 9137TIP3    H248827   2.887   6.287  15.275  1.2418  0.2885  1.5934
 9138TIP3   OH248828   1.245   2.251  12.617  0.1722 -0.4189 -0.8873
 9138TIP3    H148829   1.152   2.263  12.635  0.8084  1.0960  2.1027
 9138TIP3    H248830   1.287   2.325  12.660  2.9228 -2.3111 -0.0775
 9139TIP3   OH248831   0.562   5.900   1.368 -0.6705  0.4238  0.4414
 9139TIP3    H148832   0.620   5.894   1.292  0.6429 -1.9204  1.5072
 9139TIP3    H248833   0.539   5.993   1.374 -1.0458  0.6815 -2.9205
 9140TIP3   OH248834   6.033   5.605  15.527  0.3060  0.8480  0.0567
 9140TIP3    H148835   6.093   5.666  15.485  0.9780 -0.8418 -1.5687
 9140TIP3    H248836   6.025   5.637  15.617  1.1256  2.9188 -0.5570
 9141TIP3   OH248837   1.314   5.591   2.371  0.2562  0.2367 -0.4764
 9141TIP3    H148838   1.248   5.612   2.437 -0.7181  0.2109 -1.4174
 9141TIP3    H248839   1.365   5.671   2.362  0.5719  0.1540  0.4981
 9142TIP3   OH248840   1.040   4.201  14.604  0.4105  0.2240 -0.4616
 9142TIP3    H148841   1.082   4.232  14.523  2.0591  0.2842  0.3824
 9142TIP3    H248842   0.990   4.277  14.635  1.4164  0.8718 -0.3674
 9143TIP3   OH248843   1.044   4.979  12.835 -0.1589 -0.3563 -0.2985
 9143TIP3    H148844   1.138   4.961  12.831 -0.0747  0.1302 -0.5086
 9143TIP3    H248845   1.003   4.895  12.814  0.2236 -0.6860  0.2660
 9144TIP3   OH248846   3.468   3.515  15.058  0.5452 -0.6813 -0.5535
 9144TIP3    H148847   3.408   3.448  15.025 -0.9119  0.6735 -0.7908
 9144TIP3    H248848   3.484   3.490  15.149 -0.1473 -1.2361 -0.5706
 9145TIP3   OH248849   2.097   4.115  17.008  0.4288  0.0088  0.0191
 9145TIP3    H148850   2.174   4.091  16.957  0.8113 -0.9442  0.9927
 9145TIP3    H248851   2.104   4.062  17.088 -0.5946  0.8074  0.6694
 9146TIP3   OH248852   5.660   0.436  15.849 -0.2563 -0.2628  0.0411
 9146TIP3    H148853   5.742   0.461  15.807  0.3296 -0.4714  1.0150
 9146TIP3    H248854   5.635   0.513  15.900  0.1866 -0.7437  1.0037
 9147TIP3   OH248855   6.156   0.910   2.546 -0.2656  0.2558  0.3684
 9147TIP3    H148856   6.148   1.004   2.526 -1.5170  0.6085  2.2554
 9147TIP3    H248857   6.068   0.875   2.531  0.2902 -0.7391 -0.7225
 9148TIP3   OH248858   2.993   0.955  15.113  0.1120 -0.7153 -0.3461
 9148TIP3    H148859   3.023   1.042  15.139 -1.2808 -0.3186  0.0116
 9148TIP3    H248860   3.068   0.915  15.070  0.3092  1.2481 -1.9261
 9149TIP3   OH248861   2.806   1.507   5.830  0.4895 -0.4753 -0.5903
 9149TIP3    H148862   2.826   1.517   5.923  0.8466 -0.0070 -0.7158
 9149TIP3    H248863   2.712   1.523   5.823  0.8337  1.8965 -0.6360
 9150TIP3   OH248864   4.868   5.910  14.984  0.4745  0.4522  0.4638
 9150TIP3    H148865   4.925   5.980  14.953  1.3192 -0.1061  0.7245
 9150TIP3    H248866   4.829   5.875  14.904  0.8535  0.5400  0.2356
 9151TIP3   OH248867   4.557   1.654  12.083 -0.3441  0.1375  0.1627
 9151TIP3    H148868   4.494   1.626  12.016  0.9730 -0.9084 -0.6711
 9151TIP3    H248869   4.525   1.740  12.110  0.5084  1.9175 -3.7620
 9152TIP3   OH248870   0.632   2.247   2.146 -0.4537  0.2337 -0.2172
 9152TIP3    H148871   0.681   2.320   2.107  0.2391  0.1951  0.5631
 9152TIP3    H248872   0.633   2.180   2.078  1.4332 -0.1321  0.1028
 9153TIP3   OH248873   1.270   6.448  16.532  0.1090  0.0287 -0.5553
 9153TIP3    H148874   1.346   6.432  16.476  0.9019  3.3443 -0.6650
 9153TIP3    H248875   1.208   6.378  16.510  1.6940 -0.7002 -3.1199
 9154TIP3   OH248876   3.543   4.385   3.511  0.1570  0.2059  0.4611
 9154TIP3    H148877   3.605   4.404   3.440 -1.2067  0.5097 -0.6921
 9154TIP3    H248878   3.554   4.292   3.529  0.5225  0.1279 -0.1395
 9155TIP3   OH248879   6.707   6.714   5.318 -0.2040 -0.6465  0.2550
 9155TIP3    H148880   6.634   6.653   5.330  0.3458 -1.2759  0.4134
 9155TIP3    H248881   6.775   6.662   5.276  0.0996 -0.0183 -0.0381
 9156TIP3   OH248882   3.307   2.174  12.597  0.2067  0.7844 -0.6080
 9156TIP3    H148883   3.288   2.100  12.540  2.1604  0.2668 -0.6419
 9156TIP3    H248884   3.355   2.136  12.671  0.1649  1.8545 -0.0048
 9157TIP3   OH248885   3.484   3.775  14.940  0.2020  0.2226 -0.0210
 9157TIP3    H148886   3.455   3.708  15.002  2.6784 -0.9094  0.0118
 9157TIP3    H248887   3.407   3.831  14.929 -0.9641 -0.6994  2.4954
 9158TIP3   OH248888   6.701   5.345   0.375 -0.0120  0.4577  0.5090
 9158TIP3    H148889   6.637   5.273   0.380  0.0594  0.4528  1.4495
 9158TIP3    H248890   6.773   5.308   0.324 -0.1595 -0.0046  0.6237
 9159TIP3   OH248891   4.272   0.262   3.152  0.0386  0.6167 -0.2220
 9159TIP3    H148892   4.247   0.273   3.060  0.2046 -0.9063 -0.4798
 9159TIP3    H248893   4.361   0.295   3.157  0.2832  0.0682 -0.7839
 9160TIP3   OH248894   3.349   1.648  13.624 -0.0394 -0.6516  0.0495
 9160TIP3    H148895   3.266   1.638  13.671 -0.0872  0.8549  0.3193
 9160TIP3    H248896   3.416   1.649  13.692 -0.2592  3.8135  0.5129
 9161TIP3   OH248897   5.581   5.069  12.238  0.4145  0.3405  1.0263
 9161TIP3    H148898   5.514   5.132  12.213  0.7878  0.3010 -0.1099
 9161TIP3    H248899   5.633   5.056  12.159  2.0809  0.7465  1.9915
 9162TIP3   OH248900   5.235   1.111  12.644 -0.5418  0.3699  0.1549
 9162TIP3    H148901   5.253   1.193  12.690  1.6360  0.1957 -0.2752
 9162TIP3    H248902   5.266   1.127  12.555 -2.1361 -0.2306 -0.5566
 9163TIP3   OH248903   1.578   1.259  16.717 -0.5516 -0.0710  0.4420
 9163TIP3    H148904   1.650   1.242  16.656  0.4829  0.7343  1.3763
 9163TIP3    H248905   1.573   1.355  16.722 -1.4918 -0.1192  0.6321
 9164TIP3   OH248906   1.933   3.209  16.578 -0.2421 -0.3140 -0.8476
 9164TIP3    H148907   2.015   3.248  16.547 -0.7651  0.7614 -0.9508
 9164TIP3    H248908   1.881   3.195  16.499 -0.9240  0.8820 -0.6465
 9165TIP3   OH248909   4.815   2.247   0.968 -0.7062 -0.1485 -0.4735
 9165TIP3    H148910   4.836   2.336   0.938 -2.9828  0.8020  0.5264
 9165TIP3    H248911   4.733   2.225   0.923 -0.7774 -1.2820  0.1765
 9166TIP3   OH248912   2.471   3.103   3.909  0.7189 -0.2346  0.3826
 9166TIP3    H148913   2.440   3.035   3.849 -0.4082  0.4331  0.1639
 9166TIP3    H248914   2.416   3.179   3.889  1.0408  0.3271  1.5358
 9167TIP3   OH248915   3.119   0.755   5.682 -0.4186  0.7958  0.4236
 9167TIP3    H148916   3.058   0.707   5.626 -0.6822  0.4002  1.0475
 9167TIP3    H248917   3.083   0.844   5.685 -0.4359  0.8029  0.0114
 9168TIP3   OH248918   1.747   3.871   6.400 -0.0350 -0.3021  0.1810
 9168TIP3    H148919   1.716   3.781   6.386 -1.7912  0.4122 -0.7903
 9168TIP3    H248920   1.829   3.860   6.448 -0.0862 -2.4314 -0.1002
 9169TIP3   OH248921   0.421   6.308   2.013 -0.3221  0.2686 -0.2734
 9169TIP3    H148922   0.441   6.224   1.973 -2.2187 -0.3313 -0.0691
 9169TIP3    H248923   0.340   6.337   1.970 -0.1400  1.6077  0.2218
 9170TIP3   OH248924   0.431   3.314   4.701  0.5299 -0.1309 -0.3490
 9170TIP3    H148925   0.515   3.292   4.661  0.0193  0.2279 -1.6778
 9170TIP3    H248926   0.422   3.408   4.685 -0.8872 -0.4718 -1.7643
 9171TIP3   OH248927   6.159   3.696  11.299  0.0152  0.6126  0.7433
 9171TIP3    H148928   6.103   3.654  11.364 -0.7351  0.4624  0.0076
 9171TIP3    H248929   6.198   3.771  11.345  0.5395 -0.2512  1.7544
 9172TIP3   OH248930   3.176   1.992   0.519 -0.2285 -0.7453 -0.4135
 9172TIP3    H148931   3.264   1.970   0.488  0.1349 -1.3074  0.9898
 9172TIP3    H248932   3.148   1.916   0.569  0.1805  0.9644  2.6767
 9173TIP3   OH248933   5.025   3.457   2.083 -0.1148  0.3984  0.0821
 9173TIP3    H148934   5.116   3.442   2.056  0.0206  1.1417  0.0871
 9173TIP3    H248935   4.986   3.370   2.088  1.0195 -0.0704  1.5600
 9174TIP3   OH248936   0.824   1.955  14.753  0.5857  0.0455  0.0692
 9174TIP3    H148937   0.905   1.953  14.804  0.3860 -0.1512  0.3866
 9174TIP3    H248938   0.835   2.028  14.692  0.8304  0.2824  0.3945
 9175TIP3   OH248939   0.351   1.895   5.760  0.1047 -0.2652  0.0442
 9175TIP3    H148940   0.369   1.805   5.787  0.5471 -0.7121 -1.6005
 9175TIP3    H248941   0.426   1.945   5.791  0.4203 -0.6848 -0.0373
 9176TIP3   OH248942   2.253   1.214  12.523 -0.3787 -0.0119 -0.6634
 9176TIP3    H148943   2.228   1.182  12.436 -0.8729  0.9013 -0.8805
 9176TIP3    H248944   2.257   1.309  12.512 -0.6519  0.1248  0.3699
 9177TIP3   OH248945   6.636   6.243   5.944 -0.3620 -0.5118 -0.0816
 9177TIP3    H148946   6.689   6.322   5.948 -2.4098  1.1764 -2.7127
 9177TIP3    H248947   6.681   6.187   5.881 -0.5648  0.0114 -0.7064
 9178TIP3   OH248948   2.292   4.482  13.898 -0.1445 -0.6524 -0.0125
 9178TIP3    H148949   2.232   4.555  13.915 -0.1325 -0.5504 -0.4024
 9178TIP3    H248950   2.239   4.404  13.915 -0.0101 -0.5546  0.9004
 9179TIP3   OH248951   0.993   0.509  15.850  0.6228  0.0500 -0.2386
 9179TIP3    H148952   1.063   0.482  15.909 -0.0503 -1.1450  0.0465
 9179TIP3    H248953   0.973   0.431  15.799  1.1248  1.0339 -2.0098
 9180TIP3   OH248954   3.124   2.108  15.571  0.0722  0.3130  0.9639
 9180TIP3    H148955   3.134   2.065  15.656 -1.4231 -0.8400  0.6036
 9180TIP3    H248956   3.214   2.120  15.540  0.6307 -2.8454  1.0052
 9181TIP3   OH248957   1.560   5.140   5.293 -0.0349  0.2197 -0.5470
 9181TIP3    H148958   1.581   5.060   5.342  1.9270  2.5153  2.7628
 9181TIP3    H248959   1.580   5.118   5.202  1.0219 -2.8377  0.2974
 9182TIP3   OH248960   1.544   2.255   2.489 -0.5790  0.4447 -0.3547
 9182TIP3    H148961   1.536   2.347   2.515 -0.4041 -0.0570  1.5680
 9182TIP3    H248962   1.516   2.254   2.397 -0.1617  2.4835 -0.5547
 9183TIP3   OH248963   6.209   6.556  17.005  0.5033  0.3890  0.3781
 9183TIP3    H148964   6.195   6.640  17.048  0.4719 -0.2886  1.7539
 9183TIP3    H248965   6.301   6.556  16.981  0.2152  1.3328 -0.8534
 9184TIP3   OH248966   5.699   1.540  11.393 -0.1008  0.0206  0.2514
 9184TIP3    H148967   5.665   1.527  11.482 -1.1478  1.5730  0.1247
 9184TIP3    H248968   5.699   1.453  11.354  0.8119 -0.7769  1.9011
 9185TIP3   OH248969   2.754   0.164   2.357 -0.1119  0.1861  0.2441
 9185TIP3    H148970   2.697   0.241   2.364 -0.1764  0.1320  0.3183
 9185TIP3    H248971   2.791   0.169   2.269 -0.1215  0.2990  0.2468
 9186TIP3   OH248972   2.839   6.734   1.781  0.1163  0.2534 -0.1149
 9186TIP3    H148973   2.797   6.744   1.866  1.0392  0.3042  0.3548
 9186TIP3    H248974   2.816   6.646   1.752 -0.4845  0.3644  0.0253
 9187TIP3   OH248975   3.979   2.270  10.734 -0.5784 -0.4982 -0.7330
 9187TIP3    H148976   3.914   2.206  10.704 -2.0241  0.3899  0.3645
 9187TIP3    H248977   3.962   2.347  10.679 -0.5858 -0.2112 -0.3348
 9188TIP3   OH248978   1.221   4.311  16.258 -0.4596 -0.3298  0.5625
 9188TIP3    H148979   1.219   4.384  16.196  1.0184  1.1754  2.1737
 9188TIP3    H248980   1.136   4.315  16.303 -0.5113  0.2183  0.4238
 9189TIP3   OH248981   5.209   5.726  11.073  0.0967 -0.2566  0.3143
 9189TIP3    H148982   5.278   5.711  11.138  1.2251 -3.0976 -1.3907
 9189TIP3    H248983   5.248   5.789  11.012 -0.0555  0.5427  1.0146
 9190TIP3   OH248984   3.696   5.573  14.067 -0.7034  0.1812 -0.4871
 9190TIP3    H148985   3.648   5.494  14.042  1.4768 -1.1203 -0.7956
 9190TIP3    H248986   3.691   5.629  13.989 -1.2826 -0.1430 -0.6900
 9191TIP3   OH248987   1.179   6.591  11.010  0.2272  0.1870 -0.0196
 9191TIP3    H148988   1.226   6.597  11.093  0.9514  0.9632 -0.4603
 9191TIP3    H248989   1.172   6.682  10.980  2.5976 -0.2218 -2.1969
 9192TIP3   OH248990   6.705   1.616   0.573  0.1160 -0.1806  0.4435
 9192TIP3    H148991   6.729   1.672   0.499 -0.3294  1.1396  1.2501
 9192TIP3    H248992   6.623   1.654   0.606  1.1082  0.2789  2.5656
 9193TIP3   OH248993   6.753   0.316   1.988  0.2036  0.2891  0.5124
 9193TIP3    H148994   6.809   0.331   1.912 -1.1198  0.2283 -0.5173
 9193TIP3    H248995   6.725   0.225   1.980  0.7116  0.0189  1.5615
 9194TIP3   OH248996   0.320   4.623  14.900  0.7175  0.1914  0.0931
 9194TIP3    H148997   0.322   4.650  14.808  0.8666 -2.1993 -0.6470
 9194TIP3    H248998   0.406   4.586  14.917  1.4353  2.3929  1.8588
 9195TIP3   OH248999   6.665   1.624  11.938 -0.4817  0.1330  0.5546
 9195TIP3    H149000   6.699   1.567  12.007 -0.7706 -0.0456  0.5515
 9195TIP3    H249001   6.584   1.582  11.910 -0.0051 -0.1832 -0.3943
 9196TIP3   OH249002   0.575   0.614   0.121  0.7499  0.4774 -0.1460
 9196TIP3    H149003   0.512   0.666   0.072  0.0179  2.2669  2.4521
 9196TIP3    H249004   0.535   0.527   0.127 -1.2198  1.3861  0.8205
 9197TIP3   OH249005   1.557   3.002  11.793  0.3464 -0.5734  0.2528
 9197TIP3    H149006   1.611   3.065  11.745  0.7352 -0.1692  1.1893
 9197TIP3    H249007   1.604   2.989  11.876 -0.1310 -1.5133  0.3860
 9198TIP3   OH249008   2.599   5.821   5.909 -0.1269  0.0368 -0.1576
 9198TIP3    H149009   2.655   5.775   5.847 -0.2613  0.0915 -0.3203
 9198TIP3    H249010   2.651   5.896   5.938  0.7381 -1.0883  1.3495
 9199TIP3   OH249011   0.420   3.680   3.600  0.0704  0.2481 -0.1967
 9199TIP3    H149012   0.447   3.614   3.536  1.0603  1.1242 -0.7237
 9199TIP3    H249013   0.356   3.734   3.553 -0.8352 -0.3830  0.2749
 9200TIP3   OH249014   4.364   4.554   5.472  0.8968  0.9061  0.3717
 9200TIP3    H149015   4.363   4.464   5.440 -0.0579  1.6745 -1.9646
 9200TIP3    H249016   4.280   4.565   5.516  1.0270  0.6850  0.6871
 9201TIP3   OH249017   0.526   4.679  11.094 -0.8314 -0.1992  0.0674
 9201TIP3    H149018   0.608   4.631  11.105  0.3449  1.5529 -0.5746
 9201TIP3    H249019   0.460   4.611  11.077  0.8645 -1.5598 -1.5553
 9202TIP3   OH249020   2.410   0.343   3.546 -0.1675 -0.2360  0.7194
 9202TIP3    H149021   2.360   0.407   3.495  2.3102  0.8159 -0.5953
 9202TIP3    H249022   2.393   0.259   3.504 -1.5242 -0.0698  0.9032
 9203TIP3   OH249023   3.242   5.636  16.308  0.1850 -0.1854  0.1717
 9203TIP3    H149024   3.190   5.616  16.385 -0.5340  1.5554  0.1887
 9203TIP3    H249025   3.330   5.605  16.329 -0.1275 -0.2456  1.4645
 9204TIP3   OH249026   2.808   2.372  13.064  0.4479 -0.4184  0.3070
 9204TIP3    H149027   2.801   2.287  13.107  0.2739 -0.8847 -0.6121
 9204TIP3    H249028   2.898   2.374  13.031  1.0482  0.5381  1.8730
 9205TIP3   OH249029   3.887   4.690  13.542  0.1493  0.0485 -0.1403
 9205TIP3    H149030   3.886   4.675  13.637  0.3382 -0.5205 -0.2203
 9205TIP3    H249031   3.808   4.647  13.511  0.5431 -0.5377 -0.3440
 9206TIP3   OH249032   5.832   2.387   1.143 -0.0358 -0.1649  0.1345
 9206TIP3    H149033   5.797   2.338   1.069  2.4404 -1.7117 -0.1381
 9206TIP3    H249034   5.833   2.478   1.114 -1.4330 -0.4120 -0.7445
 9207TIP3   OH249035   3.362   2.474  12.887  0.3841  0.3093  0.2651
 9207TIP3    H149036   3.298   2.412  12.852  1.7983 -0.2065 -1.6127
 9207TIP3    H249037   3.425   2.420  12.935  0.2456  0.6196  0.8030
 9208TIP3   OH249038   1.884   3.536   2.208 -0.1252 -0.0666  0.4679
 9208TIP3    H149039   1.929   3.589   2.274  1.0430  0.0573 -0.4081
 9208TIP3    H249040   1.838   3.469   2.259 -0.3853  0.8643  1.4880
 9209TIP3   OH249041   2.932   2.226  11.888  0.0525  1.0477  0.2224
 9209TIP3    H149042   2.928   2.174  11.969  1.1160  1.0637  0.2903
 9209TIP3    H249043   3.003   2.287  11.902  2.4076 -0.9763 -1.9039
 9210TIP3   OH249044   2.512   1.979   0.653  0.1111 -0.1098 -0.2172
 9210TIP3    H149045   2.504   2.070   0.623  0.1834  0.1271  0.4660
 9210TIP3    H249046   2.581   1.981   0.719 -0.6994 -0.4425  0.6619
 9211TIP3   OH249047   0.058   6.706   5.062 -0.1539  0.5023 -0.1846
 9211TIP3    H149048   0.052   6.760   4.983  0.6440  1.8380  0.6277
 9211TIP3    H249049  -0.032   6.701   5.095 -0.1138  2.3072  0.3099
 9212TIP3   OH249050   4.945   3.903   1.388 -0.0483 -0.0216  0.5815
 9212TIP3    H149051   4.929   3.958   1.465  0.3049  1.8055 -0.6008
 9212TIP3    H249052   4.870   3.843   1.386 -2.2921  2.5763  0.0937
 9213TIP3   OH249053   4.755   3.551   1.625  0.0045  0.6469  0.1210
 9213TIP3    H149054   4.777   3.612   1.695 -0.7629  2.9851 -1.5478
 9213TIP3    H249055   4.761   3.464   1.665  2.1013  1.7252  2.3561
 9214TIP3   OH249056   0.621   2.868   4.676 -0.0309 -0.4242 -0.1640
 9214TIP3    H149057   0.548   2.815   4.709  0.2465  0.5089  2.1865
 9214TIP3    H249058   0.586   2.957   4.673  0.7368 -0.1050  0.0895
 9215TIP3   OH249059   5.818   1.314  15.345 -0.0301 -0.2491  0.5127
 9215TIP3    H149060   5.781   1.239  15.392 -0.0933 -0.7476 -0.3083
 9215TIP3    H249061   5.904   1.283  15.316 -0.4726 -0.3703 -0.7050
 9216TIP3   OH249062   0.801   1.883  16.375 -0.5509 -0.5899 -0.5279
 9216TIP3    H149063   0.840   1.968  16.394 -2.2570 -0.0616  0.9394
 9216TIP3    H249064   0.810   1.873  16.280 -0.7495  1.4791 -0.8143
 9217TIP3   OH249065   4.597   3.556   3.604  0.0528  0.2478 -0.3018
 9217TIP3    H149066   4.684   3.515   3.609 -0.1887 -0.1789  0.4786
 9217TIP3    H249067   4.537   3.483   3.588 -0.2548  0.4397 -0.0159
 9218TIP3   OH249068   5.637   3.258   4.159  0.1862 -0.6257 -0.4553
 9218TIP3    H149069   5.690   3.328   4.199 -1.5866  0.1987  0.5776
 9218TIP3    H249070   5.566   3.244   4.221 -2.6377  0.5968 -3.1663
 9219TIP3   OH249071   3.028   4.149   1.631 -0.1381 -0.7196 -0.3373
 9219TIP3    H149072   3.084   4.099   1.691 -0.5034 -0.5264  0.1725
 9219TIP3    H249073   3.033   4.102   1.548 -0.2027 -1.4079  0.0448
 9220TIP3   OH249074   2.825   3.979  10.692  0.0673  0.3402  0.1302
 9220TIP3    H149075   2.762   4.024  10.635  0.2545  2.2112  1.3272
 9220TIP3    H249076   2.903   4.034  10.689  1.5260 -1.6418 -0.8733
 9221TIP3   OH249077   1.141   4.869   2.818  0.4720 -0.1267  0.2489
 9221TIP3    H149078   1.076   4.927   2.857  1.2599  2.3146 -1.7252
 9221TIP3    H249079   1.192   4.836   2.892 -0.7215  0.8260  1.5416
 9222TIP3   OH249080   3.475   5.733   5.606  0.3191 -0.4221 -0.2886
 9222TIP3    H149081   3.429   5.705   5.685 -2.5560 -0.1038 -1.7157
 9222TIP3    H249082   3.511   5.652   5.570 -1.1792 -1.1123 -0.3109
 9223TIP3   OH249083   6.136   5.844   3.202  0.2360 -0.5087 -0.5533
 9223TIP3    H149084   6.110   5.931   3.235 -0.0703 -1.3281  1.5679
 9223TIP3    H249085   6.069   5.785   3.238  1.6757 -1.8872 -0.0647
 9224TIP3   OH249086   4.575   3.725   0.460 -0.7885  0.2049 -0.1272
 9224TIP3    H149087   4.590   3.798   0.520 -0.5569 -0.9737  1.2927
 9224TIP3    H249088   4.572   3.648   0.516 -1.2541 -0.8637 -1.5726
 9225TIP3   OH249089   1.134   1.390   2.093 -0.1906 -0.3713  0.2802
 9225TIP3    H149090   1.040   1.408   2.094 -0.0922  0.2012  1.4909
 9225TIP3    H249091   1.157   1.387   2.000 -1.2443  0.3927 -0.0262
 9226TIP3   OH249092   5.052   1.305   3.876 -0.1648 -0.2853 -0.3073
 9226TIP3    H149093   5.063   1.379   3.935 -2.0545 -1.0944  1.1617
 9226TIP3    H249094   5.140   1.269   3.865  0.3648  0.4973  1.2077
 9227TIP3   OH249095   3.308   3.633  12.242 -0.1445 -0.1279 -0.1138
 9227TIP3    H149096   3.383   3.692  12.233  0.7708 -1.4105 -1.4242
 9227TIP3    H249097   3.310   3.606  12.334  3.1036 -2.6404 -0.7225
 9228TIP3   OH249098   6.548   0.330  12.709 -0.0236 -0.7860  0.0671
 9228TIP3    H149099   6.569   0.421  12.688  1.2013 -1.4994 -2.1249
 9228TIP3    H249100   6.455   0.321  12.691  0.2758 -0.4551 -1.7397
 9229TIP3   OH249101   3.421   6.099  11.572 -0.3026 -0.1966  0.4691
 9229TIP3    H149102   3.442   6.014  11.533  0.2095  0.6725 -1.2117
 9229TIP3    H249103   3.326   6.105  11.567 -0.3582 -0.7518  0.7875
 9230TIP3   OH249104   6.671   6.106   1.799 -0.1365 -0.8662  0.3461
 9230TIP3    H149105   6.675   6.142   1.711 -0.1222  0.2632  0.7959
 9230TIP3    H249106   6.682   6.182   1.857 -1.0252 -1.4592  1.3265
 9231TIP3   OH249107   0.357   3.665  11.041  0.0773  0.7213  0.7402
 9231TIP3    H149108   0.351   3.652  10.946 -0.4633  0.8822  0.7489
 9231TIP3    H249109   0.382   3.579  11.075 -1.8572  0.0560  0.6388
 9232TIP3   OH249110   5.740   6.116   4.849  0.0333  0.2683  0.2932
 9232TIP3    H149111   5.814   6.069   4.810 -1.5491 -0.6250 -1.8591
 9232TIP3    H249112   5.663   6.067   4.819 -1.5746  2.7927  0.0764
 9233TIP3   OH249113   5.568   4.552   2.795 -0.0209 -0.2926  0.1123
 9233TIP3    H149114   5.651   4.554   2.843 -1.2581  1.4674  2.3865
 9233TIP3    H249115   5.593   4.561   2.703  2.2898  3.7760  0.9021
 9234TIP3   OH249116   6.058   5.812   1.918 -0.8143 -0.2782  0.1826
 9234TIP3    H149117   6.090   5.841   1.833  0.1686 -1.0999  0.2567
 9234TIP3    H249118   6.037   5.894   1.965  0.0657  0.2395 -0.2992
 9235TIP3   OH249119   2.485   3.646  12.522 -0.7253 -0.2046 -0.2259
 9235TIP3    H149120   2.451   3.576  12.578 -0.9469 -0.6293 -0.8815
 9235TIP3    H249121   2.429   3.644  12.444  0.6528 -0.7905 -1.2389
 9236TIP3   OH249122   4.309   0.533   6.740  0.4166  0.4286  0.7671
 9236TIP3    H149123   4.331   0.579   6.659  0.4428  0.7331  0.9461
 9236TIP3    H249124   4.368   0.458   6.742 -0.2106 -0.1037  0.0352
 9237TIP3   OH249125   5.594   1.127   3.609  0.0071  0.2487 -0.5128
 9237TIP3    H149126   5.665   1.074   3.573  0.4645 -1.4529  2.5116
 9237TIP3    H249127   5.515   1.089   3.571  0.5295 -0.3682 -1.0172
 9238TIP3   OH249128   1.493   3.758   4.912 -0.3083  0.0220  0.2131
 9238TIP3    H149129   1.470   3.722   4.997 -1.0038 -0.5131 -0.1850
 9238TIP3    H249130   1.585   3.783   4.920 -0.6197  0.8625  1.4090
 9239TIP3   OH249131   1.041   4.196  12.611 -0.1539  0.1621  0.0941
 9239TIP3    H149132   1.056   4.129  12.677 -1.0192 -0.8504 -0.7087
 9239TIP3    H249133   0.951   4.182  12.582  0.2925  0.3890 -1.4969
 9240TIP3   OH249134   3.598   1.137   3.858 -0.0307 -0.3205 -0.0973
 9240TIP3    H149135   3.622   1.209   3.801  1.5573  0.2252  1.2032
 9240TIP3    H249136   3.636   1.159   3.943 -1.5953 -1.5164  0.9707
 9241TIP3   OH249137   2.249   0.360  14.662 -0.4046 -0.3148  0.3577
 9241TIP3    H149138   2.340   0.348  14.688 -0.3910 -0.1595  0.3838
 9241TIP3    H249139   2.245   0.332  14.571 -0.2868 -0.1251  0.2941
 9242TIP3   OH249140   5.268   4.779  12.393  0.2776 -0.5307 -0.2063
 9242TIP3    H149141   5.301   4.868  12.405  2.0496 -1.4070  1.9714
 9242TIP3    H249142   5.326   4.740  12.327 -0.8183  0.0108 -1.5534
 9243TIP3   OH249143   0.997   3.926   3.718  0.3587  0.1124 -0.0473
 9243TIP3    H149144   1.027   3.919   3.808 -0.6620 -0.0752  0.2911
 9243TIP3    H249145   0.905   3.953   3.725  0.5722  1.1825 -1.0548
 9244TIP3   OH249146   1.813   0.486   3.573  0.6893  0.7065  0.0542
 9244TIP3    H149147   1.762   0.501   3.653  0.2707  0.1821 -0.1082
 9244TIP3    H249148   1.792   0.560   3.516 -0.6843 -0.0189 -0.4067
 9245TIP3   OH249149   1.279   6.218  10.833  0.2184  0.6291 -0.4357
 9245TIP3    H149150   1.250   6.126  10.829  0.8871  0.4345 -0.8849
 9245TIP3    H249151   1.339   6.220  10.907 -0.5933  0.9419  0.2292
 9246TIP3   OH249152   0.015   5.662   3.368 -0.1622  0.5737 -0.5476
 9246TIP3    H149153  -0.060   5.647   3.425 -0.2667  2.6223 -0.0699
 9246TIP3    H249154  -0.006   5.616   3.287 -2.4819  1.9983 -0.8422
 9247TIP3   OH249155   5.497   2.048  15.778  0.2098  0.6994 -0.0416
 9247TIP3    H149156   5.438   1.999  15.721  0.2914  0.5287  0.0207
 9247TIP3    H249157   5.531   2.118  15.722  0.6581  0.2459 -0.3474
 9248TIP3   OH249158   2.070   1.920   5.701 -0.2809  0.2316 -0.0846
 9248TIP3    H149159   2.069   1.827   5.679 -1.1829  0.4862 -1.2490
 9248TIP3    H249160   2.076   1.964   5.616 -0.3013  1.2399  0.4254
 9249TIP3   OH249161   2.298   2.108  16.106 -0.0060  0.0204  0.4533
 9249TIP3    H149162   2.208   2.081  16.123  0.5457 -0.7428  2.3769
 9249TIP3    H249163   2.351   2.060  16.170  1.9953 -0.8961 -1.6872
 9250TIP3   OH249164   1.199   1.578  15.863  0.3543 -0.1481 -0.9522
 9250TIP3    H149165   1.277   1.524  15.874 -0.1170 -0.7235 -0.3613
 9250TIP3    H249166   1.127   1.524  15.896 -0.1444  0.7895 -0.4449
 9251TIP3   OH249167   5.001   0.106   4.750  0.0129  0.0839  0.0574
 9251TIP3    H149168   4.959   0.063   4.676  0.4102  0.7456 -0.5698
 9251TIP3    H249169   4.994   0.043   4.822  0.3622 -0.9275 -0.7658
 9252TIP3   OH249170   0.717   1.128  16.401 -0.2218 -0.1281 -0.5237
 9252TIP3    H149171   0.652   1.193  16.426  0.6684  0.4399  0.3699
 9252TIP3    H249172   0.670   1.045  16.403 -0.7245  0.1611  0.9811
 9253TIP3   OH249173   0.163   5.962   0.605 -0.1068 -0.0052 -0.1317
 9253TIP3    H149174   0.072   5.966   0.634 -0.9817 -2.0834 -2.2408
 9253TIP3    H249175   0.214   5.964   0.686 -1.9821  1.2760  1.1001
 9254TIP3   OH249176   0.630   6.294   3.667  0.1300  0.6550 -0.1808
 9254TIP3    H149177   0.566   6.365   3.653 -2.2824 -1.1143  1.0440
 9254TIP3    H249178   0.643   6.293   3.762 -0.7708 -1.1880 -0.0403
 9255TIP3   OH249179   5.982   0.666   1.836 -0.6261 -0.4560 -0.8212
 9255TIP3    H149180   6.022   0.591   1.793  0.3866  0.6600 -1.8847
 9255TIP3    H249181   6.010   0.660   1.927  1.1521 -0.2803 -1.3257
 9256TIP3   OH249182   2.410   4.994  13.231  0.6867 -0.1509  0.1835
 9256TIP3    H149183   2.408   4.899  13.221 -0.3971 -0.3878  2.0396
 9256TIP3    H249184   2.366   5.009  13.315 -0.4530  2.0757 -0.7314
 9257TIP3   OH249185   2.658   4.897   1.999 -0.0314  0.5706  0.0615
 9257TIP3    H149186   2.613   4.911   2.082 -0.7881  1.1638 -0.4266
 9257TIP3    H249187   2.589   4.903   1.933  0.6807  0.9607 -0.6756
 9258TIP3   OH249188   1.503   4.395   3.614 -0.2229 -0.4061 -0.1098
 9258TIP3    H149189   1.507   4.487   3.586 -1.4102 -0.2759  0.0998
 9258TIP3    H249190   1.456   4.350   3.544  0.0689 -0.8003 -0.0574
 9259TIP3   OH249191   0.694   3.781   2.476  0.5370  0.2041  1.3650
 9259TIP3    H149192   0.784   3.807   2.496  0.6299 -1.5104  3.5365
 9259TIP3    H249193   0.672   3.717   2.544 -1.9147 -0.3303  0.1681
 9260TIP3   OH249194   2.939   1.072   0.254  0.3567  0.3999 -0.2552
 9260TIP3    H149195   2.925   0.977   0.249 -1.4420  0.7003 -2.4253
 9260TIP3    H249196   2.858   1.106   0.290  0.7799  1.1887 -0.0246
 9261TIP3   OH249197   3.347   0.215   4.735 -0.0239 -0.9700  0.4146
 9261TIP3    H149198   3.390   0.179   4.813  3.4509 -0.6727 -1.1794
 9261TIP3    H249199   3.331   0.139   4.679 -1.3595 -1.0254  0.8226
 9262TIP3   OH249200   3.843   3.204  13.955 -0.0073 -0.5229  0.1665
 9262TIP3    H149201   3.843   3.247  13.870  0.4659  2.3381  1.4990
 9262TIP3    H249202   3.934   3.180  13.970  0.5733  2.1103  1.2516
 9263TIP3   OH249203   6.440   0.350  13.553  0.3813 -0.3171  0.3459
 9263TIP3    H149204   6.384   0.323  13.480 -1.6498 -0.2112  1.7742
 9263TIP3    H249205   6.489   0.425  13.519  0.2532 -0.8845 -1.2020
 9264TIP3   OH249206   6.624   2.821  12.528  0.0429  0.3123 -0.1497
 9264TIP3    H149207   6.569   2.758  12.481 -0.4908 -0.2467  1.1716
 9264TIP3    H249208   6.700   2.770  12.556 -0.6503  0.0840  1.3987
 9265TIP3   OH249209   3.971   1.260  14.163  0.5194  0.0548  0.0759
 9265TIP3    H149210   4.008   1.260  14.075  2.1375  1.2584  0.6975
 9265TIP3    H249211   3.943   1.170  14.178  2.6067 -0.7743 -0.7137
 9266TIP3   OH249212   0.364   0.373   4.567 -0.0522 -0.3828  0.2295
 9266TIP3    H149213   0.387   0.385   4.474  1.0520 -1.6833  0.2946
 9266TIP3    H249214   0.449   0.369   4.612 -0.5975  1.3537  1.4817
 9267TIP3   OH249215   3.677   1.764  14.489  0.3551  0.0101 -0.5384
 9267TIP3    H149216   3.649   1.717  14.411  1.0109 -1.3042 -0.0246
 9267TIP3    H249217   3.762   1.725  14.512 -0.4321 -0.6288  1.5887
 9268TIP3   OH249218   1.662   2.133  16.701  0.3098  0.5464  0.0443
 9268TIP3    H149219   1.676   2.070  16.773 -0.5651  0.2758 -0.0060
 9268TIP3    H249220   1.598   2.090  16.644 -0.4630  1.5656  0.1159
 9269TIP3   OH249221   0.500   5.425   1.811  1.0867 -0.4809  0.4464
 9269TIP3    H149222   0.541   5.469   1.737  1.7243 -2.6844 -0.6013
 9269TIP3    H249223   0.504   5.489   1.882  1.9829  1.0962 -0.9429
 9270TIP3   OH249224   1.455   0.827  11.627 -0.1910  0.2800  0.0418
 9270TIP3    H149225   1.393   0.896  11.603  0.2464  0.5452 -0.3554
 9270TIP3    H249226   1.440   0.758  11.562 -0.9931 -0.2347  0.7559
 9271TIP3   OH249227   2.218   0.783  12.758  0.1130 -0.5204 -0.0521
 9271TIP3    H149228   2.225   0.878  12.765 -0.4878 -0.4480 -0.3189
 9271TIP3    H249229   2.212   0.766  12.664 -1.3244 -0.6876  0.0435
 9272TIP3   OH249230   6.362   0.002  14.176 -0.5192  0.1067 -0.4681
 9272TIP3    H149231   6.412   0.050  14.109  1.0115 -1.7888 -0.7725
 9272TIP3    H249232   6.368   0.057  14.254  1.8335  0.1355 -0.5950
 9273TIP3   OH249233   0.346   3.645   4.992  0.1207  0.8143 -0.2283
 9273TIP3    H149234   0.268   3.668   5.042 -1.0934 -1.6171 -0.8928
 9273TIP3    H249235   0.395   3.586   5.050  0.2572  0.4285 -0.7297
 9274TIP3   OH249236   0.029   2.298   6.233  0.6694 -0.4204 -0.7036
 9274TIP3    H149237  -0.010   2.243   6.166  2.1703 -0.2734 -1.7431
 9274TIP3    H249238   0.113   2.257   6.252  2.4863  2.1691 -2.5097
 9275TIP3   OH249239   2.230   6.420   5.782 -0.1282 -0.2955  0.0594
 9275TIP3    H149240   2.283   6.434   5.860  0.8836 -1.8497 -0.3139
 9275TIP3    H249241   2.287   6.447   5.709 -0.8403  0.5627 -0.1998
 9276TIP3   OH249242   1.284   2.982  15.924  0.2719  0.0669  0.1871
 9276TIP3    H149243   1.234   2.902  15.940 -0.6570  0.5038 -0.4418
 9276TIP3    H249244   1.359   2.953  15.872 -1.1902 -0.1223 -1.9134
 9277TIP3   OH249245   4.590   6.810  14.818  0.2014 -0.5074 -0.1900
 9277TIP3    H149246   4.583   6.853  14.904 -0.0611 -2.1093  0.6370
 9277TIP3    H249247   4.668   6.848  14.778  0.3393  0.2559  0.7738
 9278TIP3   OH249248   3.961   0.263  12.259  0.1793  0.4067  0.5399
 9278TIP3    H149249   3.871   0.288  12.241  0.2967 -0.0130 -0.6919
 9278TIP3    H249250   4.014   0.314  12.198  0.6663 -0.3429  0.3124
 9279TIP3   OH249251   1.495   0.569  11.223  0.3399  0.0041 -0.0759
 9279TIP3    H149252   1.434   0.498  11.204 -0.0724  0.5049 -0.6941
 9279TIP3    H249253   1.549   0.537  11.295  1.2035 -1.5691 -1.3374
 9280TIP3   OH249254   6.252   2.104   0.381 -0.8075  0.1561  0.1376
 9280TIP3    H149255   6.341   2.070   0.382 -0.8509  0.0509  0.3937
 9280TIP3    H249256   6.198   2.030   0.354 -0.7956  0.2724 -0.2080
 9281TIP3   OH249257   0.069   0.737  14.985  0.0641 -0.3014  0.0262
 9281TIP3    H149258   0.158   0.772  14.977 -0.1202  0.3525  0.6435
 9281TIP3    H249259   0.051   0.740  15.079 -0.3961 -0.9883 -0.0334
 9282TIP3   OH249260   2.817   3.332  15.655 -0.1424 -0.3002 -0.3050
 9282TIP3    H149261   2.808   3.421  15.689 -1.5186 -0.9139  1.0261
 9282TIP3    H249262   2.834   3.278  15.732 -0.5680 -1.3560 -0.9311
 9283TIP3   OH249263   4.875   3.385   4.130 -0.2090 -0.2753 -0.2241
 9283TIP3    H149264   4.830   3.357   4.210  0.1278 -1.4156 -0.4178
 9283TIP3    H249265   4.826   3.345   4.059  0.9074 -1.3146 -0.4519
 9284TIP3   OH249266   6.246   2.158  12.784 -0.2136  0.0387  1.0478
 9284TIP3    H149267   6.273   2.239  12.741 -0.8738  0.8749  2.1477
 9284TIP3    H249268   6.248   2.179  12.878 -1.1204 -0.9743  1.3155
 9285TIP3   OH249269   1.472   4.041  12.711  0.3990 -0.3670 -0.2084
 9285TIP3    H149270   1.467   4.124  12.758  0.6642  0.8691 -2.2497
 9285TIP3    H249271   1.557   4.044  12.666 -0.5187 -0.6974 -2.0764
 9286TIP3   OH249272   4.809   1.917   0.116 -0.0749 -0.2515  0.9272
 9286TIP3    H149273   4.770   1.871   0.041 -0.4664  0.4419  0.6988
 9286TIP3    H249274   4.892   1.951   0.082 -0.0374 -0.3272  0.9425
 9287TIP3   OH249275   4.945   6.647   2.867 -0.0618 -0.3905  0.4435
 9287TIP3    H149276   4.949   6.657   2.962  0.6855  0.3747  0.3492
 9287TIP3    H249277   5.032   6.616   2.842 -0.8676 -2.6275  0.1984
 9288TIP3   OH249278   2.585   0.135  12.769 -0.1882  0.0041 -0.3906
 9288TIP3    H149279   2.555   0.198  12.703 -0.7617 -0.4870 -0.6149
 9288TIP3    H249280   2.526   0.148  12.843 -1.3058 -1.2611 -0.9945
 9289TIP3   OH249281   6.741   1.090  11.427  0.6214 -0.2381 -0.3663
 9289TIP3    H149282   6.724   1.084  11.333  0.2274  0.4133 -0.3438
 9289TIP3    H249283   6.782   1.007  11.450  0.3134 -0.5775 -1.0289
 9290TIP3   OH249284   0.144   3.249  10.639 -0.0471 -0.2396 -0.0771
 9290TIP3    H149285   0.060   3.289  10.618  0.2915  0.4422 -0.1671
 9290TIP3    H249286   0.189   3.241  10.555 -0.0352 -0.6486 -0.0357
 9291TIP3   OH249287   4.268   1.024  16.397 -0.0034  0.3925 -0.6001
 9291TIP3    H149288   4.295   1.034  16.306 -0.7721  0.1344 -0.8646
 9291TIP3    H249289   4.172   1.024  16.393 -0.0609  1.2943  0.3025
 9292TIP3   OH249290   3.396   5.623  10.953  0.7176 -0.5151  0.1718
 9292TIP3    H149291   3.448   5.702  10.936  0.5090 -0.2798  0.6123
 9292TIP3    H249292   3.345   5.611  10.873  0.3767  0.0874  0.2929
 9293TIP3   OH249293   1.279   4.395   2.381  0.9107  0.6703  0.1238
 9293TIP3    H149294   1.342   4.434   2.320 -1.3989  0.7719 -2.3856
 9293TIP3    H249295   1.286   4.301   2.365 -0.8511  0.7703 -1.7000
 9294TIP3   OH249296   0.094   2.329   5.607  0.5434  0.1192 -0.0430
 9294TIP3    H149297   0.150   2.252   5.594  0.9384  0.8138 -3.1064
 9294TIP3    H249298   0.005   2.299   5.588  0.5595  0.1602 -0.1854
 9295TIP3   OH249299   4.383   2.566   5.661 -0.0587  0.1017 -0.4352
 9295TIP3    H149300   4.369   2.570   5.756  1.7434 -1.6146 -0.0526
 9295TIP3    H249301   4.325   2.496   5.631  0.6170 -0.5170 -0.3189
 9296TIP3   OH249302   1.554   1.368   5.669  0.0781 -0.2421  0.2156
 9296TIP3    H149303   1.537   1.397   5.758 -0.5105 -1.1840  0.4198
 9296TIP3    H249304   1.624   1.303   5.678  0.3338 -0.0133 -0.0718
 9297TIP3   OH249305   5.623   0.487   2.201  0.5838  0.1987 -0.4449
 9297TIP3    H149306   5.689   0.537   2.152  0.2726 -0.9723 -2.1327
 9297TIP3    H249307   5.618   0.403   2.156 -0.0627 -0.7817  1.3611
 9298TIP3   OH249308   6.346   1.072  14.959 -0.4153 -0.4161 -0.0337
 9298TIP3    H149309   6.401   1.093  14.885  0.5076  0.4628  0.8696
 9298TIP3    H249310   6.346   0.976  14.963 -1.6066 -0.5501 -1.9496
 9299TIP3   OH249311   0.880   5.996   6.543  0.1923 -0.1678  0.1198
 9299TIP3    H149312   0.942   6.069   6.548  1.4224 -1.2313  1.1796
 9299TIP3    H249313   0.836   5.996   6.628  0.4569 -0.8680  0.2653
 9300TIP3   OH249314   3.951   6.274   4.231  0.1800  0.1491  0.0738
 9300TIP3    H149315   3.871   6.221   4.221 -0.7625  1.3980  0.7023
 9300TIP3    H249316   3.981   6.255   4.320 -1.0008  1.6901  0.8726
 9301TIP3   OH249317   2.150   0.440   6.679 -0.4778  0.7842 -0.2910
 9301TIP3    H149318   2.129   0.475   6.766  1.3463  0.9645  0.1244
 9301TIP3    H249319   2.211   0.504   6.642 -0.3396  0.1259 -1.2366
 9302TIP3   OH249320   5.562   6.454   4.989  0.2668 -0.0421  0.1903
 9302TIP3    H149321   5.623   6.487   4.923 -0.9842 -0.7964 -1.4100
 9302TIP3    H249322   5.617   6.408   5.052  1.2730 -2.0540 -2.0391
 9303TIP3   OH249323   0.902   0.177  14.607  0.4608 -0.1435 -0.0979
 9303TIP3    H149324   0.827   0.135  14.565 -0.4077  0.2642  0.9960
 9303TIP3    H249325   0.937   0.235  14.540 -1.6273  1.4006  0.0474
 9304TIP3   OH249326   4.136   0.491   0.370 -0.5874  0.7062  0.1871
 9304TIP3    H149327   4.058   0.517   0.420 -2.8714 -0.0140 -2.7598
 9304TIP3    H249328   4.140   0.553   0.297  0.6872 -0.2643 -0.6154
 9305TIP3   OH249329   5.827   5.046  13.284 -0.2275 -0.3778  0.1760
 9305TIP3    H149330   5.790   5.005  13.206  0.8574  0.2949 -0.7247
 9305TIP3    H249331   5.841   4.974  13.344 -0.4505 -1.0112 -0.5124
 9306TIP3   OH249332   6.665   0.768  16.753 -0.5167  0.2361  0.4234
 9306TIP3    H149333   6.583   0.764  16.704 -0.6158 -0.4810  0.6275
 9306TIP3    H249334   6.675   0.680  16.790  0.5593  0.1912  0.0546
 9307TIP3   OH249335   5.238   0.924  11.767 -0.5476 -0.3675  0.1239
 9307TIP3    H149336   5.217   0.983  11.694 -1.1948 -1.0495 -0.2565
 9307TIP3    H249337   5.180   0.849  11.755  1.7500 -2.1599 -0.7398
 9308TIP3   OH249338   4.871   2.162  13.074 -0.1339 -0.5391 -0.2315
 9308TIP3    H149339   4.877   2.227  13.004  1.7528 -0.5499 -0.1330
 9308TIP3    H249340   4.778   2.160  13.098 -0.1466  2.9094  0.5076
 9309TIP3   OH249341   1.611   6.670  10.616 -0.6281 -0.1283  0.1029
 9309TIP3    H149342   1.654   6.603  10.563 -1.4862  0.2061 -1.0606
 9309TIP3    H249343   1.577   6.733  10.552  0.9242  1.9181  1.1831
 9310TIP3   OH249344   2.119   1.517  12.088 -0.1456 -0.1453 -0.1529
 9310TIP3    H149345   2.116   1.454  12.016  0.0819 -0.1938 -0.1209
 9310TIP3    H249346   2.046   1.492  12.145 -0.8739  0.4303 -0.8081
 9311TIP3   OH249347   4.510   5.033  10.438 -0.2958 -0.1506  0.6385
 9311TIP3    H149348   4.541   5.122  10.453  0.3033  0.0797 -1.6375
 9311TIP3    H249349   4.492   4.999  10.526  2.5336  1.0985  1.8132
 9312TIP3   OH249350   3.118   2.683   3.074  0.0992  0.1749  0.0293
 9312TIP3    H149351   3.196   2.629   3.089  0.2396 -0.5766 -2.7202
 9312TIP3    H249352   3.143   2.742   3.003 -1.7131  0.1125 -0.7196
 9313TIP3   OH249353   0.296   5.844  16.124 -0.3301  0.0429 -0.2317
 9313TIP3    H149354   0.219   5.896  16.147 -0.6676  0.4704 -2.1128
 9313TIP3    H249355   0.278   5.757  16.158 -1.8719  0.0266 -0.9979
 9314TIP3   OH249356   2.543   1.951  13.322  0.6493 -0.3153 -0.0110
 9314TIP3    H149357   2.456   1.925  13.352  0.8940  1.2160  2.3126
 9314TIP3    H249358   2.531   1.972  13.229 -1.8676  1.3654  0.5825
 9315TIP3   OH249359   1.442   5.279  12.775  0.5478  0.0795  0.3685
 9315TIP3    H149360   1.437   5.364  12.818  0.2447  0.3118 -0.1152
 9315TIP3    H249361   1.370   5.229  12.813 -0.0623  0.4677 -0.2414
 9316TIP3   OH249362   1.350   0.062  12.302  0.8371  0.7163  0.0889
 9316TIP3    H149363   1.367   0.155  12.321  1.3729  0.9802 -1.4582
 9316TIP3    H249364   1.383   0.050  12.213  0.2568 -0.8376  0.0487
 9317TIP3   OH249365   2.426   3.594   3.317 -0.2956  0.0657 -0.1755
 9317TIP3    H149366   2.450   3.571   3.407  0.2510  1.1137 -0.0379
 9317TIP3    H249367   2.375   3.674   3.326  0.8055  0.8701 -0.8664
 9318TIP3   OH249368   4.771   0.152   5.786  0.7561 -0.5926 -0.2794
 9318TIP3    H149369   4.696   0.192   5.830  0.5248 -2.2161  0.9028
 9318TIP3    H249370   4.801   0.219   5.724 -0.7006  0.6756  0.3111
 9319TIP3   OH249371   1.080   0.060  13.538 -0.3025 -0.2452 -0.5035
 9319TIP3    H149372   1.103   0.107  13.458  1.4561  0.3092  0.2748
 9319TIP3    H249373   1.097  -0.032  13.517 -0.8232 -0.2121 -1.0798
 9320TIP3   OH249374   6.159   4.486  14.112  0.3398 -0.0185  0.1508
 9320TIP3    H149375   6.098   4.547  14.152  0.6026  0.4814 -0.2099
 9320TIP3    H249376   6.190   4.530  14.033 -0.4157 -1.1100 -0.8075
 9321TIP3   OH249377   4.544   4.756  15.329 -0.6312  0.1408 -0.1960
 9321TIP3    H149378   4.600   4.812  15.276 -0.8725  0.6221  0.0520
 9321TIP3    H249379   4.594   4.743  15.410  0.3096 -1.6299 -0.9959
 9322TIP3   OH249380   0.507   3.423   0.086  0.0224 -0.2964 -0.1591
 9322TIP3    H149381   0.438   3.357   0.077 -0.0616 -0.3339  0.7540
 9322TIP3    H249382   0.524   3.428   0.180  1.1335 -0.1531 -0.3590
 9323TIP3   OH249383   0.830   4.094  10.013 -0.2496 -0.2981  0.1096
 9323TIP3    H149384   0.867   4.011  10.042  0.2474 -0.2511 -0.3624
 9323TIP3    H249385   0.756   4.070   9.957  1.9514 -0.5868 -2.9078
 9324TIP3   OH249386   4.570   1.879  14.328 -0.1456 -0.0823 -0.1247
 9324TIP3    H149387   4.549   1.938  14.256  0.3470 -1.6431 -1.5874
 9324TIP3    H249388   4.654   1.840  14.304  0.6883  0.2957  1.9268
 9325TIP3   OH249389   4.091   5.773   4.074 -0.1268 -0.2693 -0.0290
 9325TIP3    H149390   4.002   5.769   4.038 -0.0534 -1.3006 -0.1237
 9325TIP3    H249391   4.126   5.855   4.041 -1.3358  0.5609  0.6954
 9326TIP3   OH249392   5.973   6.624   3.277 -0.3358  0.8003 -0.1913
 9326TIP3    H149393   5.920   6.654   3.203 -0.5370  4.1372  1.1227
 9326TIP3    H249394   5.950   6.682   3.349  1.2689 -1.0555  1.9847
 9327TIP3   OH249395   5.022   4.026  15.614  0.3697  0.5175 -0.6232
 9327TIP3    H149396   4.944   4.081  15.615  0.2238  0.3915 -2.0273
 9327TIP3    H249397   5.092   4.083  15.581  0.3788  0.0766 -1.3987
 9328TIP3   OH249398   4.154   2.889   0.927 -0.4787  0.1840 -0.2432
 9328TIP3    H149399   4.112   2.888   0.841  0.3197  2.0620 -0.6942
 9328TIP3    H249400   4.087   2.924   0.985 -0.3865  0.7483 -0.4729
 9329TIP3   OH249401   3.023   1.779   5.625 -0.9227 -0.1348 -0.8807
 9329TIP3    H149402   3.062   1.865   5.611  0.0789 -0.3079  0.6729
 9329TIP3    H249403   2.937   1.798   5.663  0.5626  0.2300  2.5889
 9330TIP3   OH249404   1.254   4.394   5.620 -0.1967 -0.0851  0.0236
 9330TIP3    H149405   1.311   4.319   5.601  1.7526  1.7779 -2.1150
 9330TIP3    H249406   1.291   4.433   5.699 -1.3882 -1.4278  1.3122
 9331TIP3   OH249407   4.269   4.890   5.181  0.3866  0.0063 -0.3370
 9331TIP3    H149408   4.309   4.821   5.128  0.8203  0.5643 -0.7564
 9331TIP3    H249409   4.178   4.864   5.190  0.6883 -0.9467  0.0537
 9332TIP3   OH249410   3.386   3.385  11.107 -0.0789 -0.5417 -0.0180
 9332TIP3    H149411   3.379   3.309  11.164 -1.1618 -1.6195 -1.4984
 9332TIP3    H249412   3.470   3.374  11.062 -0.4445 -1.1520 -0.5750
 9333TIP3   OH249413   1.476   3.190  15.526  0.3520  0.2071 -0.2571
 9333TIP3    H149414   1.434   3.270  15.495 -0.2841 -0.6753 -1.7996
 9333TIP3    H249415   1.570   3.207  15.515  0.1800 -0.0665 -2.9560
 9334TIP3   OH249416   4.132   5.984  13.306 -0.0438  0.0130 -0.2558
 9334TIP3    H149417   4.115   6.031  13.387  0.4786 -0.5494  0.1894
 9334TIP3    H249418   4.114   5.892  13.327  0.4634 -0.1840 -0.6586
 9335TIP3   OH249419   3.812   2.533  10.850 -0.2097  0.1432  0.0125
 9335TIP3    H149420   3.808   2.527  10.755  1.8407 -0.8706 -0.0488
 9335TIP3    H249421   3.845   2.621  10.868  1.7569 -0.4846 -0.3412
 9336TIP3   OH249422   3.406   2.702  10.725  0.0613 -0.0010 -0.0432
 9336TIP3    H149423   3.362   2.674  10.645 -0.9591  0.9953  0.1451
 9336TIP3    H249424   3.485   2.747  10.694 -0.0955 -0.0094 -0.4635
 9337TIP3   OH249425   6.033   0.947  16.509 -0.8240 -0.2709 -0.2142
 9337TIP3    H149426   6.115   0.955  16.461 -0.0453 -0.8964  0.9407
 9337TIP3    H249427   6.026   1.029  16.558  1.1808 -1.6274  2.6716
 9338TIP3   OH249428   3.851   6.467  15.562  0.5368 -0.3282  0.1855
 9338TIP3    H149429   3.880   6.468  15.470 -0.9684 -1.2239 -0.3261
 9338TIP3    H249430   3.861   6.375  15.589 -0.5342 -0.3965  0.3948
 9339TIP3   OH249431   5.415   5.071   5.269 -0.0562  0.3183  0.2182
 9339TIP3    H149432   5.326   5.044   5.291 -0.5546  0.0653 -1.8840
 9339TIP3    H249433   5.467   5.047   5.345 -1.8967  1.2734  1.8685
 9340TIP3   OH249434   1.570   5.350   2.855 -0.4343 -0.0292  0.3143
 9340TIP3    H149435   1.613   5.422   2.808 -1.0100  0.4120  0.4502
 9340TIP3    H249436   1.640   5.308   2.905  0.8967 -2.4356 -3.1706
 9341TIP3   OH249437   1.431   3.262   5.560 -0.5984  0.4424  0.1890
 9341TIP3    H149438   1.339   3.280   5.541 -0.5862  0.3271  0.0234
 9341TIP3    H249439   1.452   3.320   5.633  0.0497  2.6994 -1.6887
 9342TIP3   OH249440   6.334   1.472   5.386 -0.1348 -0.4645  0.1141
 9342TIP3    H149441   6.272   1.529   5.432 -0.5968  0.5487 -1.6407
 9342TIP3    H249442   6.388   1.532   5.335  1.4030 -1.4401  0.5552
 9343TIP3   OH249443   3.254   3.947   2.689 -0.2956  0.6346  0.1423
 9343TIP3    H149444   3.285   3.979   2.774 -0.2310  2.2666 -0.4563
 9343TIP3    H249445   3.312   3.988   2.625  0.2818 -1.3320 -0.6881
 9344TIP3   OH249446   6.258   5.018   4.923  0.5879  0.2860 -0.3226
 9344TIP3    H149447   6.289   4.931   4.897  1.6066  0.0533  1.5420
 9344TIP3    H249448   6.291   5.076   4.855  1.3191 -0.5686 -0.7122
 9345TIP3   OH249449   0.910   2.574  16.632 -0.8309 -0.0771 -0.6702
 9345TIP3    H149450   0.845   2.628  16.677 -1.7013 -0.6558 -1.2139
 9345TIP3    H249451   0.982   2.634  16.615  0.1108 -0.0834  2.5615
 9346TIP3   OH249452   1.463   4.151  15.484 -0.2309 -0.0289  1.3966
 9346TIP3    H149453   1.411   4.205  15.544 -0.5341 -0.5477  1.6089
 9346TIP3    H249454   1.487   4.074  15.535 -0.1798 -0.3057  0.9633
 9347TIP3   OH249455   5.743   6.612   2.454 -0.1177 -0.0009 -0.1738
 9347TIP3    H149456   5.770   6.633   2.364  0.4891 -0.2886 -0.0597
 9347TIP3    H249457   5.795   6.535   2.478  1.1351  1.1791  1.0992
 9348TIP3   OH249458   4.162   3.190   3.702  0.1465  0.1696 -0.1664
 9348TIP3    H149459   4.073   3.155   3.696  0.0948  0.2214  0.2367
 9348TIP3    H249460   4.219   3.116   3.682 -0.0044  0.3985 -1.4957
 9349TIP3   OH249461   3.071   4.070   0.509  0.0466  0.6139  0.4258
 9349TIP3    H149462   3.060   4.088   0.602  0.2008  2.2069  0.1587
 9349TIP3    H249463   2.994   4.018   0.485  0.2142 -0.1715  1.5139
 9350TIP3   OH249464   1.041   2.549   4.049  0.0325  0.2853 -0.1458
 9350TIP3    H149465   1.053   2.522   4.140 -2.4904 -0.6917 -0.0454
 9350TIP3    H249466   1.125   2.590   4.026  0.9294  0.1057  2.4242
 9351TIP3   OH249467   4.772   6.161   6.160  0.1973  0.0506 -0.0369
 9351TIP3    H149468   4.725   6.176   6.243 -0.3975  0.0659 -0.3741
 9351TIP3    H249469   4.736   6.226   6.100  1.4616  0.8228  0.0089
 9352TIP3   OH249470   2.255   6.503  14.145 -0.0177  0.3614 -0.0807
 9352TIP3    H149471   2.310   6.459  14.081  0.5961  0.1182  0.5976
 9352TIP3    H249472   2.315   6.560  14.194 -0.0337 -1.0572  1.6928
 9353TIP3   OH249473   5.984   3.799  11.507  0.5690  0.2365  0.2487
 9353TIP3    H149474   5.983   3.826  11.598 -2.8874 -1.4878  0.9023
 9353TIP3    H249475   5.942   3.870  11.459  0.2040  0.1139  0.3890
 9354TIP3   OH249476   5.209   0.903  16.920 -0.3162  0.2520 -0.1467
 9354TIP3    H149477   5.241   0.866  16.838  1.0252  0.9749  0.0268
 9354TIP3    H249478   5.145   0.839  16.951  1.6475 -1.7861 -0.0200
 9355TIP3   OH249479   2.327   5.735   5.316  0.5034 -0.0489  0.1139
 9355TIP3    H149480   2.411   5.688   5.312 -0.7070 -2.2767 -1.8743
 9355TIP3    H249481   2.332   5.800   5.246  0.8838  0.4216  0.5735
 9356TIP3   OH249482   1.512   0.714  16.507 -0.1458 -0.0125 -0.1985
 9356TIP3    H149483   1.600   0.707  16.543 -0.7300  0.4152  1.4417
 9356TIP3    H249484   1.524   0.716  16.412  1.5556 -0.4279 -0.0284
 9357TIP3   OH249485   2.799   2.527   1.618 -0.0271  0.4229  0.3282
 9357TIP3    H149486   2.749   2.548   1.539  0.8120  0.8021 -0.1136
 9357TIP3    H249487   2.794   2.607   1.671  0.4524  0.6154  0.0923
 9358TIP3   OH249488   0.522   6.385  15.680 -0.0783  0.1311 -0.1605
 9358TIP3    H149489   0.608   6.426  15.692 -0.0364 -0.4079  1.7415
 9358TIP3    H249490   0.538   6.310  15.624  0.1444  1.6551 -2.2506
 9359TIP3   OH249491   5.467   0.962  16.938  0.2524 -0.2891 -0.2043
 9359TIP3    H149492   5.373   0.942  16.929  0.3416 -0.7775 -0.0512
 9359TIP3    H249493   5.508   0.878  16.957  0.7972 -0.1640 -0.7951
 9360TIP3   OH249494   2.821   5.739  14.963 -0.7314 -0.0903 -0.1184
 9360TIP3    H149495   2.882   5.701  15.026 -0.3118 -1.5794 -1.3620
 9360TIP3    H249496   2.735   5.730  15.003 -0.4886 -1.1511  0.1881
 9361TIP3   OH249497   1.072   1.379  11.408 -0.2059 -0.0053 -0.5178
 9361TIP3    H149498   1.085   1.301  11.354 -2.7286 -2.5670  2.2463
 9361TIP3    H249499   1.085   1.452  11.347  1.5518 -2.4987 -3.4472
 9362TIP3   OH249500   2.704   0.449  13.023 -0.5296  0.7045 -0.3015
 9362TIP3    H149501   2.625   0.425  12.975  0.9132 -1.9177 -1.5331
 9362TIP3    H249502   2.770   0.466  12.955  0.4624  1.0913  0.7180
 9363TIP3   OH249503   6.538   5.110  15.162 -0.3412 -0.3299 -0.4106
 9363TIP3    H149504   6.478   5.071  15.226 -0.2401  1.6320  0.9751
 9363TIP3    H249505   6.551   5.042  15.096 -3.0904 -1.2886 -0.1048
 9364TIP3   OH249506   6.295   2.040   2.788  0.1466 -0.0099 -0.5599
 9364TIP3    H149507   6.299   1.948   2.812 -1.2339  0.1386  0.3172
 9364TIP3    H249508   6.240   2.042   2.710 -0.2130  0.1162 -0.3042
 9365TIP3   OH249509   0.158   4.768   0.486 -0.1247  0.6311 -0.3126
 9365TIP3    H149510   0.162   4.860   0.457 -0.0012  1.1331  1.2081
 9365TIP3    H249511   0.067   4.757   0.514  0.2257  0.7826  0.9563
 9366TIP3   OH249512   1.035   4.185  10.404  0.0308  0.3563  0.3096
 9366TIP3    H149513   0.974   4.114  10.384  0.8016 -0.2203 -0.0754
 9366TIP3    H249514   1.084   4.153  10.480  0.4952  0.3967  0.0339
 9367TIP3   OH249515   1.220   6.683  16.822 -0.4270  0.7757 -1.1085
 9367TIP3    H149516   1.259   6.755  16.872  0.3968 -0.0729 -0.4998
 9367TIP3    H249517   1.288   6.658  16.760 -0.1004 -0.4837 -0.2782
 9368TIP3   OH249518   4.589   6.174   1.758 -0.5707  0.7684 -0.5207
 9368TIP3    H149519   4.523   6.121   1.802 -2.4279  3.0794 -0.3119
 9368TIP3    H249520   4.556   6.263   1.764  1.8630  1.8567 -1.7794
 9369TIP3   OH249521   3.765   1.775  14.178 -0.1996 -0.3961 -0.0892
 9369TIP3    H149522   3.670   1.782  14.190  0.0710  1.0818  1.5026
 9369TIP3    H249523   3.785   1.683  14.196 -1.1736 -0.4435  0.8336
 9370TIP3   OH249524   3.796   0.685   2.796  0.2955 -0.5056 -0.2896
 9370TIP3    H149525   3.733   0.635   2.849 -1.4282 -0.5628 -2.2470
 9370TIP3    H249526   3.752   0.768   2.780  0.7873 -0.4782 -1.5755
 9371TIP3   OH249527   4.540   5.845   5.358 -0.0173 -0.3262  0.8259
 9371TIP3    H149528   4.575   5.934   5.344  1.3833 -0.7367  1.4956
 9371TIP3    H249529   4.510   5.817   5.271 -0.7693  0.9016  0.6591
 9372TIP3   OH249530   0.316   2.406   3.057  0.4090 -0.0820 -0.7852
 9372TIP3    H149531   0.401   2.417   3.015  0.7363  0.4089 -0.0168
 9372TIP3    H249532   0.336   2.375   3.145 -0.2610 -0.9932 -0.9358
 9373TIP3   OH249533   6.116   2.731  15.178  0.2329 -0.4700  0.2538
 9373TIP3    H149534   6.041   2.790  15.181 -0.5179 -1.3673 -0.1277
 9373TIP3    H249535   6.093   2.666  15.112  1.3347 -0.7940  0.1645
 9374TIP3   OH249536   6.581   4.559  12.027 -0.3875 -0.0242  0.3837
 9374TIP3    H149537   6.611   4.603  12.107  0.7234  0.9975 -0.5526
 9374TIP3    H249538   6.491   4.588  12.016  0.6742  3.2372 -0.9086
 9375TIP3   OH249539   4.818   2.907   3.423  0.3242  0.1595  0.3351
 9375TIP3    H149540   4.889   2.873   3.369  0.4168  2.2419 -0.9685
 9375TIP3    H249541   4.810   2.999   3.398 -1.3467  0.5712  2.0758
 9376TIP3   OH249542   1.141   2.532  15.451 -0.1793 -0.1517  0.2273
 9376TIP3    H149543   1.149   2.606  15.390  0.2626  0.5758  1.1406
 9376TIP3    H249544   1.048   2.531  15.474 -0.1444  0.2939  0.4093
 9377TIP3   OH249545   3.785   1.980   4.714 -0.2147 -0.2269  0.1594
 9377TIP3    H149546   3.735   1.922   4.772 -0.6834 -0.0601 -0.0724
 9377TIP3    H249547   3.738   2.063   4.717  1.0233  0.4721  1.2806
 9378TIP3   OH249548   0.676   5.878   5.173  0.1870  0.6194  0.3760
 9378TIP3    H149549   0.749   5.921   5.128  0.6751 -0.8671 -0.3522
 9378TIP3    H249550   0.690   5.785   5.155 -0.8844  0.1610  1.7614
 9379TIP3   OH249551   3.021   3.697  15.081  0.4227  0.3069  0.1082
 9379TIP3    H149552   3.025   3.792  15.068 -1.6194  0.6862  1.7315
 9379TIP3    H249553   2.954   3.667  15.018  2.6502 -0.4876 -2.0324
 9380TIP3   OH249554   1.535   5.778  12.624 -0.6945 -0.4684  0.0177
 9380TIP3    H149555   1.449   5.764  12.584 -1.4717  0.3769  1.3116
 9380TIP3    H249556   1.583   5.697  12.607 -1.2210 -0.4235 -1.9499
 9381TIP3   OH249557   2.508   3.515  16.901 -0.0612 -0.2053 -0.0934
 9381TIP3    H149558   2.528   3.593  16.953  1.4351 -0.8405  0.3423
 9381TIP3    H249559   2.413   3.506  16.907 -0.1738  1.1261  0.5105
 9382TIP3   OH249560   4.954   5.042   5.491  0.2167  0.3187  0.0846
 9382TIP3    H149561   4.981   5.085   5.572  1.3718 -3.4672  1.9243
 9382TIP3    H249562   4.905   4.965   5.520  1.6602 -1.8380 -2.7081
 9383TIP3   OH249563   2.699   3.525  14.550  0.1367 -0.0525 -0.3095
 9383TIP3    H149564   2.782   3.484  14.575  1.5478  2.8740  0.3020
 9383TIP3    H249565   2.715   3.561  14.463  0.4396  2.4793  0.6765
 9384TIP3   OH249566   6.698   0.862   2.954 -0.4983  0.9366  0.1012
 9384TIP3    H149567   6.633   0.837   3.020 -0.6336 -1.1196 -0.7263
 9384TIP3    H249568   6.765   0.910   3.002 -2.2070  2.4259  1.1253
 9385TIP3   OH249569   6.005   3.469  12.196  0.0512  0.0450 -0.3179
 9385TIP3    H149570   5.935   3.532  12.212  0.5480  0.3877  0.5494
 9385TIP3    H249571   6.071   3.489  12.262  0.5771 -0.8583 -0.5554
 9386TIP3   OH249572   2.270   1.003   1.214  0.0604  0.4620  0.1050
 9386TIP3    H149573   2.241   0.929   1.268 -2.1454  2.1138  1.3686
 9386TIP3    H249574   2.334   0.965   1.154 -1.4951 -2.6280  0.1764
 9387TIP3   OH249575   6.223   0.545  16.335 -0.3823 -0.4539  0.0391
 9387TIP3    H149576   6.294   0.496  16.295  0.9700  0.3255  1.4131
 9387TIP3    H249577   6.235   0.534  16.429  0.7522  3.4050  0.5244
 9388TIP3   OH249578   0.534   5.571   5.287  0.5487 -0.0537  0.6940
 9388TIP3    H149579   0.547   5.545   5.379  1.8623  1.8581  1.0896
 9388TIP3    H249580   0.459   5.630   5.289 -0.6373 -1.4812  0.2084
 9389TIP3   OH249581   3.863   0.500  16.549 -0.4408 -0.6559  0.1925
 9389TIP3    H149582   3.771   0.503  16.575 -0.2739 -1.9291  1.0366
 9389TIP3    H249583   3.892   0.591  16.554 -1.6297 -0.2405 -0.0433
 9390TIP3   OH249584   4.737   3.186  12.174  0.5176 -0.1139 -0.3806
 9390TIP3    H149585   4.750   3.278  12.200 -0.7579 -0.0346  0.0424
 9390TIP3    H249586   4.764   3.136  12.250 -0.3185 -0.0111 -0.0093
 9391TIP3   OH249587   4.904   2.025  14.954 -0.2743  0.4833 -0.5328
 9391TIP3    H149588   4.995   2.040  14.977 -0.1844  1.9824 -1.7202
 9391TIP3    H249589   4.854   2.068  15.024 -0.0117  3.2667 -1.9243
 9392TIP3   OH249590   3.644   0.859   0.961  0.2501  0.1751 -0.2746
 9392TIP3    H149591   3.567   0.820   1.002 -0.5527 -0.1284 -1.9912
 9392TIP3    H249592   3.712   0.792   0.971 -0.6408 -0.9911 -1.6561
 9393TIP3   OH249593   5.084   0.784   0.554 -0.4057 -0.0631 -0.4989
 9393TIP3    H149594   5.171   0.812   0.584 -2.0410  2.6267  2.3787
 9393TIP3    H249595   5.054   0.856   0.499 -1.5593  0.0567  0.2461
 9394TIP3   OH249596   6.537   5.946   0.218  0.3629  0.0576 -0.2143
 9394TIP3    H149597   6.524   5.961   0.311 -0.5818  0.6023 -0.4197
 9394TIP3    H249598   6.554   5.852   0.211 -3.1272 -0.7724  0.1961
 9395TIP3   OH249599   1.539   5.994   1.073  0.3635  0.1539  0.9635
 9395TIP3    H149600   1.521   6.084   1.100  2.2360  0.2988  1.9207
 9395TIP3    H249601   1.522   5.943   1.152  0.9101 -0.1145  0.9057
 9396TIP3   OH249602   4.908   3.919  12.596 -0.6045  0.2192  0.6759
 9396TIP3    H149603   4.997   3.942  12.567  0.0842 -1.6006  1.2127
 9396TIP3    H249604   4.922   3.860  12.669 -2.1966 -2.4876 -1.0595
 9397TIP3   OH249605   4.925   0.573   0.654  0.8919 -0.1489  0.1308
 9397TIP3    H149606   4.955   0.624   0.578  2.1885 -1.5150 -0.3078
 9397TIP3    H249607   5.004   0.537   0.692  0.0093 -2.2974  0.0803
 9398TIP3   OH249608   6.680   5.141   4.645 -0.2102  0.3863  0.0416
 9398TIP3    H149609   6.670   5.221   4.592  0.0707 -0.3305 -1.1216
 9398TIP3    H249610   6.770   5.146   4.678  0.6571 -0.5590 -1.9798
 9399TIP3   OH249611   3.867   0.766   0.325  0.6999  0.5585 -0.4503
 9399TIP3    H149612   3.919   0.704   0.275 -1.3399 -0.5841 -1.3039
 9399TIP3    H249613   3.790   0.783   0.269 -0.0292  1.8720  0.8727
 9400TIP3   OH249614   4.231   3.605   2.397 -0.1566 -0.0604  0.5749
 9400TIP3    H149615   4.259   3.627   2.486  0.3980  0.3978  0.2942
 9400TIP3    H249616   4.139   3.634   2.393  0.5130  2.1916  0.2594
 9401TIP3   OH249617   3.749   1.922   1.612 -0.3492 -0.3934  0.0622
 9401TIP3    H149618   3.741   1.892   1.703 -2.5898 -0.7713 -0.2046
 9401TIP3    H249619   3.697   2.002   1.608 -0.3084 -0.4041 -0.8948
 9402TIP3   OH249620   2.196   1.958  16.963 -0.0052 -0.0968 -0.2313
 9402TIP3    H149621   2.101   1.971  16.970 -0.0167  0.1736 -0.8230
 9402TIP3    H249622   2.229   2.040  16.927  0.4771 -0.1404  0.1076
 9403TIP3   OH249623   0.491   5.893   1.042  0.0889  0.0051 -0.6769
 9403TIP3    H149624   0.487   5.986   1.062 -0.7645 -0.1258 -0.1797
 9403TIP3    H249625   0.426   5.853   1.099  1.8796 -1.1843  0.6460
 9404TIP3   OH249626   0.057   0.688  15.265  0.5613  0.1015 -0.1140
 9404TIP3    H149627  -0.027   0.650  15.293  0.7928 -0.7607 -0.5715
 9404TIP3    H249628   0.072   0.760  15.327  0.2036 -0.6693  0.8877
 9405TIP3   OH249629   6.041   5.328  12.283 -0.3210  0.9582  0.0245
 9405TIP3    H149630   6.058   5.302  12.192  1.2525  0.1643  0.4964
 9405TIP3    H249631   6.115   5.384  12.305 -0.1568  0.3401  1.1023
 9406TIP3   OH249632   6.233   4.424  16.622 -0.3875  0.4054 -0.2950
 9406TIP3    H149633   6.219   4.492  16.688  0.0851 -1.6304  2.0502
 9406TIP3    H249634   6.164   4.438  16.557 -2.3471  1.1616  1.8233
 9407TIP3   OH249635   2.178   3.360  16.560 -0.2082 -0.0101  0.0706
 9407TIP3    H149636   2.225   3.321  16.633 -0.0532  1.6869  0.9118
 9407TIP3    H249637   2.244   3.373  16.492  0.3631  1.3702  0.8506
 9408TIP3   OH249638   3.163   1.022  11.779 -0.1719  0.0627  0.7852
 9408TIP3    H149639   3.219   1.008  11.855 -1.8787  0.6063  2.2025
 9408TIP3    H249640   3.209   1.088  11.727  0.4368  0.6067  1.9909
 9409TIP3   OH249641   0.060   2.145   3.604  0.1561  0.1666 -0.1556
 9409TIP3    H149642   0.037   2.235   3.628 -1.9863 -0.6353  1.0976
 9409TIP3    H249643   0.109   2.112   3.679 -0.0196 -0.0255 -0.1224
 9410TIP3   OH249644   6.319   5.727   3.373 -1.0311  0.2643 -0.0122
 9410TIP3    H149645   6.362   5.693   3.294 -1.5529 -0.4093 -0.0121
 9410TIP3    H249646   6.234   5.759   3.342 -0.1545  2.5482 -0.1972
 9411TIP3   OH249647   3.169   4.447  11.486 -0.1819 -0.0272 -0.5466
 9411TIP3    H149648   3.240   4.399  11.444  1.1156  2.9242 -2.0416
 9411TIP3    H249649   3.196   4.539  11.480 -3.7041  1.1527 -0.3469
 9412TIP3   OH249650   5.897   5.657  10.851 -0.2308  0.8261 -0.1568
 9412TIP3    H149651   5.899   5.568  10.817  1.3869  0.1508  1.5333
 9412TIP3    H249652   5.956   5.706  10.794  0.6410  0.2558  0.2328
 9413TIP3   OH249653   6.577   5.219  12.727 -0.5870 -0.1179 -0.2344
 9413TIP3    H149654   6.513   5.180  12.667 -1.4292  0.1658  0.4591
 9413TIP3    H249655   6.541   5.203  12.814 -0.2614  0.9957  0.1220
 9414TIP3   OH249656   2.086   0.828  14.658  0.4822 -0.1062  0.3351
 9414TIP3    H149657   2.094   0.854  14.566  0.1106 -1.1318  0.0097
 9414TIP3    H249658   2.162   0.869  14.700  1.3707 -0.6710 -0.6648
 9415TIP3   OH249659   1.048   4.211   5.019  0.3727  0.0892  0.0621
 9415TIP3    H149660   1.015   4.188   5.105 -1.3364  0.1769 -0.5305
 9415TIP3    H249661   1.059   4.127   4.975  1.6868  0.0184  0.5035
 9416TIP3   OH249662   6.296   0.388  15.995  0.0714  0.0037  0.2093
 9416TIP3    H149663   6.383   0.362  15.963  0.3097 -1.1702  1.6901
 9416TIP3    H249664   6.303   0.381  16.090 -2.2470 -2.3273  0.3234
 9417TIP3   OH249665   3.639   3.005   5.556 -0.3345  0.3869  0.7597
 9417TIP3    H149666   3.620   2.913   5.572 -2.1403  0.5774 -0.0313
 9417TIP3    H249667   3.675   3.008   5.468 -0.3898  0.4461  0.7390
 9418TIP3   OH249668   5.000   0.347   0.196 -0.2489  0.3160 -0.2847
 9418TIP3    H149669   4.964   0.259   0.195  2.5225 -0.9017 -0.0938
 9418TIP3    H249670   4.936   0.398   0.246 -1.7027 -1.6624 -0.0197
 9419TIP3   OH249671   2.039   1.030  13.986 -0.0404  0.1015  0.0232
 9419TIP3    H149672   2.037   1.062  14.076  0.6204  1.1261 -0.3165
 9419TIP3    H249673   2.108   1.081  13.943 -0.9651  0.2979 -1.3011
 9420TIP3   OH249674   1.486   6.497   4.164  0.1080  0.1947  0.3259
 9420TIP3    H149675   1.531   6.481   4.081 -1.9218  2.6245 -1.4112
 9420TIP3    H249676   1.555   6.528   4.222  1.5062 -1.0966 -0.5637
 9421TIP3   OH249677   6.077   3.315  14.291  0.0534 -0.2949  0.1187
 9421TIP3    H149678   6.042   3.306  14.202  0.6399 -3.0955  0.0696
 9421TIP3    H249679   5.999   3.331  14.345 -0.6406 -1.0604 -0.6184
 9422TIP3   OH249680   2.474   1.196   2.777  0.0608 -0.0118  0.3702
 9422TIP3    H149681   2.540   1.137   2.813  1.8224 -0.7244 -3.5289
 9422TIP3    H249682   2.411   1.137   2.734 -0.2049  0.7925 -0.3766
 9423TIP3   OH249683   1.208   2.992  16.324  0.2240 -0.5288  0.2102
 9423TIP3    H149684   1.250   3.052  16.386  0.6728 -0.9536  0.3320
 9423TIP3    H249685   1.174   3.048  16.254 -0.0182 -0.0725  0.6878
 9424TIP3   OH249686   4.417   5.805  12.164  0.5196  0.1958  0.1137
 9424TIP3    H149687   4.498   5.754  12.160  2.0169  2.2926  1.4980
 9424TIP3    H249688   4.437   5.884  12.114 -1.1968  0.1638 -0.6701
 9425TIP3   OH249689   2.842   0.813   0.296 -0.2277 -0.5866  0.0286
 9425TIP3    H149690   2.906   0.797   0.227 -1.7996 -1.5876 -1.2761
 9425TIP3    H249691   2.766   0.761   0.271 -1.9205  1.2603  1.0015
 9426TIP3   OH249692   4.398   6.563  12.744 -0.6982  0.7255  0.0499
 9426TIP3    H149693   4.416   6.519  12.661 -1.3561  0.9159 -0.1995
 9426TIP3    H249694   4.420   6.497  12.811  1.9688  1.2968 -0.1502
 9427TIP3   OH249695   1.853   6.487   2.351 -0.6383  0.2055  0.3346
 9427TIP3    H149696   1.890   6.462   2.266 -0.4739  1.8590 -0.1273
 9427TIP3    H249697   1.892   6.427   2.414  0.3115 -0.1601 -0.5808
 9428TIP3   OH249698   3.052   4.470  13.021 -0.4707 -0.3626  0.3021
 9428TIP3    H149699   3.142   4.501  13.022 -0.8402  0.8155 -0.3274
 9428TIP3    H249700   3.058   4.377  12.999  0.6121 -0.4512  0.9235
 9429TIP3   OH249701   1.496   3.597  11.358 -0.1512 -0.4306  0.2362
 9429TIP3    H149702   1.423   3.568  11.414  0.5625 -2.2237  0.3136
 9429TIP3    H249703   1.552   3.648  11.417 -2.0622  2.3825 -0.1937
 9430TIP3   OH249704   4.273   6.017   5.199  0.1547 -0.4347  0.1354
 9430TIP3    H149705   4.219   6.095   5.190 -0.7661 -1.0819 -0.0843
 9430TIP3    H249706   4.343   6.029   5.135 -1.7372 -1.2044 -2.2285
 9431TIP3   OH249707   2.174   4.376   3.686  0.6625  0.6003 -0.0918
 9431TIP3    H149708   2.108   4.436   3.721  0.2361 -0.5900  1.2372
 9431TIP3    H249709   2.228   4.431   3.629 -1.6078  1.5502 -1.4538
 9432TIP3   OH249710   4.082   1.745  11.420 -0.1598  0.1031  0.0992
 9432TIP3    H149711   4.092   1.697  11.338 -1.3048 -1.2003  0.6686
 9432TIP3    H249712   4.081   1.676  11.487  1.4945  1.1756  1.3064
 9433TIP3   OH249713   3.521   1.060   4.191  0.7062  0.0512  0.1809
 9433TIP3    H149714   3.550   1.149   4.211 -1.1456  0.5749  0.7299
 9433TIP3    H249715   3.501   1.021   4.277  1.2770 -0.8283 -0.0687
 9434TIP3   OH249716   0.842   3.106   3.739 -0.9151 -0.2129  0.0718
 9434TIP3    H149717   0.774   3.092   3.673  0.0681  0.6007 -1.1441
 9434TIP3    H249718   0.794   3.141   3.815 -1.7459  1.4843 -1.1620
 9435TIP3   OH249719   6.743   0.019   2.378 -0.2986 -0.8515 -0.3671
 9435TIP3    H149720   6.805   0.088   2.354 -1.7771  0.8503  0.5467
 9435TIP3    H249721   6.724  -0.026   2.295 -1.0808  1.3558 -1.4503
 9436TIP3   OH249722   5.889   6.702   5.195 -0.5645  0.3101 -0.1174
 9436TIP3    H149723   5.918   6.611   5.183  1.0464  0.7562  0.1453
 9436TIP3    H249724   5.968   6.754   5.183 -1.4040  1.6755  0.0264
 9437TIP3   OH249725   6.052   5.383  11.457 -0.1123  0.7463 -0.4720
 9437TIP3    H149726   6.062   5.340  11.542  0.9690  0.3536 -0.7879
 9437TIP3    H249727   5.982   5.334  11.413  0.2090  0.1418 -0.3145
 9438TIP3   OH249728   1.167   4.259  11.279 -0.6104 -0.0731  0.3150
 9438TIP3    H149729   1.081   4.268  11.237 -0.6756  1.6236  0.7523
 9438TIP3    H249730   1.172   4.333  11.339  1.6543  0.5496 -0.5613
 9439TIP3   OH249731   3.161   1.382  15.711  0.0493 -0.1668 -0.4141
 9439TIP3    H149732   3.127   1.337  15.788 -2.0006  1.4799 -0.2712
 9439TIP3    H249733   3.190   1.467  15.744  0.1031  0.1624 -1.2889
 9440TIP3   OH249734   0.133   6.264  14.014  0.5005  0.2373 -0.4079
 9440TIP3    H149735   0.211   6.321  14.016 -0.3852  1.5035 -0.5189
 9440TIP3    H249736   0.111   6.257  13.921  0.7481 -0.5071 -0.4146
 9441TIP3   OH249737   6.796   5.897  11.007 -0.3384  0.7199  0.0436
 9441TIP3    H149738   6.754   5.957  10.945 -2.0769 -0.7091 -0.2595
 9441TIP3    H249739   6.888   5.896  10.981 -0.2988  2.9603 -0.1392
 9442TIP3   OH249740   6.622   2.684   2.492 -0.6469  0.3460  0.1129
 9442TIP3    H149741   6.658   2.682   2.581 -0.2026  2.2003  0.0261
 9442TIP3    H249742   6.679   2.744   2.444 -1.6467  0.4142 -1.0578
 9443TIP3   OH249743   1.421   4.946   0.126  0.5518 -0.0909 -0.6942
 9443TIP3    H149744   1.467   4.890   0.189  0.8812 -0.0417 -0.8899
 9443TIP3    H249745   1.478   4.948   0.050  0.4548  0.3651 -0.7572
 9444TIP3   OH249746   2.716   3.691   2.497 -0.0714 -0.1986 -0.3080
 9444TIP3    H149747   2.720   3.700   2.592 -3.4990 -1.7569  0.1385
 9444TIP3    H249748   2.745   3.602   2.480 -2.2137 -0.9404 -0.3174
 9445TIP3   OH249749   3.406   5.813  11.258  0.5044  0.0303  0.2599
 9445TIP3    H149750   3.422   5.814  11.352  0.1153 -2.2928  0.3983
 9445TIP3    H249751   3.490   5.787  11.220  0.3195 -0.2874  0.0670
 9446TIP3   OH249752   3.390   4.433   1.113 -0.0203 -0.2836 -0.0789
 9446TIP3    H149753   3.467   4.487   1.096  1.3534 -2.1532 -0.1049
 9446TIP3    H249754   3.412   4.348   1.076 -2.6763 -0.5331 -1.2913
 9447TIP3   OH249755   2.599   0.018  15.186  0.1217 -0.4789  0.2949
 9447TIP3    H149756   2.564   0.028  15.097 -0.5330 -0.8715  0.4942
 9447TIP3    H249757   2.691   0.039  15.178  0.5479 -2.4508 -0.9095
 9448TIP3   OH249758   1.444   4.338  15.259  0.4439  0.2354  0.3730
 9448TIP3    H149759   1.533   4.372  15.254  0.7024 -0.5723 -1.2317
 9448TIP3    H249760   1.453   4.256  15.308  0.2910  0.9187  1.6053
 9449TIP3   OH249761   4.486   3.777   0.739 -0.0742 -0.1567 -0.2072
 9449TIP3    H149762   4.391   3.783   0.748  0.0710  0.4699  1.1012
 9449TIP3    H249763   4.502   3.685   0.718 -0.9954 -0.1818 -0.8177
 9450TIP3   OH249764   4.558   0.118  16.171  0.3096  0.2670 -0.8042
 9450TIP3    H149765   4.526   0.083  16.088  0.4231  1.5697 -1.4262
 9450TIP3    H249766   4.640   0.161  16.149  0.5117  0.3263  0.0476
 9451TIP3   OH249767   3.445   6.149   2.109 -0.2805  0.3804  0.5720
 9451TIP3    H149768   3.456   6.145   2.204  0.7350  0.4099  0.4735
 9451TIP3    H249769   3.418   6.240   2.092  0.9855  0.8073  0.7242
 9452TIP3   OH249770   4.332   2.208  15.660  0.8159 -0.1485  0.4849
 9452TIP3    H149771   4.335   2.148  15.734  0.0359 -0.5905  0.1634
 9452TIP3    H249772   4.308   2.293  15.699  1.8255 -0.0541  0.9214
 9453TIP3   OH249773   0.180   4.291   5.178  0.0758  0.2067  0.1340
 9453TIP3    H149774   0.265   4.248   5.162  0.1171  0.1360  0.5451
 9453TIP3    H249775   0.120   4.248   5.116  0.3333  0.2413 -0.1441
 9454TIP3   OH249776   2.965   3.587  12.891 -0.0718 -0.5738 -0.4446
 9454TIP3    H149777   2.880   3.565  12.852 -0.2495  1.9624 -1.7504
 9454TIP3    H249778   2.943   3.625  12.976 -0.0265 -1.8811  0.1813
 9455TIP3   OH249779   2.292   3.488   5.098  0.0939  0.4524 -0.1460
 9455TIP3    H149780   2.364   3.426   5.108  0.9716  1.3466 -0.7905
 9455TIP3    H249781   2.215   3.433   5.088  0.5816 -0.5223  1.1722
 9456TIP3   OH249782   1.160   6.600   6.609  0.0762 -0.1176 -0.1021
 9456TIP3    H149783   1.174   6.518   6.561 -3.7408 -0.5408 -0.7980
 9456TIP3    H249784   1.156   6.667   6.540  0.3106  0.2110  0.2008
 9457TIP3   OH249785   6.420   6.739   4.129 -0.3237  0.0626  0.2377
 9457TIP3    H149786   6.501   6.724   4.178 -1.4164  0.6076  2.3409
 9457TIP3    H249787   6.412   6.662   4.073  1.7215  0.0897 -0.1902
 9458TIP3   OH249788   3.151   5.317   2.849 -0.5005  0.2844  0.1978
 9458TIP3    H149789   3.142   5.314   2.945 -1.8738 -1.1635  0.0752
 9458TIP3    H249790   3.223   5.258   2.830 -1.0632 -0.4568  0.2931
 9459TIP3   OH249791   5.609   2.809  15.530 -0.0032  0.7429  0.1753
 9459TIP3    H149792   5.528   2.840  15.570  0.9108  1.9735  1.1291
 9459TIP3    H249793   5.660   2.888  15.515  1.8030 -0.1562  1.3069
 9460TIP3   OH249794   3.831   3.874   1.279 -0.1016  0.5679  0.1172
 9460TIP3    H149795   3.818   3.967   1.258  1.6662  0.4382 -1.9762
 9460TIP3    H249796   3.750   3.832   1.251  0.0222  1.2075 -1.3422
 9461TIP3   OH249797   3.760   3.913  16.441  0.3947  0.1766  0.9360
 9461TIP3    H149798   3.694   3.900  16.509  0.8189 -1.6207  1.0553
 9461TIP3    H249799   3.778   3.824  16.408  1.4874  0.8210 -0.2930
 9462TIP3   OH249800   3.175   2.767   4.007 -0.4218  0.6602 -0.5446
 9462TIP3    H149801   3.184   2.781   4.102 -1.0686  0.6490 -0.4794
 9462TIP3    H249802   3.135   2.680   4.000  0.5546  0.2233 -0.8612
 9463TIP3   OH249803   1.727   2.911  14.057 -0.0073 -0.2798 -0.5298
 9463TIP3    H149804   1.692   2.823  14.042 -1.5229  0.4710 -1.6656
 9463TIP3    H249805   1.818   2.896  14.083 -0.5940 -2.2374  0.6602
 9464TIP3   OH249806   0.642   3.045  14.794 -0.1747 -0.4225  0.9460
 9464TIP3    H149807   0.549   3.037  14.817 -0.6094  1.1900 -0.0798
 9464TIP3    H249808   0.645   3.025  14.700  0.3958  0.2703  0.8107
 9465TIP3   OH249809   5.592   3.923   3.151 -1.0054  0.0526  0.2522
 9465TIP3    H149810   5.511   3.925   3.100 -1.3115 -3.0965  0.3696
 9465TIP3    H249811   5.562   3.913   3.242 -0.5024 -0.0470  0.4093
 9466TIP3   OH249812   3.570   2.777   2.776 -0.5432  0.9612  0.4057
 9466TIP3    H149813   3.577   2.730   2.692 -0.5208 -0.1050  0.9853
 9466TIP3    H249814   3.658   2.808   2.794 -0.3876  0.5178  0.4134
 9467TIP3   OH249815   1.450   1.510  16.608  0.4791 -0.0075 -0.1620
 9467TIP3    H149816   1.359   1.481  16.596  0.4904 -0.1598  0.1094
 9467TIP3    H249817   1.496   1.475  16.532 -0.4071  3.2915 -2.4186
 9468TIP3   OH249818   5.821   2.565  13.900  0.0463  0.0983  0.5047
 9468TIP3    H149819   5.841   2.474  13.878  0.9583  0.2429  0.6958
 9468TIP3    H249820   5.843   2.614  13.821 -1.4651  0.0416  0.0269
 9469TIP3   OH249821   5.008   6.150  14.870  0.3800  0.1422  0.4213
 9469TIP3    H149822   5.044   6.104  14.794 -0.3006  1.2898 -0.6447
 9469TIP3    H249823   5.028   6.243  14.853 -1.8120  0.6760  0.4436
 9470TIP3   OH249824   2.144   5.939  13.333  0.4437  0.2426 -0.0439
 9470TIP3    H149825   2.131   5.895  13.249 -1.0548  0.3954  0.0786
 9470TIP3    H249826   2.083   6.013  13.331  0.8002  0.5840  0.9501
 9471TIP3   OH249827   0.229   0.028  15.609 -0.0355  0.3084  0.1165
 9471TIP3    H149828   0.249  -0.064  15.626 -0.4908 -0.0345 -1.0891
 9471TIP3    H249829   0.268   0.075  15.682  0.0564 -0.8585  0.8425
 9472TIP3   OH249830   6.802   5.845   2.353 -0.4025  0.5462  0.2022
 9472TIP3    H149831   6.811   5.784   2.280 -1.0505  0.6733  0.0155
 9472TIP3    H249832   6.709   5.846   2.372 -0.4777  1.8879 -0.1478
 9473TIP3   OH249833   5.864   2.834  15.192 -0.2933 -0.3059  0.3093
 9473TIP3    H149834   5.797   2.780  15.234  0.9432 -2.6724 -0.5908
 9473TIP3    H249835   5.821   2.870  15.114 -0.5135 -1.9945 -0.3935
 9474TIP3   OH249836   6.426   5.467  12.719  1.0138  0.2656  0.0924
 9474TIP3    H149837   6.483   5.543  12.713  0.1637  0.8651 -0.7744
 9474TIP3    H249838   6.485   5.392  12.726  1.9199  0.8238 -1.2501
 9475TIP3   OH249839   5.533   3.292   1.673  0.7761  0.2773 -0.2402
 9475TIP3    H149840   5.461   3.353   1.660  1.3850  0.9622 -0.4386
 9475TIP3    H249841   5.492   3.215   1.713 -0.1347  0.4793 -0.7492
 9476TIP3   OH249842   0.544   1.504   4.965 -0.0098 -0.0314 -0.3601
 9476TIP3    H149843   0.501   1.448   4.900  0.0593  1.4620 -1.7611
 9476TIP3    H249844   0.638   1.488   4.951 -0.0186 -0.4237  0.0331
 9477TIP3   OH249845   1.833   6.531   1.216  0.4371 -0.3000  0.1443
 9477TIP3    H149846   1.876   6.601   1.167 -0.8310 -0.2548 -0.9822
 9477TIP3    H249847   1.863   6.450   1.175 -0.3924 -0.2721 -0.5662
 9478TIP3   OH249848   5.050   5.675   3.634 -0.2601 -0.1929  0.2327
 9478TIP3    H149849   5.146   5.674   3.627 -0.3071  0.8251 -0.7929
 9478TIP3    H249850   5.030   5.599   3.688  1.2845  0.9775  2.6218
 9479TIP3   OH249851   6.677   4.521  13.643  0.0943  0.1512 -0.3472
 9479TIP3    H149852   6.701   4.576  13.718 -0.2100 -1.8730  1.3498
 9479TIP3    H249853   6.600   4.563  13.605 -0.7701  0.3950  1.5448
 9480TIP3   OH249854   2.283   3.828  11.274  1.0145  0.1667  0.2297
 9480TIP3    H149855   2.270   3.856  11.364  1.0392  3.1260 -0.5775
 9480TIP3    H249856   2.378   3.819  11.265  0.9231 -2.5862  1.0560
 9481TIP3   OH249857   0.777   0.641   0.688  0.3624  0.0251 -0.1370
 9481TIP3    H149858   0.723   0.706   0.643  3.3505  2.1349 -1.0262
 9481TIP3    H249859   0.773   0.666   0.780  0.1202  0.4073 -0.2489
 9482TIP3   OH249860   5.032   1.059   4.003  0.1548  0.0407 -0.0526
 9482TIP3    H149861   5.017   1.130   3.941  1.1457 -0.5697 -1.0227
 9482TIP3    H249862   5.084   0.995   3.954 -1.0695 -1.5511  0.6600
 9483TIP3   OH249863   4.817   4.142   3.143 -0.6415  0.6461  0.2813
 9483TIP3    H149864   4.750   4.128   3.076 -0.5662 -0.2898  0.3791
 9483TIP3    H249865   4.882   4.198   3.101 -1.3352  1.3100  0.0855
 9484TIP3   OH249866   2.325   0.990  10.676 -0.5931 -0.3594 -0.6956
 9484TIP3    H149867   2.263   1.024  10.740 -1.1493 -2.8285  0.2086
 9484TIP3    H249868   2.280   0.998  10.592 -1.2351 -0.0715 -0.3330
 9485TIP3   OH249869   0.984   0.294  12.386 -0.5126 -0.1341 -0.4950
 9485TIP3    H149870   1.049   0.308  12.316  1.5680 -3.6748  0.4618
 9485TIP3    H249871   1.005   0.361  12.451  1.9059 -0.8228 -0.4717
 9486TIP3   OH249872   1.156   2.186   2.518 -0.3236 -0.0399  0.5497
 9486TIP3    H149873   1.162   2.281   2.508 -0.2443  0.0018  0.9602
 9486TIP3    H249874   1.221   2.165   2.586  0.5169 -0.5369 -0.3775
 9487TIP3   OH249875   4.331   0.717  12.642 -0.1896  0.6213  0.7686
 9487TIP3    H149876   4.241   0.750  12.646 -0.6886 -0.7388  1.4463
 9487TIP3    H249877   4.322   0.622  12.649  1.2268  0.3530 -0.5347
 9488TIP3   OH249878   6.759   4.586   2.647 -0.0298  0.0324 -0.0373
 9488TIP3    H149879   6.686   4.603   2.707  0.8093 -0.5810  1.2001
 9488TIP3    H249880   6.730   4.622   2.563 -0.8404  1.7925  0.9539
 9489TIP3   OH249881   3.134   5.758   1.578 -0.2311  0.0540 -0.8809
 9489TIP3    H149882   3.040   5.739   1.580 -0.6598  2.0400  0.3583
 9489TIP3    H249883   3.142   5.833   1.519  0.2529  1.2446  0.6401
 9490TIP3   OH249884   6.206   6.478  16.274 -0.0830 -0.7849 -0.3527
 9490TIP3    H149885   6.258   6.450  16.350 -0.6494  0.8624  0.7042
 9490TIP3    H249886   6.152   6.402  16.253  0.2089 -1.3423  0.7980
 9491TIP3   OH249887   5.748   5.664  14.819 -0.0088 -0.1343  0.2434
 9491TIP3    H149888   5.674   5.660  14.759  1.0573 -1.6567 -1.0571
 9491TIP3    H249889   5.712   5.636  14.903 -1.5331  2.0721  0.4215
 9492TIP3   OH249890   4.442   6.440  14.991 -0.0618 -0.3809  0.0462
 9492TIP3    H149891   4.427   6.532  15.009  0.1997 -0.7987  2.9257
 9492TIP3    H249892   4.535   6.426  15.010 -0.0646 -1.2211 -0.4661
 9493TIP3   OH249893   0.977   0.977  16.817  0.7610 -0.1009 -0.1071
 9493TIP3    H149894   1.022   0.989  16.901  0.6981  1.4102 -0.2633
 9493TIP3    H249895   0.967   1.066  16.782 -1.0998 -0.5115 -0.7324
 9494TIP3   OH249896   5.477   3.028   0.213  0.1319  0.1029  0.4462
 9494TIP3    H149897   5.526   2.962   0.262  1.0566 -0.1597 -0.7728
 9494TIP3    H249898   5.543   3.074   0.162 -0.8573 -0.1595 -1.1416
 9495TIP3   OH249899   3.535   1.126  12.944 -0.0783  0.1923 -0.0655
 9495TIP3    H149900   3.516   1.092  12.857 -0.4967 -0.0737  0.1307
 9495TIP3    H249901   3.605   1.190  12.930 -0.5075  0.5320 -0.6655
 9496TIP3   OH249902   4.408   5.554  14.289 -0.4893 -0.2411 -0.5500
 9496TIP3    H149903   4.418   5.508  14.206  3.3448 -1.6921  0.5555
 9496TIP3    H249904   4.367   5.638  14.265  0.7346 -0.4904 -3.9314
 9497TIP3   OH249905   1.420   0.579  12.634 -0.0776 -0.3431 -0.0861
 9497TIP3    H149906   1.453   0.534  12.557  0.1193  1.3705 -1.0343
 9497TIP3    H249907   1.326   0.559  12.635 -0.1199 -0.1847 -0.8926
 9498TIP3   OH249908   3.438   5.067   3.491  0.1354 -0.1466  0.0105
 9498TIP3    H149909   3.345   5.044   3.487 -0.4112  2.0332 -2.1689
 9498TIP3    H249910   3.439   5.158   3.521  1.3810  0.5144 -1.8539
 9499TIP3   OH249911   4.103   3.951  14.130  0.1686 -0.4511 -0.2330
 9499TIP3    H149912   4.100   3.908  14.045 -1.2780  0.8038 -0.8470
 9499TIP3    H249913   4.012   3.957  14.158  0.5457 -0.0429  1.0109
 9500TIP3   OH249914   0.762   0.382   4.422  0.5645 -0.3725  0.8275
 9500TIP3    H149915   0.716   0.404   4.341  0.0848 -0.4680  1.0698
 9500TIP3    H249916   0.830   0.321   4.395 -0.2017 -1.1554  0.6187
 9501TIP3   OH249917   2.132   5.166   4.190  0.3986 -0.3546 -0.2573
 9501TIP3    H149918   2.158   5.097   4.252  0.0250 -0.2045  0.0764
 9501TIP3    H249919   2.211   5.186   4.141  1.0389  0.4109  1.0443
 9502TIP3   OH249920   1.289   5.389   2.566 -0.0695 -0.6154  0.0810
 9502TIP3    H149921   1.296   5.424   2.477  1.8638 -1.2459 -0.0645
 9502TIP3    H249922   1.360   5.325   2.572  0.1859 -0.1884  2.2721
 9503TIP3   OH249923   0.745   4.738  15.840  0.0656 -0.1414  0.3182
 9503TIP3    H149924   0.704   4.652  15.837 -1.2294  0.4806 -0.5052
 9503TIP3    H249925   0.799   4.742  15.761 -1.1541  0.3928 -0.5152
 9504TIP3   OH249926   2.729   6.673   0.411 -0.2800  0.1762  0.3433
 9504TIP3    H149927   2.759   6.616   0.340  1.5922 -0.2596  1.4248
 9504TIP3    H249928   2.641   6.700   0.385  0.5654  0.5380 -2.4409
 9505TIP3   OH249929   1.210   3.971  13.733  0.0657 -0.7538 -0.7732
 9505TIP3    H149930   1.267   3.907  13.775  1.2298  0.6421 -0.1040
 9505TIP3    H249931   1.258   3.997  13.654  1.1993  1.5485  0.5650
 9506TIP3   OH249932   0.986   5.175   3.788 -0.5031  0.3128  0.1153
 9506TIP3    H149933   1.027   5.126   3.859 -2.2562 -0.7084  0.4793
 9506TIP3    H249934   1.058   5.222   3.746  1.0059 -1.3144  0.7725
 9507TIP3   OH249935   2.554   2.969   3.649  0.1300 -0.4249 -0.1156
 9507TIP3    H149936   2.510   3.052   3.630  1.2103  0.1246 -0.2769
 9507TIP3    H249937   2.635   2.973   3.599  0.8559 -0.9808  0.9831
 9508TIP3   OH249938   1.407   0.459  15.237  0.1378  0.8070 -0.2342
 9508TIP3    H149939   1.404   0.502  15.152  1.2752  0.2126 -0.6121
 9508TIP3    H249940   1.497   0.425  15.243 -0.8260 -2.0028 -0.2486
 9509TIP3   OH249941   6.119   2.922   3.060 -0.6879  0.1441  0.4608
 9509TIP3    H149942   6.049   2.986   3.046 -0.7276 -0.1971 -1.1644
 9509TIP3    H249943   6.182   2.967   3.117 -0.2220  2.0708 -1.4398
 9510TIP3   OH249944   2.523   6.002   2.855  0.0876  0.1918 -0.0435
 9510TIP3    H149945   2.544   5.912   2.833 -0.6706 -0.1577  0.6044
 9510TIP3    H249946   2.442   5.996   2.906 -0.5534  1.3270 -0.8819
 9511TIP3   OH249947   1.069   6.769   3.429  0.3222 -0.0473 -0.2835
 9511TIP3    H149948   1.123   6.698   3.395 -0.9676 -1.0751 -0.2589
 9511TIP3    H249949   1.092   6.775   3.522 -1.0091 -1.8365  0.1970
 9512TIP3   OH249950   1.699   4.382   2.815 -0.1750  0.2375 -0.6767
 9512TIP3    H149951   1.678   4.343   2.730 -1.6760 -0.1945 -0.1329
 9512TIP3    H249952   1.649   4.331   2.878 -0.0438  1.3404  0.3500
 9513TIP3   OH249953   0.958   4.403   4.395 -0.2569 -0.4784  0.0149
 9513TIP3    H149954   1.053   4.398   4.393 -0.2313 -1.1054  1.4152
 9513TIP3    H249955   0.928   4.315   4.371 -0.5230  0.0029 -1.4764
 9514TIP3   OH249956   1.905   0.671  13.372  0.5585  0.2032  0.2380
 9514TIP3    H149957   1.868   0.654  13.459 -0.9924 -0.0002 -0.4256
 9514TIP3    H249958   1.895   0.587  13.326  0.6505  0.5306 -0.3846
 9515TIP3   OH249959   0.612   4.643  14.642  0.3559  0.0254  0.0438
 9515TIP3    H149960   0.585   4.551  14.637  1.6720 -0.3755  0.1265
 9515TIP3    H249961   0.564   4.686  14.571 -1.1282 -0.4857  0.7055
 9516TIP3   OH249962   1.322   1.907  15.250  0.3286  0.2288 -0.2427
 9516TIP3    H149963   1.276   1.990  15.240 -0.5185 -0.1374  0.4627
 9516TIP3    H249964   1.261   1.842  15.216 -1.2371 -0.6669  3.7128
 9517TIP3   OH249965   5.681   4.961  11.561  0.0265  0.3173 -0.2641
 9517TIP3    H149966   5.612   4.928  11.618 -0.3387 -0.1652 -0.9695
 9517TIP3    H249967   5.634   4.996  11.485  0.5298  0.3682 -0.5536
 9518TIP3   OH249968   3.129   0.909   5.187  0.1353 -0.5285 -0.6523
 9518TIP3    H149969   3.208   0.929   5.237  0.5463 -1.3987 -0.9494
 9518TIP3    H249970   3.128   0.975   5.118  0.7602 -0.6935 -0.8235
 9519TIP3   OH249971   0.669   1.034   4.253  0.2844 -0.0471  0.0812
 9519TIP3    H149972   0.679   1.093   4.179  1.3191 -0.0949  0.1718
 9519TIP3    H249973   0.586   0.989   4.237 -1.1193  2.2365  0.6032
 9520TIP3   OH249974   5.322   3.381   1.511  0.2453  0.0283 -0.1799
 9520TIP3    H149975   5.283   3.294   1.513  0.6480 -0.1517  0.0518
 9520TIP3    H249976   5.346   3.394   1.419 -0.0002 -0.0195 -0.2518
 9521TIP3   OH249977   5.862   2.450  12.526 -0.3923  0.1444 -0.2516
 9521TIP3    H149978   5.774   2.421  12.551 -0.6470  0.5595 -0.6431
 9521TIP3    H249979   5.892   2.385  12.462 -0.6736  0.3418 -0.5900
 9522TIP3   OH249980   5.659   0.337   5.094  0.4367 -0.2527 -0.4263
 9522TIP3    H149981   5.566   0.358   5.083 -0.0442 -2.0809 -0.1797
 9522TIP3    H249982   5.681   0.284   5.017  0.5743 -1.9193  0.6972
 9523TIP3   OH249983   6.323   6.443  11.737  0.4944  0.1179 -0.2789
 9523TIP3    H149984   6.419   6.443  11.744  0.5134 -1.3732 -0.2716
 9523TIP3    H249985   6.299   6.536  11.743  1.9580  0.5548 -0.6248
 9524TIP3   OH249986   3.087   5.321   3.120 -0.2174  0.1550 -0.5490
 9524TIP3    H149987   3.071   5.362   3.205  2.1183 -1.3171  0.7406
 9524TIP3    H249988   3.026   5.248   3.117 -0.4558  0.3380 -0.2183
 9525TIP3   OH249989   0.324   1.352  16.016 -0.5034 -0.1763  0.0023
 9525TIP3    H149990   0.294   1.315  15.933  0.5206 -0.1528 -0.4042
 9525TIP3    H249991   0.277   1.303  16.083 -0.7815 -0.7246 -0.5790
 9526TIP3   OH249992   3.352   6.801   4.545  0.2807 -0.0469  0.7602
 9526TIP3    H149993   3.393   6.804   4.459  1.1287 -0.6166  1.1277
 9526TIP3    H249994   3.299   6.720   4.544  0.4661 -0.1693  0.8505
 9527TIP3   OH249995   1.061   4.259   0.735  0.4518  0.2433 -0.0542
 9527TIP3    H149996   1.033   4.267   0.826 -1.6079  2.0397 -0.7599
 9527TIP3    H249997   1.084   4.348   0.709  0.0675 -0.0591 -1.5564
 9528TIP3   OH249998   0.531   5.633   2.724 -0.6765  0.1792  0.3539
 9528TIP3    H149999   0.594   5.668   2.661  0.6864 -0.7319  1.1431
 9528TIP3    H250000   0.492   5.557   2.681  0.2118 -0.4103  0.5601
 9529TIP3   OH250001   0.756   0.159  13.229 -0.2216  0.7081 -0.7516
 9529TIP3    H150002   0.776   0.123  13.315 -1.1524 -0.1842 -0.8884
 9529TIP3    H250003   0.841   0.185  13.193  0.3775 -0.5349 -0.2720
 9530TIP3   OH250004   5.152   3.089  15.604  0.6395  0.0240 -0.4133
 9530TIP3    H150005   5.060   3.107  15.623  0.5842  1.3761 -1.8040
 9530TIP3    H250006   5.200   3.156  15.652  0.9830 -1.0819  0.8510
 9531TIP3   OH250007   0.870   2.111   0.036 -0.4389  0.7054 -0.1206
 9531TIP3    H150008   0.955   2.094  -0.006 -1.9199 -2.1261 -2.2972
 9531TIP3    H250009   0.829   2.177  -0.021 -0.3205  0.9273  0.0485
 9532TIP3   OH250010   0.117   3.891  14.998 -0.0504 -1.1303  0.5507
 9532TIP3    H150011   0.102   3.798  14.978 -1.2284 -0.4497 -2.3789
 9532TIP3    H250012   0.196   3.914  14.949 -0.9531 -0.1774 -0.5391
 9533TIP3   OH250013   5.277   3.297  15.753 -0.4541  0.4277  0.2074
 9533TIP3    H150014   5.302   3.381  15.713 -1.0163  0.4514 -0.1013
 9533TIP3    H250015   5.313   3.301  15.842  1.6031 -0.0007 -0.5606
 9534TIP3   OH250016   6.428   5.283  17.076  0.4013  0.4726  0.0138
 9534TIP3    H150017   6.342   5.279  17.035  0.1763  0.1642  0.5085
 9534TIP3    H250018   6.470   5.200  17.053  0.4157  0.4572  0.0931
 9535TIP3   OH250019   3.538   1.663   3.914  0.1104  0.0362  0.2715
 9535TIP3    H150020   3.551   1.744   3.865 -0.3948 -0.6475 -1.0250
 9535TIP3    H250021   3.618   1.653   3.966  0.6952  0.7210 -0.4821
 9536TIP3   OH250022   6.449   5.832  13.940  0.4373  0.1477 -0.1220
 9536TIP3    H150023   6.526   5.872  13.899  1.0586 -0.8184  0.0742
 9536TIP3    H250024   6.483   5.753  13.982 -0.7380 -0.5140 -0.3987
 9537TIP3   OH250025   2.778   1.092   5.163 -0.2448 -0.3498  0.5664
 9537TIP3    H150026   2.859   1.134   5.133  0.3357 -1.2594  0.8291
 9537TIP3    H250027   2.728   1.163   5.203  0.4371  0.2179  0.4361
 9538TIP3   OH250028   3.047   0.965  16.681  0.2774  0.2649  0.1815
 9538TIP3    H150029   3.138   0.951  16.655  0.2352 -0.3614  0.3631
 9538TIP3    H250030   3.045   1.054  16.716  0.8839  0.1661  0.4717
 9539TIP3   OH250031   0.658   6.263   4.449 -0.0500 -0.6493  0.0968
 9539TIP3    H150032   0.677   6.240   4.358 -0.1461  1.3355 -0.4633
 9539TIP3    H250033   0.707   6.199   4.501 -0.0041 -1.8163 -1.3282
 9540TIP3   OH250034   2.315   3.065  13.314  0.4263 -0.1119  0.3739
 9540TIP3    H150035   2.389   3.066  13.375 -0.8844 -0.1044  2.0519
 9540TIP3    H250036   2.279   2.976  13.322 -0.1060  0.0692  0.0560
 9541TIP3   OH250037   0.876   6.056   5.051 -0.3294 -0.1978 -0.0371
 9541TIP3    H150038   0.958   6.042   5.004 -0.2182 -1.1503  0.4259
 9541TIP3    H250039   0.883   6.145   5.084  0.3574 -0.1383 -0.3144
 9542TIP3   OH250040   6.318   0.834  10.267 -0.1573 -0.4982 -0.7480
 9542TIP3    H150041   6.409   0.853  10.244  0.1043 -1.8806 -0.9436
 9542TIP3    H250042   6.321   0.749  10.311 -1.1601  0.2365  0.8285
 9543TIP3   OH250043   3.035   2.584  12.464 -0.1277  0.4062 -0.2478
 9543TIP3    H150044   3.036   2.604  12.558  0.3931 -1.3159  0.1498
 9543TIP3    H250045   3.065   2.493  12.459 -1.7106 -0.0721 -1.9582
 9544TIP3   OH250046   1.671   3.047  12.729  0.2151 -0.0975 -0.0072
 9544TIP3    H150047   1.670   3.106  12.804  4.5787  2.6821 -1.7846
 9544TIP3    H250048   1.761   3.016  12.724 -0.5437 -2.2803 -2.6438
 9545TIP3   OH250049   2.666   1.387   1.235 -0.4492  0.1669 -0.1687
 9545TIP3    H150050   2.635   1.443   1.165 -1.8085  0.7582  0.8599
 9545TIP3    H250051   2.593   1.382   1.297 -0.4158 -2.7558 -0.1935
 9546TIP3   OH250052   4.345   0.861  12.272 -0.0583 -0.6374 -0.0149
 9546TIP3    H150053   4.265   0.816  12.297  0.2211 -1.4743 -0.5993
 9546TIP3    H250054   4.408   0.836  12.340 -0.2694 -0.0022  0.4288
 9547TIP3   OH250055   4.746   0.530   1.002  0.2772  0.2512  0.0072
 9547TIP3    H150056   4.799   0.453   1.023  2.8310  1.9733  0.3433
 9547TIP3    H250057   4.664   0.516   1.049  1.1370 -1.6887  1.0602
 9548TIP3   OH250058   5.365   2.080   3.118  0.2283  0.0508  0.1678
 9548TIP3    H150059   5.432   2.132   3.073 -0.1594  0.4456  0.0286
 9548TIP3    H250060   5.329   2.023   3.050  1.2545 -1.0353  0.5196
 9549TIP3   OH250061   2.208   6.499   5.121  0.6567  0.3122  0.1957
 9549TIP3    H150062   2.214   6.445   5.042  0.0771  1.6675 -0.8138
 9549TIP3    H250063   2.284   6.473   5.173 -1.2256 -3.7414  1.2997
 9550TIP3   OH250064   3.433   5.969  11.898 -0.3121  0.0639  0.0164
 9550TIP3    H150065   3.528   5.979  11.910 -0.2232  2.6204 -2.0098
 9550TIP3    H250066   3.425   5.897  11.835  0.3206  0.0861 -0.1043
 9551TIP3   OH250067   3.707   4.038   5.974  0.0475 -0.0498 -0.5299
 9551TIP3    H150068   3.635   3.991   6.017 -0.2562  1.8241  1.1580
 9551TIP3    H250069   3.690   4.130   5.994  1.5784  0.6541 -2.2256
 9552TIP3   OH250070   1.961   4.682   5.649 -0.3744 -0.2408  0.1846
 9552TIP3    H150071   1.915   4.746   5.704  1.2865  0.3182  0.9808
 9552TIP3    H250072   2.038   4.657   5.700  1.0546  0.0345 -1.7327
 9553TIP3   OH250073   2.102   2.363   0.444 -0.2219 -0.2487 -0.2369
 9553TIP3    H150074   2.009   2.376   0.427 -0.3725  2.2335  1.8069
 9553TIP3    H250075   2.142   2.448   0.427  1.4138 -0.8429  0.3817
 9554TIP3   OH250076   2.198   4.861   0.802 -0.2280  0.0950  0.5109
 9554TIP3    H150077   2.150   4.787   0.840  1.3050  0.2478  2.9184
 9554TIP3    H250078   2.130   4.912   0.756 -1.7480 -1.4246  0.9408
 9555TIP3   OH250079   6.624   0.144   5.333  0.0609 -1.0285  0.2433
 9555TIP3    H150080   6.667   0.066   5.297  0.8756 -0.7221  0.5286
 9555TIP3    H250081   6.656   0.216   5.278  0.4038 -0.7150  0.8411
 9556TIP3   OH250082   3.926   6.173   3.897 -0.0736  0.3704  0.0172
 9556TIP3    H150083   3.921   6.195   3.990  0.2761  0.8583 -0.0761
 9556TIP3    H250084   3.845   6.126   3.879  1.0001 -2.1367  1.1804
 9557TIP3   OH250085   3.899   6.555   4.118 -0.7482 -0.0462 -0.2836
 9557TIP3    H150086   3.882   6.503   4.196 -1.4405  0.0582 -0.3574
 9557TIP3    H250087   3.910   6.490   4.048 -3.1263 -0.1145 -0.6807
 9558TIP3   OH250088   1.442   5.497  11.894  0.3541  0.4590  0.2500
 9558TIP3    H150089   1.516   5.474  11.837  0.3504  1.1111 -0.0204
 9558TIP3    H250090   1.479   5.495  11.982 -0.4134 -4.1232  0.7383
 9559TIP3   OH250091   5.935   4.938   4.335  0.7511  0.2827  0.3125
 9559TIP3    H150092   5.989   4.961   4.259 -0.8700 -1.0706 -1.3106
 9559TIP3    H250093   5.853   4.986   4.322  1.0350  1.3599  2.1263
 9560TIP3   OH250094   3.687   3.385  11.054  0.4647  0.8565 -0.5702
 9560TIP3    H150095   3.674   3.476  11.083  0.2773  0.5835  0.2277
 9560TIP3    H250096   3.664   3.386  10.962 -1.6664  1.1872 -0.0835
 9561TIP3   OH250097   4.341   5.293   0.635 -0.2496  0.3697 -0.0756
 9561TIP3    H150098   4.313   5.202   0.627 -2.0268  0.7976  0.7483
 9561TIP3    H250099   4.273   5.344   0.590 -0.3631  1.3974  1.1914
 9562TIP3   OH250100   5.696   2.061   1.320 -0.0883  0.1398 -0.2878
 9562TIP3    H150101   5.745   2.011   1.385  0.7057  0.1650 -0.8579
 9562TIP3    H250102   5.733   2.035   1.236 -0.1140  1.1775 -0.6379
 9563TIP3   OH250103   0.072   0.050   5.634  0.5527 -0.4205  0.0275
 9563TIP3    H150104   0.138  -0.014   5.608  1.3229 -0.1636  1.2798
 9563TIP3    H250105   0.099   0.079   5.721 -1.9145 -1.2344  1.1407
 9564TIP3   OH250106   1.197   0.850   4.113 -0.0446 -0.2548 -0.4278
 9564TIP3    H150107   1.116   0.829   4.066  0.3017 -1.0159 -0.7086
 9564TIP3    H250108   1.168   0.896   4.192 -0.8839 -1.8953  0.2819
 9565TIP3   OH250109   0.944   0.520   6.386 -0.4083  0.5666 -0.2340
 9565TIP3    H150110   1.031   0.489   6.410 -1.4772 -1.6392  1.1364
 9565TIP3    H250111   0.947   0.614   6.402  1.3212  0.3478  1.0916
 9566TIP3   OH250112   0.157   1.621  12.236  0.4126  0.1805  0.1162
 9566TIP3    H150113   0.189   1.577  12.315  0.2263  0.1335  0.1663
 9566TIP3    H250114   0.213   1.588  12.166  0.3452 -0.0538  0.1715
 9567TIP3   OH250115   4.280   5.614  12.401  0.1829  0.1586 -0.1115
 9567TIP3    H150116   4.195   5.657  12.385  0.3246  0.7806  0.7293
 9567TIP3    H250117   4.345   5.680  12.376  0.4352 -0.4947 -1.2218
 9568TIP3   OH250118   4.879   6.716   5.743 -0.4518  0.5791  0.1791
 9568TIP3    H150119   4.849   6.807   5.752  0.6678  1.3905 -3.1564
 9568TIP3    H250120   4.804   6.670   5.704 -0.2098  0.6357 -0.3547
 9569TIP3   OH250121   4.046   6.730   6.112  0.4188 -0.0150 -0.2028
 9569TIP3    H150122   3.959   6.708   6.144  0.2180 -2.0823 -1.8827
 9569TIP3    H250123   4.076   6.800   6.169 -2.2670  0.6745  0.5125
 9570TIP3   OH250124   5.749   0.541   0.724 -0.2052  0.1049 -0.0351
 9570TIP3    H150125   5.699   0.484   0.783  1.6293 -0.2067  1.3061
 9570TIP3    H250126   5.684   0.601   0.688 -1.6339 -0.6435  1.1799
 9571TIP3   OH250127   4.991   5.026   1.620  0.0953  0.5895 -0.1158
 9571TIP3    H150128   4.946   5.079   1.686 -1.0510 -0.0878 -0.3279
 9571TIP3    H250129   5.078   5.065   1.613 -0.1544  1.3825  0.9576
 9572TIP3   OH250130   1.198   2.423   3.181  0.4226 -0.1929  0.3848
 9572TIP3    H150131   1.113   2.396   3.146  1.7725 -1.1677 -2.4161
 9572TIP3    H250132   1.254   2.346   3.169  2.0242  0.8146  1.1053
 9573TIP3   OH250133   0.568   5.348  10.955  0.1305 -0.2721 -0.2931
 9573TIP3    H150134   0.600   5.319  10.870 -0.0777  0.2414 -0.5485
 9573TIP3    H250135   0.516   5.426  10.936  0.3690  0.0438  0.3416
 9574TIP3   OH250136   4.144   1.669   5.390 -0.0269 -0.3457  0.2033
 9574TIP3    H150137   4.058   1.706   5.413 -0.3074  0.4544 -1.8921
 9574TIP3    H250138   4.147   1.674   5.294  1.7782 -1.7190  0.1385
 9575TIP3   OH250139   1.127   4.755   2.257 -1.2214  0.2040 -0.5336
 9575TIP3    H150140   1.201   4.729   2.203 -1.6099 -0.8705 -0.5584
 9575TIP3    H250141   1.075   4.675   2.269 -1.9630  0.7614  0.1354
 9576TIP3   OH250142   3.811   4.283  16.982  0.0294  0.0977 -0.2009
 9576TIP3    H150143   3.747   4.352  16.965  0.5096  1.2103  2.0863
 9576TIP3    H250144   3.882   4.299  16.921  0.0019  1.4931  0.1079
 9577TIP3   OH250145   5.131   5.045  12.522 -0.8288 -0.0741 -0.5701
 9577TIP3    H150146   5.204   5.048  12.461  0.0478 -0.3125  0.4370
 9577TIP3    H250147   5.172   5.048  12.609 -2.0829  1.2127  0.0096
 9578TIP3   OH250148   6.190   5.739   2.728  0.1589 -0.6319  0.9528
 9578TIP3    H150149   6.182   5.703   2.817 -0.8954 -2.6407  0.1272
 9578TIP3    H250150   6.101   5.764   2.704  0.3723 -0.4273  0.3577
 9579TIP3   OH250151   0.177   6.516   1.606  0.3952 -0.0235 -0.4749
 9579TIP3    H150152   0.229   6.579   1.555  0.5244 -1.5687 -2.3996
 9579TIP3    H250153   0.178   6.436   1.552 -1.5677 -0.9898  0.8326
 9580TIP3   OH250154   3.651   5.567  13.396 -0.0852  0.0568  0.3425
 9580TIP3    H150155   3.623   5.652  13.429  1.1819  1.2617 -1.5214
 9580TIP3    H250156   3.728   5.545  13.449  1.0305  1.2567 -0.7302
 9581TIP3   OH250157   4.994   2.165   2.385  0.0156  0.4567 -0.3397
 9581TIP3    H150158   4.955   2.246   2.351 -0.0770  0.1709 -0.9298
 9581TIP3    H250159   4.965   2.097   2.324 -0.4652 -0.1385  0.5283
 9582TIP3   OH250160   4.647   0.948  16.240 -0.0041 -0.2017 -0.0491
 9582TIP3    H150161   4.566   0.981  16.204  0.1538 -0.2143 -0.4171
 9582TIP3    H250162   4.622   0.871  16.291 -0.1524 -0.5343 -0.6203
 9583TIP3   OH250163   5.533   5.753  15.038 -1.0726  0.4055  0.2145
 9583TIP3    H150164   5.464   5.735  15.102  0.6806 -0.7897  1.8751
 9583TIP3    H250165   5.572   5.835  15.068  0.1754 -0.4879  1.1388
 9584TIP3   OH250166   4.260   3.316   1.952  0.4045  0.3249 -0.2230
 9584TIP3    H150167   4.273   3.384   2.018  0.7192  0.2363 -0.1927
 9584TIP3    H250168   4.207   3.357   1.884  1.4466  0.9081 -0.6947
 9585TIP3   OH250169   5.955   2.339   3.376 -0.2117  0.4859  0.1198
 9585TIP3    H150170   5.965   2.247   3.399  0.6112 -0.1202 -2.2840
 9585TIP3    H250171   5.905   2.377   3.447  0.3724 -1.5692  1.7169
 9586TIP3   OH250172   3.710   1.272   2.749  0.0707 -0.4019 -0.1909
 9586TIP3    H150173   3.733   1.288   2.658 -1.1202 -1.2917 -0.6629
 9586TIP3    H250174   3.634   1.328   2.765 -0.5635 -1.2585 -0.1602
 9587TIP3   OH250175   4.190   1.081   4.066  0.0272 -0.0875  0.0021
 9587TIP3    H150176   4.195   0.992   4.032 -0.4437 -1.0124  2.1356
 9587TIP3    H250177   4.280   1.105   4.086 -0.0464 -1.2670  2.0450
 9588TIP3   OH250178   0.712   1.630   3.367 -0.4390  0.1909  0.0819
 9588TIP3    H150179   0.695   1.718   3.400 -2.6807 -0.3751  0.5888
 9588TIP3    H250180   0.686   1.572   3.438  0.5261 -0.9106 -0.4339
 9589TIP3   OH250181   1.533   4.039  12.383  0.1197  0.4290 -0.3681
 9589TIP3    H150182   1.567   3.957  12.418 -0.0441  0.4349 -0.1966
 9589TIP3    H250183   1.447   4.049  12.423  0.8755  1.6135  1.0417
 9590TIP3   OH250184   2.392   4.718  10.555 -0.7026  0.5577  0.4979
 9590TIP3    H150185   2.376   4.748  10.645 -0.4495  0.9927  0.4029
 9590TIP3    H250186   2.483   4.742  10.538 -0.7847  0.5830  0.0857
 9591TIP3   OH250187   2.817   2.453  14.969  0.5492 -0.4478 -0.1418
 9591TIP3    H150188   2.744   2.427  14.913 -0.0006 -0.9363  0.7682
 9591TIP3    H250189   2.881   2.492  14.909 -0.6538  0.4433 -0.8886
 9592TIP3   OH250190   0.981   0.330  11.064  0.1066 -0.3521  0.5561
 9592TIP3    H150191   1.044   0.260  11.045 -1.4730 -2.0202  1.2103
 9592TIP3    H250192   0.980   0.336  11.160  0.7499  1.1079  0.4979
 9593TIP3   OH250193   3.734   4.271  13.731 -0.0759  0.4605 -0.0086
 9593TIP3    H150194   3.644   4.276  13.762 -0.0357 -2.4735  0.8339
 9593TIP3    H250195   3.731   4.308  13.642 -1.9382  0.9929  0.2360
 9594TIP3   OH250196   3.405   1.974  16.324 -0.2634  0.1441  0.6533
 9594TIP3    H150197   3.393   1.880  16.340  1.2190  0.1687  2.1610
 9594TIP3    H250198   3.445   2.007  16.404  0.9087  1.7167 -0.5295
 9595TIP3   OH250199   5.805   0.070  11.534  0.3211  0.3307 -0.0674
 9595TIP3    H150200   5.733   0.037  11.589 -0.0710  0.0132 -0.7480
 9595TIP3    H250201   5.856  -0.008  11.513  0.1657  0.3536 -0.5687
 9596TIP3   OH250202   5.074   4.693   4.471  0.6134  0.0389 -0.0583
 9596TIP3    H150203   5.109   4.727   4.389 -1.1483  2.2575 -0.0008
 9596TIP3    H250204   5.083   4.766   4.533  1.0358 -1.2642  1.4759
 9597TIP3   OH250205   6.480   0.601  12.094  0.3922 -0.2897  0.0133
 9597TIP3    H150206   6.496   0.531  12.158  1.0396 -1.5554 -1.4579
 9597TIP3    H250207   6.567   0.633  12.071  0.1766  0.0483 -0.3392
 9598TIP3   OH250208   1.112   0.832   0.633 -0.0308 -0.1240  0.0523
 9598TIP3    H150209   1.096   0.784   0.553 -0.4112 -0.1839  0.1651
 9598TIP3    H250210   1.199   0.871   0.621  0.5048 -1.2550  0.1685
 9599TIP3   OH250211   0.674   2.556   1.103  0.1123  0.3463 -0.0755
 9599TIP3    H150212   0.698   2.536   1.013  1.3294 -0.4964  0.4096
 9599TIP3    H250213   0.581   2.576   1.100 -0.5282 -2.4874 -1.0896
 9600TIP3   OH250214   5.468   5.911  13.258  0.3734 -0.0978  0.4045
 9600TIP3    H150215   5.496   6.001  13.271  1.0810 -0.3126  0.4147
 9600TIP3    H250216   5.524   5.860  13.317 -0.1714 -0.5232  0.5677
 9601TIP3   OH250217   1.236   0.167   0.408  0.8742 -0.2999 -0.6089
 9601TIP3    H150218   1.168   0.197   0.348 -0.0506  0.4350  0.7568
 9601TIP3    H250219   1.194   0.165   0.494  1.4261 -3.6769 -0.2620
 9602TIP3   OH250220   5.136   5.003   1.368 -0.3474 -0.2072 -0.9656
 9602TIP3    H150221   5.103   5.092   1.376  1.0885  0.2843 -0.1150
 9602TIP3    H250222   5.069   4.956   1.318 -1.8170  0.9634 -0.1532
 9603TIP3   OH250223   5.784   2.993  16.133  0.0262 -0.0918  0.0275
 9603TIP3    H150224   5.811   2.911  16.092 -0.2743  0.1021 -0.5657
 9603TIP3    H250225   5.849   3.057  16.105  1.4598 -0.4993  2.1108
 9604TIP3   OH250226   4.170   5.434   3.774 -0.4924 -0.0599 -0.0635
 9604TIP3    H150227   4.186   5.408   3.683 -2.3184 -0.0933 -0.4103
 9604TIP3    H250228   4.256   5.464   3.806  0.5789 -1.6985 -1.2297
 9605TIP3   OH250229   0.855   5.370  12.805  0.5364 -0.6546 -0.2349
 9605TIP3    H150230   0.860   5.422  12.886  1.9604 -1.1567  0.0210
 9605TIP3    H250231   0.910   5.417  12.743 -0.3837 -0.3899 -0.8680
 9606TIP3   OH250232   1.588   1.357  11.350 -0.2842  0.6106 -0.1372
 9606TIP3    H150233   1.552   1.282  11.303  0.3918  1.2313 -1.7272
 9606TIP3    H250234   1.672   1.374  11.307  0.5565  0.9889  1.5785
 9607TIP3   OH250235   4.743   1.200  13.704 -0.0738  0.3395  0.3343
 9607TIP3    H150236   4.768   1.126  13.758 -1.8614  0.5839  1.6015
 9607TIP3    H250237   4.826   1.238  13.675  0.8985 -0.9928  1.2557
 9608TIP3   OH250238   0.736   2.751   6.531  0.2651 -1.1109  0.2230
 9608TIP3    H150239   0.738   2.671   6.478 -0.1273  0.0026 -1.5690
 9608TIP3    H250240   0.645   2.781   6.525  0.7706  0.3617 -0.5946
 9609TIP3   OH250241   6.129   6.437   5.463  0.0274  0.3177  0.1904
 9609TIP3    H150242   6.210   6.394   5.435 -0.8244 -0.7175 -0.8104
 9609TIP3    H250243   6.114   6.405   5.552  1.6352  1.9487  1.1265
 9610TIP3   OH250244   1.081   6.104  17.079  0.0524 -0.1784 -0.1467
 9610TIP3    H150245   1.079   6.009  17.068 -0.6809 -0.2673  0.6731
 9610TIP3    H250246   1.044   6.139  16.998  3.3317 -0.4216 -1.9283
 9611TIP3   OH250247   3.330   2.099  16.722 -0.1265 -0.3784  0.2752
 9611TIP3    H150248   3.343   2.163  16.652 -0.1639 -1.6305 -0.9297
 9611TIP3    H250249   3.263   2.039  16.688 -0.1663 -0.9990  1.3956
 9612TIP3   OH250250   6.380   1.824  11.661 -0.3432 -0.5024  0.1942
 9612TIP3    H150251   6.385   1.863  11.748 -0.8304 -1.2828  0.5876
 9612TIP3    H250252   6.294   1.783  11.657 -0.1512 -0.8671 -0.4871
 9613TIP3   OH250253   5.283   5.480   1.808  0.0705 -0.5518 -0.0068
 9613TIP3    H150254   5.201   5.444   1.774  0.7181 -0.8703 -1.2890
 9613TIP3    H250255   5.271   5.575   1.802  0.7374 -0.5606 -2.7008
 9614TIP3   OH250256   3.260   3.914   5.388 -0.1331  0.7066  0.4358
 9614TIP3    H150257   3.193   3.898   5.322  0.7284 -0.2289 -0.2508
 9614TIP3    H250258   3.286   3.826   5.417 -1.3989  1.0781  2.9953
 9615TIP3   OH250259   3.526   4.099   6.220  0.1493 -0.2431  0.0765
 9615TIP3    H150260   3.605   4.056   6.251  0.8062 -0.0129 -1.2039
 9615TIP3    H250261   3.479   4.031   6.173 -0.1805 -0.2537  0.4150
 9616TIP3   OH250262   2.539   1.126  12.294 -0.5110  0.4686 -0.2460
 9616TIP3    H150263   2.464   1.078  12.258 -0.6833  0.1786  0.4680
 9616TIP3    H250264   2.609   1.111  12.231 -0.2069 -1.7657  0.5082
 9617TIP3   OH250265   5.925   6.023   2.020 -0.2360  0.4546  0.1393
 9617TIP3    H150266   5.917   6.097   2.081  0.2677  1.6087 -1.1414
 9617TIP3    H250267   5.837   5.985   2.017 -1.0770  2.3192 -0.7385
 9618TIP3   OH250268   4.408   6.562  11.681  0.3102 -0.4729 -0.5956
 9618TIP3    H150269   4.450   6.647  11.698 -1.1115  0.3273 -0.8847
 9618TIP3    H250270   4.346   6.580  11.610  1.9893 -2.4322 -2.7055
 9619TIP3   OH250271   0.778   6.269   5.205  0.1399  0.0800 -0.2774
 9619TIP3    H150272   0.741   6.314   5.281  2.0144  1.9655 -0.3728
 9619TIP3    H250273   0.785   6.338   5.139  1.8342 -0.6885 -0.9393
 9620TIP3   OH250274   6.337   5.502  13.458 -0.0739  0.2916 -0.1957
 9620TIP3    H150275   6.388   5.500  13.377  0.5368  1.4650  0.1487
 9620TIP3    H250276   6.340   5.593  13.486  0.4448 -0.2493  1.6116
 9621TIP3   OH250277   4.394   4.926   1.770 -0.3509  0.5460 -0.4699
 9621TIP3    H150278   4.404   4.971   1.686 -0.0529  0.0238 -0.7172
 9621TIP3    H250279   4.412   4.994   1.836 -0.3816  0.9045 -0.8308
 9622TIP3   OH250280   0.789   2.131  12.499  0.0840 -0.1313  0.2008
 9622TIP3    H150281   0.866   2.171  12.538  0.1325 -1.0388  1.0979
 9622TIP3    H250282   0.800   2.142  12.405  0.3702  1.4113  0.3954
 9623TIP3   OH250283   4.737   6.420   2.010 -0.8929  0.5455 -0.3851
 9623TIP3    H150284   4.646   6.422   1.981 -0.8495 -1.0996 -0.7025
 9623TIP3    H250285   4.783   6.370   1.942  0.1608  0.9261  0.0264
 9624TIP3   OH250286   0.567   2.799   4.167 -0.6399 -0.2307 -0.3711
 9624TIP3    H150287   0.611   2.883   4.155 -0.2352 -0.2324  0.9340
 9624TIP3    H250288   0.487   2.821   4.216 -1.0737 -0.4825 -0.9541
 9625TIP3   OH250289   2.194   2.651   2.663 -0.9554  0.5068  0.1551
 9625TIP3    H150290   2.260   2.633   2.729 -1.3961 -3.3038 -0.2588
 9625TIP3    H250291   2.243   2.687   2.589  0.1232  0.8179  0.9996
 9626TIP3   OH250292   1.961   2.280   3.088  0.3542  0.0612 -0.1725
 9626TIP3    H150293   1.937   2.355   3.143  1.9171 -0.5385  1.3995
 9626TIP3    H250294   1.922   2.300   3.003 -1.0180  1.6633  0.7619
 9627TIP3   OH250295   5.878   4.964   1.746 -0.4455 -0.6259  0.1437
 9627TIP3    H150296   5.909   4.966   1.836 -2.0012 -0.2348  0.7143
 9627TIP3    H250297   5.782   4.971   1.754 -0.8009 -2.7442 -1.4367
 9628TIP3   OH250298   2.833   4.758   4.215 -0.4637 -0.3038 -0.0227
 9628TIP3    H150299   2.827   4.664   4.193  0.6719 -0.3005 -0.3704
 9628TIP3    H250300   2.818   4.761   4.310  0.8281 -0.9939  0.2225
 9629TIP3   OH250301   3.840   3.009  12.431 -0.4232 -0.6403 -0.5400
 9629TIP3    H150302   3.933   2.987  12.436 -0.0414 -0.4768 -4.2155
 9629TIP3    H250303   3.810   3.009  12.522  3.1170 -0.7871  0.7638
 9630TIP3   OH250304   5.478   1.793  16.481 -0.3511  0.2791 -0.1544
 9630TIP3    H150305   5.553   1.780  16.539 -0.1960  1.3968 -0.0661
 9630TIP3    H250306   5.460   1.707  16.444  0.4485 -0.1669  0.4660
 9631TIP3   OH250307   4.153   4.917   5.938  0.3119 -0.2213  0.1810
 9631TIP3    H150308   4.214   4.968   5.992 -0.5136  1.6478 -0.5380
 9631TIP3    H250309   4.102   4.867   6.001  0.5171  0.5858  1.0211
 9632TIP3   OH250310   3.806   3.810   5.805  0.5786 -0.0147 -0.2683
 9632TIP3    H150311   3.791   3.876   5.873  1.9084 -0.2130  0.2504
 9632TIP3    H250312   3.783   3.854   5.723 -0.1412  0.5395  0.2207
 9633TIP3   OH250313   4.285   2.673   2.464 -1.2148 -0.0594 -0.1135
 9633TIP3    H150314   4.336   2.653   2.385  1.1716  2.3413  0.6930
 9633TIP3    H250315   4.263   2.766   2.455  0.4605  0.7084  2.6788
 9634TIP3   OH250316   2.852   6.540  16.915  0.5204 -0.3517  0.5227
 9634TIP3    H150317   2.802   6.617  16.890  3.1741  1.1238 -0.7619
 9634TIP3    H250318   2.922   6.574  16.971  2.7963 -1.4330 -1.4748
 9635TIP3   OH250319   0.202   1.355  11.820  0.2656  0.5222 -0.1459
 9635TIP3    H150320   0.275   1.300  11.792  1.1251  1.0777  0.9245
 9635TIP3    H250321   0.181   1.409  11.744  0.5481 -0.0830 -0.6587
 9636TIP3   OH250322   3.697   0.539  16.923 -0.6670  0.2124 -0.5236
 9636TIP3    H150323   3.604   0.514  16.917 -0.0268 -2.0412 -3.1235
 9636TIP3    H250324   3.736   0.469  16.976 -0.2943  0.7250 -0.1166
 9637TIP3   OH250325   4.514   5.607  12.898  0.7288  0.1997  0.1653
 9637TIP3    H150326   4.451   5.637  12.831 -0.1018  1.5247  1.4789
 9637TIP3    H250327   4.490   5.516  12.915 -1.8806  1.0769  1.6960
 9638TIP3   OH250328   0.158   3.726   1.221 -0.4672 -0.9253  0.1772
 9638TIP3    H150329   0.216   3.698   1.292  0.0019 -0.8078 -0.1547
 9638TIP3    H250330   0.074   3.743   1.264  0.2837  0.9293  1.0130
 9639TIP3   OH250331   2.957   4.269   1.102  0.2679  0.2059  0.6671
 9639TIP3    H150332   2.995   4.199   1.049  0.8557  0.0185  1.3279
 9639TIP3    H250333   2.873   4.233   1.131 -0.5378  0.6864 -0.9371
 9640TIP3   OH250334   2.630   2.409  11.024 -0.0316 -0.0874  0.4616
 9640TIP3    H150335   2.575   2.359  10.965  1.9876  1.4801 -3.0621
 9640TIP3    H250336   2.572   2.474  11.063 -1.3594 -0.8664 -0.1694
 9641TIP3   OH250337   1.315   0.674   5.128 -0.5024 -0.0153  0.3750
 9641TIP3    H150338   1.300   0.743   5.193  0.8771 -1.5412  2.4153
 9641TIP3    H250339   1.406   0.649   5.141 -0.6290 -1.4033 -1.1665
 9642TIP3   OH250340   4.882   2.707   1.100 -0.3286 -0.7409 -0.4615
 9642TIP3    H150341   4.882   2.614   1.122 -0.5898 -0.2742  1.6964
 9642TIP3    H250342   4.964   2.740   1.136 -0.0107 -0.1868 -1.6308
 9643TIP3   OH250343   1.120   3.105   1.063  0.3906 -0.5834  0.3956
 9643TIP3    H150344   1.157   3.128   1.148  1.0971 -1.5969  0.3772
 9643TIP3    H250345   1.025   3.110   1.077  0.4815 -1.2934  1.4214
 9644TIP3   OH250346   6.750   0.687  14.235  0.3473  0.2081  0.0534
 9644TIP3    H150347   6.774   0.706  14.326 -1.1311 -0.0265  0.5157
 9644TIP3    H250348   6.766   0.593  14.226  1.4647  0.4103 -0.2628
 9645TIP3   OH250349   5.088   0.624   5.577  0.0197  0.2313  0.0674
 9645TIP3    H150350   5.160   0.625   5.641  0.7951  0.7619 -0.7839
 9645TIP3    H250351   5.069   0.716   5.560 -1.7705  0.1207  1.2355
 9646TIP3   OH250352   1.443   6.774   5.286  0.4727  0.3216  0.3763
 9646TIP3    H150353   1.485   6.837   5.344  1.6588 -1.8738  2.0363
 9646TIP3    H250354   1.505   6.764   5.213  0.9557  0.0741  0.8104
 9647TIP3   OH250355   3.107   4.171  14.265 -0.3453 -0.0094 -0.3747
 9647TIP3    H150356   3.107   4.193  14.359 -0.5279  0.5744 -0.5053
 9647TIP3    H250357   3.079   4.080  14.262 -0.8572  0.1261  0.1100
 9648TIP3   OH250358   1.131   5.400  14.605  0.1546  0.3068 -0.1745
 9648TIP3    H150359   1.223   5.405  14.578 -0.1335 -2.2480 -1.9547
 9648TIP3    H250360   1.129   5.330  14.670 -0.6083 -0.1208 -0.6389
 9649TIP3   OH250361   4.640   5.382  13.337  0.0501  0.8570  0.8353
 9649TIP3    H150362   4.580   5.379  13.263 -0.9623 -1.3508  1.6754
 9649TIP3    H250363   4.726   5.364  13.299 -0.7030 -2.1803  0.3474
 9650TIP3   OH250364   5.053   1.220  12.039 -0.5856 -0.2376 -0.4329
 9650TIP3    H150365   4.995   1.273  12.094 -0.7187  0.5122 -1.2834
 9650TIP3    H250366   5.067   1.140  12.089  0.0121  0.7813  1.1134
 9651TIP3   OH250367   1.455   0.206   3.862  0.0190 -0.1146 -0.1824
 9651TIP3    H150368   1.544   0.224   3.832 -0.2903 -0.0396 -1.0779
 9651TIP3    H250369   1.441   0.267   3.934  0.6003  0.0557 -0.2085
 9652TIP3   OH250370   4.877   4.081  16.277 -0.2516  0.2849 -0.3121
 9652TIP3    H150371   4.850   4.118  16.360 -1.5003 -0.2509 -0.4651
 9652TIP3    H250372   4.929   4.150  16.235  1.1922  0.2298  1.2853
 9653TIP3   OH250373   4.563   3.519  10.990 -0.2622 -0.0099  0.4200
 9653TIP3    H150374   4.507   3.582  10.943  0.0709 -0.3595 -0.4696
 9653TIP3    H250375   4.586   3.454  10.924 -0.3501 -0.9087  1.2553
 9654TIP3   OH250376   0.246   2.919   4.959 -0.2706  0.2518  0.0981
 9654TIP3    H150377   0.186   2.974   5.010  1.2546 -0.5728  3.0006
 9654TIP3    H250378   0.320   2.976   4.939 -0.4525  0.3124 -0.4216
 9655TIP3   OH250379   3.356   0.461  10.777  0.0627 -0.0499 -0.2730
 9655TIP3    H150380   3.339   0.552  10.802  0.3636  0.5472 -2.0981
 9655TIP3    H250381   3.383   0.466  10.685  0.9103 -1.9052 -0.1685
 9656TIP3   OH250382   5.034   1.462  13.384  0.3366  0.3749 -0.0090
 9656TIP3    H150383   5.071   1.541  13.422  0.5113  1.4417 -2.2409
 9656TIP3    H250384   4.963   1.493  13.327 -2.7271 -1.4388  2.4646
 9657TIP3   OH250385   5.488   1.022  16.022  0.1774 -0.2082 -0.4091
 9657TIP3    H150386   5.475   1.103  15.973 -0.3463 -0.0781 -0.0627
 9657TIP3    H250387   5.561   0.979  15.978 -1.2428 -0.8262 -2.2529
 9658TIP3   OH250388   1.521   5.019   5.643 -0.0715  0.3859  0.2747
 9658TIP3    H150389   1.484   4.990   5.726 -0.1324  0.0985  0.1466
 9658TIP3    H250390   1.448   5.018   5.582  0.4557 -1.9167 -0.4385
 9659TIP3   OH250391   1.798   0.192   3.584  0.3598 -0.2704  0.0282
 9659TIP3    H150392   1.823   0.279   3.551 -1.3568 -0.4928 -2.0506
 9659TIP3    H250393   1.705   0.199   3.602  0.7305 -0.9452  2.6065
 9660TIP3   OH250394   3.304   6.688   4.871  0.1778  0.1831 -0.1332
 9660TIP3    H150395   3.356   6.649   4.941 -1.0602  0.9267  1.2441
 9660TIP3    H250396   3.296   6.781   4.895 -0.3742  0.4326 -1.1898
 9661TIP3   OH250397   5.745   0.324   5.687 -0.3327 -0.0719 -0.3447
 9661TIP3    H150398   5.779   0.275   5.612 -0.9788  1.1103 -1.4493
 9661TIP3    H250399   5.822   0.368   5.724  0.1788 -1.5509  0.4076
 9662TIP3   OH250400   1.922   0.891   4.505 -0.0742 -0.2807  0.4736
 9662TIP3    H150401   1.832   0.861   4.502 -0.7105  1.5572 -0.1786
 9662TIP3    H250402   1.965   0.843   4.434 -0.9714  0.1095 -0.3518
 9663TIP3   OH250403   5.780   6.757  12.467 -0.0015 -0.0114  0.1543
 9663TIP3    H150404   5.811   6.779  12.555 -0.5321  1.5422 -0.0213
 9663TIP3    H250405   5.694   6.719  12.481 -0.3615  0.8355  0.2720
 9664TIP3   OH250406   4.933   5.938  11.520 -0.0568  0.5422  0.4580
 9664TIP3    H150407   4.907   5.902  11.604  0.0821  0.7280  0.5825
 9664TIP3    H250408   4.858   5.989  11.491 -0.5575 -0.4608 -0.0853
 9665TIP3   OH250409   1.775   0.311  16.281 -0.4454  0.6662  0.1732
 9665TIP3    H150410   1.697   0.343  16.327 -0.5794 -0.0116  0.4163
 9665TIP3    H250411   1.754   0.221  16.258 -0.8945  1.3329 -2.3322
 9666TIP3   OH250412   5.863   4.218   1.585  0.4633 -0.6827  0.3001
 9666TIP3    H150413   5.897   4.159   1.652  0.5623 -0.2912  0.5936
 9666TIP3    H250414   5.770   4.196   1.578  1.0581 -3.0908 -1.8402
 9667TIP3   OH250415   0.418   4.401   3.528  0.7220 -0.3439  0.2162
 9667TIP3    H150416   0.325   4.417   3.549  0.6424  1.0867 -1.0246
 9667TIP3    H250417   0.438   4.318   3.570 -0.5974  0.2241  2.1226
 9668TIP3   OH250418   2.490   6.267  12.888  0.6212  0.2115 -0.4183
 9668TIP3    H150419   2.411   6.216  12.869  1.1844 -0.5161 -0.9149
 9668TIP3    H250420   2.521   6.232  12.972 -0.3129  1.4464  0.4682
 9669TIP3   OH250421   3.784   3.650   6.211 -0.6452  0.5997  0.2543
 9669TIP3    H150422   3.796   3.666   6.305  0.0699  0.0297  0.2704
 9669TIP3    H250423   3.851   3.704   6.169 -0.1819 -0.0494  0.1450
 9670TIP3   OH250424   5.358   4.173  12.704 -0.3128  0.0357 -0.0024
 9670TIP3    H150425   5.389   4.247  12.756 -1.7371 -0.3568  1.5073
 9670TIP3    H250426   5.405   4.097  12.740 -0.4771 -0.0918 -0.0557
 9671TIP3   OH250427   4.796   0.389  15.717 -0.3289 -0.0752  0.6407
 9671TIP3    H150428   4.801   0.472  15.764 -0.9461 -1.0129  2.4450
 9671TIP3    H250429   4.836   0.325  15.776  0.6137 -1.0033 -0.9257
 9672TIP3   OH250430   4.732   0.519   6.303  1.0398  0.6598  0.0220
 9672TIP3    H150431   4.689   0.439   6.273  2.0853  0.6081 -1.4277
 9672TIP3    H250432   4.663   0.586   6.300 -0.0341 -0.2621  1.9148
 9673TIP3   OH250433   3.742   1.206  16.598 -0.3242 -0.0796 -0.5719
 9673TIP3    H150434   3.752   1.294  16.634 -0.9343 -0.8117  1.5090
 9673TIP3    H250435   3.774   1.214  16.508 -0.5231  2.2991 -0.5100
 9674TIP3   OH250436   4.019   4.094  15.209  0.2100 -0.0911 -0.0597
 9674TIP3    H150437   3.959   4.161  15.177  1.5051 -0.2589 -3.2401
 9674TIP3    H250438   4.093   4.143  15.244  0.6177  0.2166 -1.2739
 9675TIP3   OH250439   3.050   5.921  11.841  0.1303  0.2044 -0.4135
 9675TIP3    H150440   3.076   5.844  11.892 -0.9387  0.2930  0.3096
 9675TIP3    H250441   3.063   5.995  11.900 -0.6145  0.3667 -0.4386
 9676TIP3   OH250442   1.182   5.257  16.490  0.5314 -0.6575  0.0362
 9676TIP3    H150443   1.140   5.341  16.509 -1.5842 -0.8271 -3.2027
 9676TIP3    H250444   1.270   5.280  16.462 -0.1255  0.5613 -1.1217
 9677TIP3   OH250445   4.306   1.697   1.319 -0.0647  0.2564 -0.0189
 9677TIP3    H150446   4.366   1.771   1.312 -0.0716  0.1520 -1.5241
 9677TIP3    H250447   4.271   1.686   1.231 -1.3132 -0.5078  0.5490
 9678TIP3   OH250448   5.418   3.203   2.626  0.2304  0.2347  0.1246
 9678TIP3    H150449   5.496   3.256   2.641 -0.0978  0.7999 -0.1439
 9678TIP3    H250450   5.389   3.177   2.713  0.2943  0.6433  0.2672
 9679TIP3   OH250451   5.602   5.387  15.007 -0.0646 -0.2950  0.4835
 9679TIP3    H150452   5.560   5.407  15.091 -0.9102 -0.7127  0.1693
 9679TIP3    H250453   5.533   5.397  14.943  0.3887 -0.7386 -0.0849
 9680TIP3   OH250454   6.600   2.088   2.647  0.5450 -0.1213 -0.1171
 9680TIP3    H150455   6.590   2.004   2.603  2.8800 -1.7907  2.2463
 9680TIP3    H250456   6.548   2.149   2.595  3.0312 -1.7880 -5.2152
 9681TIP3   OH250457   5.134   5.047  16.697  0.9080 -0.5951  0.8358
 9681TIP3    H150458   5.146   5.094  16.614 -1.9574 -0.2828  0.5092
 9681TIP3    H250459   5.132   4.955  16.673  1.0937 -0.5739  0.7322
 9682TIP3   OH250460   2.537   0.374   2.403  0.0050  0.6100  0.2585
 9682TIP3    H150461   2.512   0.362   2.311  0.0742 -1.5288  0.4757
 9682TIP3    H250462   2.455   0.366   2.451  0.2805 -0.7171  0.5411
 9683TIP3   OH250463   2.860   0.593   4.577 -0.5843 -0.0254 -0.3579
 9683TIP3    H150464   2.941   0.579   4.528 -0.5626 -0.0788 -0.3065
 9683TIP3    H250465   2.886   0.586   4.669 -0.7450 -0.5545 -0.3514
 9684TIP3   OH250466   5.424   1.982   6.267 -0.1701 -0.6226  0.2667
 9684TIP3    H150467   5.477   1.990   6.187  1.2581 -1.3329  1.1121
 9684TIP3    H250468   5.380   1.898   6.259 -0.5248 -0.4056 -0.0636
 9685TIP3   OH250469   1.673   2.228  13.204  0.0969  0.1442  0.4656
 9685TIP3    H150470   1.764   2.226  13.175  0.2328  0.2719  0.8744
 9685TIP3    H250471   1.653   2.138  13.229  0.1630  0.1510  0.5408
 9686TIP3   OH250472   2.744   2.684  15.584 -0.0710 -0.6834 -0.2312
 9686TIP3    H150473   2.677   2.662  15.648  1.1070 -0.1885  1.2515
 9686TIP3    H250474   2.795   2.604  15.573 -0.8152 -1.0314 -1.2802
 9687TIP3   OH250475   0.474   3.979   5.271 -0.0200 -0.4460 -0.6707
 9687TIP3    H150476   0.439   4.028   5.197 -1.9250 -0.9818 -0.1867
 9687TIP3    H250477   0.475   4.042   5.343  2.0856  0.1516 -1.1482
 9688TIP3   OH250478   0.810   3.663   6.301  0.1993 -0.6574  0.0854
 9688TIP3    H150479   0.788   3.573   6.278 -0.6958 -0.4864  0.2658
 9688TIP3    H250480   0.891   3.655   6.351  0.2345 -1.3391 -0.0637
 9689TIP3   OH250481   3.938   3.133   6.150  0.4672  0.1407 -1.0926
 9689TIP3    H150482   3.963   3.041   6.152  2.0997  0.5611  1.4894
 9689TIP3    H250483   3.957   3.161   6.060 -0.4077 -2.0642 -2.0307
 9690TIP3   OH250484   5.945   3.367  16.280  0.0663  0.4817 -0.3611
 9690TIP3    H150485   5.900   3.289  16.250  0.0058 -0.0433  1.0155
 9690TIP3    H250486   5.921   3.435  16.217  1.3539 -0.9119 -2.4856
 9691TIP3   OH250487   1.793   1.001   1.495  0.1853  0.2125  0.5342
 9691TIP3    H150488   1.737   1.006   1.418  0.9423 -0.5568 -0.0770
 9691TIP3    H250489   1.865   1.061   1.476  0.9598 -0.8182  0.1331
 9692TIP3   OH250490   0.007   3.306  11.015  0.6722 -0.4988 -0.2702
 9692TIP3    H150491  -0.029   3.222  10.989  1.6889 -0.8074 -0.7349
 9692TIP3    H250492  -0.069   3.364  11.022 -0.1484 -1.6630  0.9495
 9693TIP3   OH250493   1.736   4.036  12.621  0.2811  0.7033 -0.8914
 9693TIP3    H150494   1.801   4.031  12.691  0.4692  0.0405 -1.1120
 9693TIP3    H250495   1.773   4.100  12.560  0.0096  1.4558 -0.2907
 9694TIP3   OH250496   3.202   4.112   4.833 -0.4096 -0.4099 -0.0185
 9694TIP3    H150497   3.109   4.131   4.824 -0.4017 -0.0681  0.5556
 9694TIP3    H250498   3.243   4.197   4.847 -0.0300 -0.5737 -0.1196
 9695TIP3   OH250499   5.251   3.258   4.610  0.0413  0.5914  0.5022
 9695TIP3    H150500   5.201   3.337   4.629 -1.7895 -0.6214  1.0056
 9695TIP3    H250501   5.212   3.191   4.665  2.1986 -0.4902  0.8524
 9696TIP3   OH250502   5.096   2.436  12.987  0.2529  0.2468 -0.3271
 9696TIP3    H150503   5.142   2.509  12.945 -0.3250  0.8309  0.0377
 9696TIP3    H250504   5.011   2.472  13.012  0.3781 -0.2305  0.8590
 9697TIP3   OH250505   4.322   1.709   3.786  0.5065 -0.2028  0.3820
 9697TIP3    H150506   4.401   1.704   3.732 -0.6696  1.4048 -1.6379
 9697TIP3    H250507   4.345   1.770   3.857  0.9791  0.5684 -0.4213
 9698TIP3   OH250508   1.293   4.848  15.777  0.1980 -0.3220  0.0503
 9698TIP3    H150509   1.332   4.788  15.713 -1.1184 -1.4026  0.2107
 9698TIP3    H250510   1.329   4.821  15.861 -0.1711 -0.7060  0.0867
 9699TIP3   OH250511   0.998   0.245   4.385 -0.2892 -0.1389 -0.2981
 9699TIP3    H150512   0.972   0.248   4.293 -1.3982 -0.7728 -0.0236
 9699TIP3    H250513   0.990   0.153   4.409  0.3417 -0.0292  0.3407
 9700TIP3   OH250514   0.460   6.021   0.390  0.4304  0.3509  0.5942
 9700TIP3    H150515   0.436   6.098   0.338 -2.6347 -0.1171  1.1081
 9700TIP3    H250516   0.510   5.966   0.329  0.4138  1.5754 -0.5863
 9701TIP3   OH250517   3.127   1.221  12.644  0.1809  0.0855  0.2977
 9701TIP3    H150518   3.099   1.285  12.578 -1.2381 -0.8196 -0.0257
 9701TIP3    H250519   3.149   1.142  12.594  0.9214 -0.0227  0.7759
 9702TIP3   OH250520   6.401   5.661  15.215 -0.3205  0.4864 -0.2841
 9702TIP3    H150521   6.394   5.567  15.198  1.2028 -0.1907  2.2382
 9702TIP3    H250522   6.351   5.702  15.144  0.8350 -2.0861 -2.8024
 9703TIP3   OH250523   1.177   0.685  14.984 -0.6797  0.3901 -0.5348
 9703TIP3    H150524   1.135   0.640  14.911 -2.4022  2.5827 -1.0289
 9703TIP3    H250525   1.105   0.731  15.028  0.7264  1.4116  0.8190
 9704TIP3   OH250526   6.154   2.626   3.181 -0.2566 -0.2212  0.1614
 9704TIP3    H150527   6.197   2.558   3.129 -1.4304 -1.3748  0.6354
 9704TIP3    H250528   6.119   2.688   3.117 -0.3289 -0.7895 -0.3548
 9705TIP3   OH250529   1.505   0.979  13.977 -0.3773 -0.4423  0.3960
 9705TIP3    H150530   1.452   1.043  14.024 -0.2630 -0.1304  0.0979
 9705TIP3    H250531   1.445   0.942  13.911 -0.5119 -0.8166  0.7199
 9706TIP3   OH250532   1.671   0.557  14.960 -0.5028 -0.3775 -0.3780
 9706TIP3    H150533   1.602   0.497  14.989  0.5185 -1.6694 -0.5386
 9706TIP3    H250534   1.679   0.541  14.866 -0.9099  0.7573 -0.6202
 9707TIP3   OH250535   0.005   2.057  17.081 -0.6143 -0.2060  0.2745
 9707TIP3    H150536   0.092   2.060  17.121 -0.9094  0.7460  0.8811
 9707TIP3    H250537  -0.018   2.149  17.067  0.0691 -0.4728 -3.4759
 9708TIP3   OH250538   2.398   3.172   3.538  0.5287 -0.0128  0.4511
 9708TIP3    H150539   2.423   3.112   3.467  1.3545 -1.3276  1.8142
 9708TIP3    H250540   2.303   3.172   3.537  0.5168 -1.3949  0.4544
 9709TIP3   OH250541   2.291   4.088  12.288 -0.1131 -0.1127 -0.8960
 9709TIP3    H150542   2.217   4.134  12.326 -0.3036 -1.7878  0.9702
 9709TIP3    H250543   2.253   4.013  12.242  0.3548 -1.6680  1.0724
 9710TIP3   OH250544   0.388   0.809   3.725 -0.0353 -0.1182 -0.2129
 9710TIP3    H150545   0.365   0.864   3.651 -0.3929 -0.2819 -0.2233
 9710TIP3    H250546   0.385   0.868   3.801 -0.4378 -0.1277 -0.2209
 9711TIP3   OH250547   4.703   2.859   2.292  0.0212 -0.3080 -0.1945
 9711TIP3    H150548   4.626   2.825   2.247 -0.8173  1.7111 -0.4101
 9711TIP3    H250549   4.668   2.921   2.356  1.4468  0.5212 -0.1703
 9712TIP3   OH250550   4.556   1.514  14.731 -0.2836  0.4344 -0.5108
 9712TIP3    H150551   4.584   1.428  14.764  1.1707  1.3590  0.7983
 9712TIP3    H250552   4.464   1.502  14.707 -0.8490 -0.8679  1.9981
 9713TIP3   OH250553   2.307   1.465   0.021  0.4801  0.3047  0.3397
 9713TIP3    H150554   2.342   1.503  -0.060 -0.6025  0.2197 -0.1778
 9713TIP3    H250555   2.258   1.537   0.062  0.5367  0.1811  0.6261
 9714TIP3   OH250556   4.175   6.157   0.312  0.1474  0.1800  0.4051
 9714TIP3    H150557   4.180   6.236   0.258 -1.5547 -0.3275 -0.5641
 9714TIP3    H250558   4.141   6.187   0.396  1.8364  0.8164  0.9074
 9715TIP3   OH250559   0.533   0.632  12.732 -0.6928 -0.2092 -0.0459
 9715TIP3    H150560   0.613   0.594  12.697  0.5225  1.0611  1.2178
 9715TIP3    H250561   0.483   0.556  12.763 -0.5464 -1.1140 -1.8705
 9716TIP3   OH250562   4.017   0.039  16.365  0.7406 -0.4016 -0.3880
 9716TIP3    H150563   4.108   0.064  16.381  0.6322  0.9615 -1.7074
 9716TIP3    H250564   3.966   0.111  16.400  0.1290 -1.2471  0.5136
 9717TIP3   OH250565   3.771   2.947   2.065  0.0764  0.3482 -0.3557
 9717TIP3    H150566   3.685   2.922   2.031 -0.5363  0.3465  1.1356
 9717TIP3    H250567   3.803   2.868   2.109 -0.3603  1.1142  1.4039
 9718TIP3   OH250568   6.791   2.851  15.504 -0.4446 -0.6958 -0.3316
 9718TIP3    H150569   6.853   2.779  15.498 -0.0092 -0.3855  0.2342
 9718TIP3    H250570   6.707   2.814  15.479  0.0408 -1.0235 -1.5114
 9719TIP3   OH250571   4.805   3.445  15.940 -0.3021 -0.5459 -0.2049
 9719TIP3    H150572   4.835   3.372  15.995 -0.6413 -0.1671  0.5053
 9719TIP3    H250573   4.868   3.449  15.869 -0.3247 -1.5826 -0.2975
 9720TIP3   OH250574   3.381   4.143   4.164 -0.5068 -0.1880 -0.0802
 9720TIP3    H150575   3.309   4.205   4.181  0.7339  1.6471 -1.1681
 9720TIP3    H250576   3.400   4.153   4.071  1.3897 -0.3646  0.2506
 9721TIP3   OH250577   3.588   1.917   2.158 -0.0790 -0.0862 -0.0277
 9721TIP3    H150578   3.653   1.969   2.112  1.3113  0.2620  2.1949
 9721TIP3    H250579   3.535   1.878   2.089  0.9977  1.5122 -1.8429
 9722TIP3   OH250580   4.751   1.372   3.819 -0.5026 -0.1324 -0.1051
 9722TIP3    H150581   4.738   1.277   3.818  0.5663 -0.3067  0.3307
 9722TIP3    H250582   4.846   1.382   3.809 -0.7272  0.9331 -1.2953
 9723TIP3   OH250583   6.672   6.698  11.899  0.1022 -0.1915 -0.1009
 9723TIP3    H150584   6.670   6.755  11.976 -0.2848 -0.7313  0.3007
 9723TIP3    H250585   6.763   6.702  11.869  1.0735 -2.2329  2.1631
 9724TIP3   OH250586   1.038   3.202  14.626  0.5500  0.2000 -0.2052
 9724TIP3    H150587   0.945   3.216  14.611  0.4824  2.0672  1.5774
 9724TIP3    H250588   1.047   3.107  14.633 -0.8281 -0.1648 -2.3691
 9725TIP3   OH250589   4.644   2.764   5.798  0.5940  0.2014 -0.2683
 9725TIP3    H150590   4.574   2.734   5.857  0.6768  1.4875  0.5243
 9725TIP3    H250591   4.642   2.702   5.725  1.2461 -2.1812  1.5874
 9726TIP3   OH250592   6.375   6.109   0.774 -0.1459 -0.6566  0.8855
 9726TIP3    H150593   6.425   6.028   0.765 -0.5554 -0.9192  0.9561
 9726TIP3    H250594   6.440   6.174   0.803  0.0765 -1.0817  1.3437
 9727TIP3   OH250595   6.478   0.558  15.563  0.0089 -0.0290 -0.2742
 9727TIP3    H150596   6.393   0.520  15.543 -0.1547 -0.2308  0.7354
 9727TIP3    H250597   6.458   0.638  15.613  0.4038 -1.1188  1.7390
 9728TIP3   OH250598   1.244   4.721   1.594  0.3641  0.3185  0.0162
 9728TIP3    H150599   1.216   4.765   1.513  0.7338  1.6896  0.5975
 9728TIP3    H250600   1.300   4.785   1.637 -0.3273 -0.1400  1.6683
 9729TIP3   OH250601   6.622   5.337  16.122 -0.1351  0.2424  0.0035
 9729TIP3    H150602   6.617   5.242  16.124  0.4350  0.2160  2.1805
 9729TIP3    H250603   6.616   5.359  16.029 -1.4109 -1.8242 -0.4674
 9730TIP3   OH250604   5.524   5.648   2.822 -0.6956  0.3281 -0.4131
 9730TIP3    H150605   5.614   5.673   2.799 -0.7161  0.6127 -0.1936
 9730TIP3    H250606   5.488   5.726   2.865 -0.7865 -0.0569  0.2171
 9731TIP3   OH250607   1.420   1.731   2.904  0.8141 -0.6015  0.2361
 9731TIP3    H150608   1.432   1.660   2.841 -1.3987 -2.1214  1.3768
 9731TIP3    H250609   1.462   1.699   2.984  0.0391 -0.5336  0.6815
 9732TIP3   OH250610   0.408   3.994   4.664 -0.2230  0.5140 -0.2453
 9732TIP3    H150611   0.489   4.022   4.705  1.5740 -2.0379 -1.7855
 9732TIP3    H250612   0.378   3.920   4.717 -0.5898  0.3319 -0.6980
 9733TIP3   OH250613   3.257   4.439  13.393  0.5794  0.3771  0.3960
 9733TIP3    H150614   3.242   4.369  13.456  0.5755 -0.3832 -0.4229
 9733TIP3    H250615   3.315   4.400  13.327  0.6829  1.1824 -0.0041
 9734TIP3   OH250616   5.628   1.416  13.068  0.2737  0.3806  0.1943
 9734TIP3    H150617   5.639   1.326  13.098 -1.1636 -0.0203 -0.4132
 9734TIP3    H250618   5.600   1.408  12.977  2.7144  1.5262 -0.7800
 9735TIP3   OH250619   4.413   5.046   2.014 -0.3185  0.1007 -0.5794
 9735TIP3    H150620   4.421   5.141   2.016 -1.8071  0.2375  0.1213
 9735TIP3    H250621   4.442   5.018   2.101 -0.1026 -0.0731 -0.7062
 9736TIP3   OH250622   6.385   4.811   4.808  0.0169  0.4668 -0.1063
 9736TIP3    H150623   6.404   4.722   4.838 -1.8904  0.8055  2.3899
 9736TIP3    H250624   6.471   4.853   4.801  0.8654 -1.1913 -0.1578
 9737TIP3   OH250625   2.682   3.020   5.093 -0.4367  0.2156  0.2992
 9737TIP3    H150626   2.641   2.973   5.166 -0.1591  0.4506  0.6139
 9737TIP3    H250627   2.687   3.111   5.124  1.6010 -0.0435  0.8544
 9738TIP3   OH250628   0.896   2.419   2.942  0.6152 -0.4405  0.5589
 9738TIP3    H150629   0.801   2.424   2.952  0.0343 -3.3472 -1.9867
 9738TIP3    H250630   0.922   2.346   2.998  1.4292  0.4833  1.4180
 9739TIP3   OH250631   3.213   1.250  16.560 -0.2648 -0.3176 -0.4340
 9739TIP3    H150632   3.299   1.249  16.603 -0.3650  2.2903 -0.0078
 9739TIP3    H250633   3.230   1.214  16.473  1.3423  0.4199 -0.4646
 9740TIP3   OH250634   1.837   0.014  14.717 -0.4204 -0.4130  0.5646
 9740TIP3    H150635   1.760   0.056  14.678 -0.2110  0.1051  0.6893
 9740TIP3    H250636   1.868  -0.046  14.650 -0.3266  0.1405  0.1069
 9741TIP3   OH250637   5.298   6.682  14.925 -0.7220 -0.0124 -0.3275
 9741TIP3    H150638   5.285   6.621  14.998  1.6032 -0.2594 -0.0459
 9741TIP3    H250639   5.365   6.641  14.871  0.7888  2.1537 -0.2333
 9742TIP3   OH250640   5.095   0.602   0.912  0.0352 -0.0389  0.3021
 9742TIP3    H150641   5.181   0.642   0.902 -0.2480  0.2831 -1.0430
 9742TIP3    H250642   5.100   0.554   0.995  1.4251  0.1583  0.3514
 9743TIP3   OH250643   1.023   1.110  13.551 -0.2175 -0.3467  0.1144
 9743TIP3    H150644   1.043   1.161  13.473 -0.6364  0.3318  0.4408
 9743TIP3    H250645   1.049   1.166  13.624 -3.2633  0.6576  0.5761
 9744TIP3   OH250646   4.846   1.270   0.273  0.2227 -0.5605  0.2075
 9744TIP3    H150647   4.809   1.359   0.278  0.6035 -0.3717 -0.2437
 9744TIP3    H250648   4.779   1.214   0.312  0.3377  0.0235  1.2789
 9745TIP3   OH250649   4.895   5.261  12.612  0.9924 -0.1939  0.1112
 9745TIP3    H150650   4.850   5.248  12.696  1.2997 -0.8687  0.1777
 9745TIP3    H250651   4.988   5.250  12.632  1.2263  1.3802  0.0096
 9746TIP3   OH250652   4.575   6.062  17.005 -0.1122  0.1892 -0.1999
 9746TIP3    H150653   4.561   6.156  17.019 -0.3858  0.5504 -2.5171
 9746TIP3    H250654   4.652   6.057  16.949 -0.6303 -0.9080 -0.8457
 9747TIP3   OH250655   1.127   4.147  10.757 -0.1792 -0.3796  0.3847
 9747TIP3    H150656   1.147   4.113  10.845  1.6715 -0.6021 -0.0822
 9747TIP3    H250657   1.207   4.192  10.730 -1.2374  1.0088 -0.6058
 9748TIP3   OH250658   6.315   6.390   2.645 -0.1542 -0.6379  0.4142
 9748TIP3    H150659   6.322   6.354   2.556  0.5920 -2.2535  1.0870
 9748TIP3    H250660   6.400   6.432   2.660 -0.8698  1.1312 -0.2079
 9749TIP3   OH250661   3.563   3.584  13.985 -0.1651  0.4501  0.6290
 9749TIP3    H150662   3.591   3.675  13.972 -1.4711  0.9599  1.1661
 9749TIP3    H250663   3.577   3.543  13.900  2.7746  0.4468  1.0192
 9750TIP3   OH250664   4.853   5.433   6.290 -0.2029  0.7246 -0.0987
 9750TIP3    H150665   4.772   5.396   6.326 -0.0092 -0.6854 -1.0826
 9750TIP3    H250666   4.880   5.497   6.356 -0.8081 -0.5156  1.4157
 9751TIP3   OH250667   6.252   2.097   3.182 -0.1926  0.3016 -0.0971
 9751TIP3    H150668   6.194   2.123   3.254  1.9502 -0.3654  2.0305
 9751TIP3    H250669   6.272   2.005   3.200  0.9150  0.3085 -1.1702
 9752TIP3   OH250670   3.297   1.339  12.379  0.6152  0.6141 -0.0254
 9752TIP3    H150671   3.297   1.427  12.340 -0.2194  0.9290  0.6403
 9752TIP3    H250672   3.371   1.340  12.439  0.0539  1.2071  0.6813
 9753TIP3   OH250673   3.217   5.734   1.006  0.0910 -0.1707 -0.6510
 9753TIP3    H150674   3.200   5.763   1.095  2.5909  0.8152 -0.4138
 9753TIP3    H250675   3.277   5.660   1.015  0.7156  0.2106 -1.5146
 9754TIP3   OH250676   1.340   3.681  14.309 -0.0018  0.2231 -0.1740
 9754TIP3    H150677   1.348   3.773  14.335  3.4623 -0.5639  2.2565
 9754TIP3    H250678   1.424   3.660  14.270 -0.7715 -1.9372 -0.8086
 9755TIP3   OH250679   2.558   4.985   1.001 -0.1224 -0.0933  0.1068
 9755TIP3    H150680   2.526   5.004   0.913 -0.6039 -1.6367 -0.0924
 9755TIP3    H250681   2.556   5.069   1.047  0.8272  0.8728 -1.5489
 9756TIP3   OH250682   5.142   2.093  15.016 -0.0441  0.0365  0.2919
 9756TIP3    H150683   5.188   2.040  14.951  0.6353 -1.6101  2.0011
 9756TIP3    H250684   5.126   2.176  14.973 -2.3402 -1.9029 -3.0227
 9757TIP3   OH250685   4.199   1.673   5.118  0.2914 -0.0669 -0.1673
 9757TIP3    H150686   4.166   1.589   5.086 -0.3404  0.1117  0.0147
 9757TIP3    H250687   4.294   1.662   5.116  0.2131 -0.9405  0.2657
 9758TIP3   OH250688   2.543   3.751   2.941 -0.2108  0.4013 -0.4875
 9758TIP3    H150689   2.519   3.821   2.881  1.7933  1.5330 -0.0575
 9758TIP3    H250690   2.612   3.703   2.896 -0.1686 -0.0507  0.0478
 9759TIP3   OH250691   3.850   4.154   3.799  0.2291  0.1946  0.0829
 9759TIP3    H150692   3.915   4.162   3.729  1.0298  0.6796  0.8591
 9759TIP3    H250693   3.803   4.073   3.780  0.3471  0.3938 -1.0841
 9760TIP3   OH250694   4.588   5.635  16.225  0.3059  0.7190  0.0917
 9760TIP3    H150695   4.540   5.581  16.162  1.7283  0.6260 -0.9861
 9760TIP3    H250696   4.680   5.616  16.206  0.7884  0.8700  2.0780
 9761TIP3   OH250697   6.325   3.567  14.720  0.4462  0.0198 -0.1885
 9761TIP3    H150698   6.333   3.491  14.778 -0.8534  1.2967  1.7837
 9761TIP3    H250699   6.256   3.542  14.658 -2.5060  0.6429  2.5354
 9762TIP3   OH250700   5.969   4.736   0.269 -0.0594  0.1688  0.1431
 9762TIP3    H150701   6.055   4.726   0.309  0.4351  0.3708 -0.8306
 9762TIP3    H250702   5.988   4.745   0.175 -1.1157  0.5656 -0.0391
 9763TIP3   OH250703   4.150   4.546   0.024 -0.3599  0.9628 -0.7298
 9763TIP3    H150704   4.138   4.632   0.064 -0.8223  0.3888  0.4008
 9763TIP3    H250705   4.113   4.484   0.087  0.0805 -0.0866 -1.4648
 9764TIP3   OH250706   5.921   3.977  14.764  0.2003 -0.0522 -0.3342
 9764TIP3    H150707   6.002   4.000  14.717  0.9596 -0.7985  0.5615
 9764TIP3    H250708   5.888   3.901  14.717  1.1569 -1.0262  0.5092
 9765TIP3   OH250709   1.865   6.619  15.478  0.4246  0.1105  0.1084
 9765TIP3    H150710   1.899   6.709  15.477  0.5816  0.0499 -0.2950
 9765TIP3    H250711   1.909   6.578  15.552 -1.6764  1.1177  2.0267
 9766TIP3   OH250712   4.946   5.418   1.283  0.0106  0.6807  0.0147
 9766TIP3    H150713   4.874   5.355   1.293  1.1521 -0.4518  1.4749
 9766TIP3    H250714   4.909   5.501   1.313 -0.5677  0.0182  1.1986
 9767TIP3   OH250715   5.663   2.784   5.048 -0.6682  0.5892 -0.6255
 9767TIP3    H150716   5.737   2.739   5.090 -0.9514 -1.0655 -1.7999
 9767TIP3    H250717   5.701   2.866   5.015  0.5609 -0.0446 -0.8547
 9768TIP3   OH250718   0.458   3.481   3.413  0.0314 -0.0047  0.7205
 9768TIP3    H150719   0.392   3.528   3.362 -0.8833 -0.5292  1.4096
 9768TIP3    H250720   0.440   3.389   3.396  1.4312 -0.1572 -0.1307
 9769TIP3   OH250721   2.295   1.595   4.961 -0.1043  0.0228 -0.1161
 9769TIP3    H150722   2.346   1.675   4.951  0.6635 -0.1127  2.2571
 9769TIP3    H250723   2.220   1.621   5.015 -1.0959 -0.4080 -1.2240
 9770TIP3   OH250724   0.438   1.478  12.173 -0.0837 -0.2134  0.3361
 9770TIP3    H150725   0.512   1.453  12.229  0.6889 -2.0804 -1.4033
 9770TIP3    H250726   0.470   1.552  12.122 -1.2047  2.3499  3.0581
 9771TIP3   OH250727   2.122   1.200   3.226 -0.0807 -0.3345  0.2113
 9771TIP3    H150728   2.028   1.189   3.213 -0.5751 -0.0138  2.8243
 9771TIP3    H250729   2.128   1.264   3.297  2.0916 -0.6484  0.3609
 9772TIP3   OH250730   3.162   4.606   2.931  0.2153  0.6740 -0.6905
 9772TIP3    H150731   3.252   4.578   2.948  0.2089  0.4663 -0.9943
 9772TIP3    H250732   3.108   4.542   2.979  0.2147  0.4608 -0.9740
 9773TIP3   OH250733   1.498   5.050   6.074  0.8027  0.3000 -0.2204
 9773TIP3    H150734   1.443   5.015   6.144  1.4661 -2.0958 -0.8127
 9773TIP3    H250735   1.465   5.008   5.994  2.3381  0.1798 -0.8261
 9774TIP3   OH250736   5.164   2.892   1.535 -0.1320 -0.5198 -0.3814
 9774TIP3    H150737   5.240   2.844   1.566 -1.1380 -2.0886 -0.2172
 9774TIP3    H250738   5.098   2.825   1.518 -1.0003  0.6499 -1.9409
 9775TIP3   OH250739   2.183   2.769   2.940 -0.6518 -0.5213  0.7541
 9775TIP3    H150740   2.215   2.859   2.934 -1.0130 -0.4750 -3.1414
 9775TIP3    H250741   2.094   2.778   2.973 -0.6010  0.5411  0.6512
 9776TIP3   OH250742   1.975   4.710  13.518  0.0616  0.5235 -0.3798
 9776TIP3    H150743   2.013   4.705  13.606  1.4661  0.5659 -0.9507
 9776TIP3    H250744   1.898   4.764  13.528 -0.8495 -0.9655  1.1581
 9777TIP3   OH250745   2.782   2.170   4.309  0.0567 -0.0793 -0.1190
 9777TIP3    H150746   2.783   2.075   4.312 -0.3959 -0.0842 -0.0358
 9777TIP3    H250747   2.813   2.198   4.395  2.0782 -0.1316 -0.7748
 9778TIP3   OH250748   1.678   4.575  12.524 -1.0440  0.7235 -0.6978
 9778TIP3    H150749   1.694   4.577  12.618 -0.9179  0.8079 -0.7214
 9778TIP3    H250750   1.680   4.666  12.497 -0.2293  0.6522 -0.9234
 9779TIP3   OH250751   2.616   6.097  15.091 -0.5367 -0.1219 -0.4930
 9779TIP3    H150752   2.646   6.183  15.063 -1.5812  0.5804  0.4784
 9779TIP3    H250753   2.688   6.063  15.145  0.0408 -0.0428 -1.2003
 9780TIP3   OH250754   1.848   0.640  12.413 -0.1567  0.3671  0.2610
 9780TIP3    H150755   1.831   0.718  12.360  0.2362  0.7411  0.6761
 9780TIP3    H250756   1.931   0.607  12.379 -0.3834  0.0542  0.0033
 9781TIP3   OH250757   4.011   0.469  17.060  0.6438 -0.2141  0.2666
 9781TIP3    H150758   4.095   0.516  17.063  0.8599 -0.5339 -0.4049
 9781TIP3    H250759   3.978   0.486  16.972  0.9300 -1.6307 -0.1578
 9782TIP3   OH250760   0.275   0.649  10.969  0.2802 -0.2724 -0.2290
 9782TIP3    H150761   0.302   0.733  11.005 -2.8102  1.3339 -1.3396
 9782TIP3    H250762   0.256   0.594  11.045 -1.4338  1.4109  0.6304
 9783TIP3   OH250763   1.466   0.035   0.429  0.3891 -0.1921 -0.4102
 9783TIP3    H150764   1.539   0.090   0.402  1.7260 -2.2672 -1.3083
 9783TIP3    H250765   1.392   0.095   0.437  2.0950  1.9490  0.2879
 9784TIP3   OH250766   1.821   6.197  11.956 -0.3552 -0.4606 -0.5480
 9784TIP3    H150767   1.777   6.139  12.019 -0.9131  0.1369 -0.3743
 9784TIP3    H250768   1.899   6.226  12.002 -1.4100  1.0051  0.4245
 9785TIP3   OH250769   6.510   3.760   5.182 -0.2115 -0.0182  0.1837
 9785TIP3    H150770   6.453   3.705   5.127  2.0407  1.2162 -3.7253
 9785TIP3    H250771   6.459   3.840   5.197 -0.3043  0.2775 -1.5625
 9786TIP3   OH250772   4.777   4.026  16.629 -0.2591  0.1065  0.5583
 9786TIP3    H150773   4.683   4.014  16.616 -0.1319 -0.6337  0.2467
 9786TIP3    H250774   4.817   3.954  16.580  0.4382 -0.0151  1.2924
 9787TIP3   OH250775   3.353   6.334   3.442 -0.2957 -0.7572  0.0013
 9787TIP3    H150776   3.382   6.268   3.505 -1.6635  0.2559  1.7632
 9787TIP3    H250777   3.355   6.416   3.491  2.0484  0.7266 -2.3213
 9788TIP3   OH250778   0.519   6.428  13.346 -0.4063 -0.1861 -0.7122
 9788TIP3    H150779   0.552   6.509  13.308  1.7935 -0.6764 -0.0090
 9788TIP3    H250780   0.522   6.365  13.274  0.5416 -0.2921 -0.5967
 9789TIP3   OH250781   2.875   2.124  13.383 -0.0989  0.2576  0.1268
 9789TIP3    H150782   2.840   2.042  13.419 -2.4833 -0.5832 -3.5032
 9789TIP3    H250783   2.830   2.193  13.431 -0.2792 -0.6274  1.2683
 9790TIP3   OH250784   4.155   2.472  12.958 -0.0065 -0.7507 -0.5256
 9790TIP3    H150785   4.184   2.389  12.920 -0.6101 -1.0267 -0.4008
 9790TIP3    H250786   4.194   2.539  12.902 -0.5830 -1.1467 -1.4183
 9791TIP3   OH250787   1.216   3.403   4.325 -0.6036  0.5982  0.5957
 9791TIP3    H150788   1.298   3.417   4.277 -1.4751  1.6585 -0.6605
 9791TIP3    H250789   1.218   3.469   4.395  0.1794 -0.2374  1.3889
 9792TIP3   OH250790   1.712   0.346  16.653 -0.1170  0.3975  0.1111
 9792TIP3    H150791   1.744   0.379  16.736 -0.1902  1.7274 -0.3743
 9792TIP3    H250792   1.772   0.274  16.631 -0.2223 -0.1111  1.3855
 9793TIP3   OH250793   5.245   1.452   1.268  0.0886 -0.5749 -0.4001
 9793TIP3    H150794   5.246   1.455   1.363 -0.9528 -1.2842 -0.3537
 9793TIP3    H250795   5.187   1.379   1.246 -1.8106  1.1721 -1.5824
 9794TIP3   OH250796   5.524   0.492   2.509 -0.4462  0.2492 -0.2435
 9794TIP3    H150797   5.441   0.534   2.532 -0.3836  0.8507 -1.0734
 9794TIP3    H250798   5.516   0.473   2.416 -0.7408 -2.2488  0.2353
 9795TIP3   OH250799   4.293   0.882  16.836  0.0676  0.4086 -0.2392
 9795TIP3    H150800   4.298   0.804  16.892 -0.3475 -0.1220 -0.9247
 9795TIP3    H250801   4.226   0.937  16.877 -0.3495 -0.0506 -0.2982
 9796TIP3   OH250802   2.861   1.496   3.925  0.6810 -0.3720 -0.2359
 9796TIP3    H150803   2.769   1.491   3.951  0.6289  1.2150 -0.0098
 9796TIP3    H250804   2.909   1.485   4.007  0.6707 -0.3980 -0.2332
 9797TIP3   OH250805   6.645   2.803  11.592  0.0639 -0.4376 -0.1468
 9797TIP3    H150806   6.641   2.774  11.683 -0.7925  0.5636  0.1562
 9797TIP3    H250807   6.717   2.865  11.589  0.9930 -1.5062 -0.4811
 9798TIP3   OH250808   4.073   6.735  16.978 -0.4088  0.1077  0.2582
 9798TIP3    H150809   4.129   6.753  16.902  0.8087 -1.0764  0.8208
 9798TIP3    H250810   4.018   6.662  16.950 -0.8963  0.5343  0.0866
 9799TIP3   OH250811   6.622   1.279   4.980 -0.3692  0.0417 -0.1814
 9799TIP3    H150812   6.698   1.249   4.930 -1.8759 -0.6712 -2.1361
 9799TIP3    H250813   6.620   1.374   4.966  0.0839  0.0452 -0.2321
 9800TIP3   OH250814   2.727   1.729   4.191 -0.2020  0.4790  0.3365
 9800TIP3    H150815   2.786   1.803   4.204  0.6532 -0.2601  0.7770
 9800TIP3    H250816   2.706   1.699   4.279 -1.7015  1.0506  0.2203
 9801TIP3   OH250817   0.420   6.586  11.188 -0.3593 -0.4691 -0.5247
 9801TIP3    H150818   0.421   6.670  11.141  0.3025  0.2590  0.7192
 9801TIP3    H250819   0.458   6.607  11.274  3.5343 -2.7817 -1.4370
 9802TIP3   OH250820   5.440   4.184  16.463  0.7417 -0.1426  0.1136
 9802TIP3    H150821   5.407   4.213  16.548  2.4249  0.5508  0.5921
 9802TIP3    H250822   5.533   4.209  16.464  0.6394  0.6369 -2.2382
 9803TIP3   OH250823   5.420   3.663   3.300  0.2280 -0.0208 -0.2822
 9803TIP3    H150824   5.453   3.730   3.360 -1.6885  0.3023  0.4745
 9803TIP3    H250825   5.494   3.603   3.287  1.1318  0.7330  1.1999
 9804TIP3   OH250826   4.423   5.544   5.199  0.0438 -0.2199  0.1777
 9804TIP3    H150827   4.448   5.460   5.160 -0.6131 -0.3163 -0.0481
 9804TIP3    H250828   4.331   5.556   5.174  0.1178  0.5429  0.2501
 9805TIP3   OH250829   6.002   3.894   0.541  0.0664 -0.0843  0.0541
 9805TIP3    H150830   6.036   3.976   0.576  0.4518 -0.2793  0.1422
 9805TIP3    H250831   6.039   3.887   0.453 -0.8399  0.3681 -0.3801
 9806TIP3   OH250832   0.540   1.301   4.420 -0.1849 -0.4899  0.2594
 9806TIP3    H150833   0.551   1.395   4.430  0.8313 -0.6933  1.1612
 9806TIP3    H250834   0.540   1.287   4.325  0.7718  0.2893  0.1326
 9807TIP3   OH250835   3.918   2.330   2.950  0.2792 -0.3668 -0.0701
 9807TIP3    H150836   3.975   2.362   3.019  1.5079 -2.1280 -0.2016
 9807TIP3    H250837   3.850   2.280   2.997 -0.8581  1.2188  0.0438
 9808TIP3   OH250838   1.848   0.564  14.097 -0.0707 -0.0778 -0.3574
 9808TIP3    H150839   1.813   0.641  14.052 -0.6483 -0.3090 -0.3105
 9808TIP3    H250840   1.811   0.569  14.185  0.0911 -0.2733 -0.2783
 9809TIP3   OH250841   0.447   1.440  10.720  0.2803  0.1666  0.3140
 9809TIP3    H150842   0.367   1.396  10.690  0.9007 -2.3370  1.9671
 9809TIP3    H250843   0.487   1.377  10.780  3.2659  1.5386 -0.0813
 9810TIP3   OH250844   1.859   0.841   3.152 -0.0329  0.4730 -0.1385
 9810TIP3    H150845   1.786   0.903   3.151 -2.2583 -1.9544  0.3228
 9810TIP3    H250846   1.828   0.767   3.102  1.5875 -1.2416  1.2402
 9811TIP3   OH250847   2.665   0.245  14.044 -0.4683 -0.5802  0.0953
 9811TIP3    H150848   2.615   0.163  14.042 -0.5376 -0.5276 -0.6103
 9811TIP3    H250849   2.622   0.300  13.978  0.1913 -0.3392 -0.1411
 9812TIP3   OH250850   2.781   4.211  16.623 -0.1678 -0.0189 -0.2689
 9812TIP3    H150851   2.726   4.152  16.676 -0.6676 -0.1737 -0.9464
 9812TIP3    H250852   2.729   4.291  16.616  0.8486  0.8288  1.3239
 9813TIP3   OH250853   4.382   6.221   5.799  0.8268 -0.4790 -0.1219
 9813TIP3    H150854   4.411   6.138   5.760  0.2739 -1.3537  1.2528
 9813TIP3    H250855   4.346   6.196   5.884 -2.0576  0.7753 -0.8394
 9814TIP3   OH250856   3.970   3.642  11.955  0.0517  0.2015  0.3773
 9814TIP3    H150857   3.910   3.715  11.964  0.7604  1.1143 -1.6007
 9814TIP3    H250858   3.921   3.577  11.904  0.1413  0.1865  0.3103
 9815TIP3   OH250859   0.800   2.130   4.767  0.2068 -0.5766 -0.1303
 9815TIP3    H150860   0.894   2.136   4.755  0.0544  0.1726 -1.0966
 9815TIP3    H250861   0.772   2.064   4.702  0.1431 -1.3205  0.6387
 9816TIP3   OH250862   0.906   1.302   1.972  0.2263 -0.5823 -0.3614
 9816TIP3    H150863   0.829   1.303   1.915 -0.6469  2.6027  0.7008
 9816TIP3    H250864   0.980   1.317   1.912 -0.2453 -0.9652 -1.0537
 9817TIP3   OH250865   5.908   1.174   3.592 -0.4508 -0.0691 -0.0546
 9817TIP3    H150866   5.851   1.251   3.581 -0.6149 -0.4850 -3.3974
 9817TIP3    H250867   5.876   1.131   3.671 -3.0027  1.1934 -0.2990
 9818TIP3   OH250868   0.241   0.550   4.013  0.3825 -0.0749  0.2065
 9818TIP3    H150869   0.195   0.601   4.081  0.9364  1.7965 -0.7661
 9818TIP3    H250870   0.177   0.543   3.942 -0.1941 -2.0286  0.8693
 9819TIP3   OH250871   4.456   4.596  11.169 -0.4632 -0.1948  0.5771
 9819TIP3    H150872   4.436   4.663  11.104 -0.0503  0.3214  0.9767
 9819TIP3    H250873   4.552   4.592  11.171 -0.4730 -1.4141 -0.0674
 9820TIP3   OH250874   3.482   5.538  16.141  0.2980 -0.3177 -0.0541
 9820TIP3    H150875   3.516   5.451  16.163 -0.2931 -1.2033 -2.3315
 9820TIP3    H250876   3.524   5.560  16.058 -0.2515  1.1862  0.0369
 9821TIP3   OH250877   1.912   1.716  12.546 -0.3555  0.0212 -0.4781
 9821TIP3    H150878   1.842   1.749  12.603  0.2968 -0.3702  0.5709
 9821TIP3    H250879   1.883   1.739  12.458 -1.4520  0.5281 -0.0089
 9822TIP3   OH250880   1.412   5.740   0.093  0.0236  0.1882  0.3979
 9822TIP3    H150881   1.357   5.663   0.079  1.0217 -0.6251  0.8266
 9822TIP3    H250882   1.501   5.709   0.076  0.2784  1.8086 -1.7051
 9823TIP3   OH250883   3.714   0.866  13.584  0.3083  0.0814 -0.1610
 9823TIP3    H150884   3.801   0.846  13.549  0.8599  0.6827  0.8378
 9823TIP3    H250885   3.657   0.800  13.544  1.0660  0.1613 -1.4503
 9824TIP3   OH250886   0.111   3.887  14.689 -0.2040 -0.5708  0.0283
 9824TIP3    H150887   0.144   3.824  14.753 -1.9556 -1.7370 -0.1597
 9824TIP3    H250888   0.178   3.889  14.621  0.5424 -1.1436  0.7274
 9825TIP3   OH250889   6.051   0.210  13.142 -0.1449  0.0283  0.3751
 9825TIP3    H150890   6.075   0.134  13.088  2.0127  0.2553  0.9382
 9825TIP3    H250891   6.002   0.173  13.215  1.1276 -0.8794  0.7943
 9826TIP3   OH250892   0.029   0.772   3.485 -0.0256 -0.0491  0.2215
 9826TIP3    H150893   0.059   0.703   3.545  0.1257 -0.3341 -0.1730
 9826TIP3    H250894   0.026   0.729   3.400  2.3559  1.0153 -0.4922
 9827TIP3   OH250895   3.408   6.281   2.763 -0.5003  0.1051  0.5423
 9827TIP3    H150896   3.378   6.330   2.686  3.2678  3.6651  0.9948
 9827TIP3    H250897   3.400   6.342   2.836  0.7744 -1.3320  1.9811
 9828TIP3   OH250898   5.274   5.633   0.771  0.8682  0.2540  0.1592
 9828TIP3    H150899   5.358   5.612   0.811  0.9716 -0.3533 -0.3718
 9828TIP3    H250900   5.208   5.596   0.831  1.0342 -1.1562 -0.5033
 9829TIP3   OH250901   6.097   4.955  14.306  0.9127 -0.0149 -0.4475
 9829TIP3    H150902   6.115   4.904  14.385  0.2796 -1.3509 -1.1263
 9829TIP3    H250903   6.171   5.015  14.298  1.0100  0.1132  1.1155
 9830TIP3   OH250904   0.363   1.247  15.010 -0.0272  0.4142  0.9667
 9830TIP3    H150905   0.355   1.321  14.951  3.0232  0.7211  0.7791
 9830TIP3    H250906   0.325   1.278  15.092 -3.6436  0.2328 -0.4362
 9831TIP3   OH250907   4.656   4.129   0.032 -0.2624 -0.0470  0.1059
 9831TIP3    H150908   4.664   4.186   0.109 -0.7468 -2.0972  1.7701
 9831TIP3    H250909   4.562   4.120   0.019 -0.1835  0.1211 -0.6309
 9832TIP3   OH250910   6.637   4.605   5.912 -0.4614 -0.1575  0.5057
 9832TIP3    H150911   6.730   4.626   5.911 -0.4167 -0.3563 -0.1159
 9832TIP3    H250912   6.621   4.569   5.999 -0.0570  0.2911  0.7715
 9833TIP3   OH250913   1.062   6.712   0.560  0.2451 -0.5891 -0.4232
 9833TIP3    H150914   1.008   6.696   0.483 -1.1231 -1.0086  0.5724
 9833TIP3    H250915   1.082   6.625   0.595  0.6538 -0.3998 -0.1713
 9834TIP3   OH250916   4.391   4.301  16.625  0.3188 -0.2782 -0.1766
 9834TIP3    H150917   4.409   4.210  16.648  0.0065 -0.3160 -0.0754
 9834TIP3    H250918   4.412   4.351  16.705  1.7333 -0.1025 -0.6249
 9835TIP3   OH250919   4.747   0.973   5.709  0.3808  0.0244  0.2071
 9835TIP3    H150920   4.687   0.901   5.727  0.7424 -0.3536 -0.0705
 9835TIP3    H250921   4.803   0.940   5.639 -0.5370  1.1897 -1.1209
 9836TIP3   OH250922   1.760   6.408  14.783  0.5308 -0.3614 -0.5669
 9836TIP3    H150923   1.782   6.317  14.762 -1.7603 -0.7452 -1.6042
 9836TIP3    H250924   1.775   6.416  14.877  1.8470 -1.4424 -0.6469
 9837TIP3   OH250925   1.284   4.924   5.081 -0.0641  0.6002 -0.5258
 9837TIP3    H150926   1.358   4.875   5.117  0.7853  0.6730 -2.0960
 9837TIP3    H250927   1.259   4.876   5.002 -1.5943  0.6859 -0.1377
 9838TIP3   OH250928   0.347   6.722   5.727 -0.1964 -0.4135 -0.6412
 9838TIP3    H150929   0.271   6.691   5.776 -1.1267  0.3369 -1.5749
 9838TIP3    H250930   0.421   6.712   5.788 -0.9968 -1.3456  0.2028
 9839TIP3   OH250931   2.318   2.919  11.183  0.3133  0.0208  0.0549
 9839TIP3    H150932   2.353   2.847  11.131 -0.0054  0.0037 -0.1430
 9839TIP3    H250933   2.312   2.884  11.272 -0.4371 -0.4143 -0.1576
 9840TIP3   OH250934   4.302   1.245  12.447  0.0115 -0.1139 -0.0775
 9840TIP3    H150935   4.313   1.339  12.435  0.3747  0.0770  1.5336
 9840TIP3    H250936   4.380   1.206  12.409 -0.8946  0.0660 -2.2601
 9841TIP3   OH250937   1.808   3.970  13.510 -0.5401 -0.0828 -0.1113
 9841TIP3    H150938   1.821   4.029  13.436 -1.2133 -0.7297 -0.7589
 9841TIP3    H250939   1.865   3.895  13.491  1.3775  0.8844  1.3766
 9842TIP3   OH250940   3.558   6.018  12.842 -0.2624 -0.2220 -0.2863
 9842TIP3    H150941   3.556   5.926  12.866 -2.1753 -1.0153 -2.9927
 9842TIP3    H250942   3.466   6.041  12.828  0.3252  1.4564 -1.7505
 9843TIP3   OH250943   0.829   4.217  15.736 -0.1091  0.1236 -0.2251
 9843TIP3    H150944   0.870   4.303  15.749  0.3196 -0.2700  1.1332
 9843TIP3    H250945   0.896   4.154  15.762 -0.6514 -0.6144 -0.5833
 9844TIP3   OH250946   4.563   5.339   5.085  0.2083 -0.4138 -0.3023
 9844TIP3    H150947   4.654   5.318   5.066  0.3050 -0.6893  0.4378
 9844TIP3    H250948   4.521   5.254   5.098 -0.3217 -0.3291 -1.3427
 9845TIP3   OH250949   4.255   4.343  14.345  0.2312 -0.2946 -0.0882
 9845TIP3    H150950   4.227   4.360  14.256 -0.4240  1.6336  0.4410
 9845TIP3    H250951   4.338   4.388  14.354 -0.0215  0.0826  0.4479
 9846TIP3   OH250952   3.565   1.007  15.042 -0.3573  0.3802 -0.3784
 9846TIP3    H150953   3.472   0.991  15.025 -0.5163  2.6237 -2.0597
 9846TIP3    H250954   3.575   0.990  15.136 -2.4217 -0.0583 -0.1862
 9847TIP3   OH250955   2.465   2.239   1.319  0.2023  0.6706 -0.3025
 9847TIP3    H150956   2.531   2.169   1.313  1.8188  2.1941 -1.2646
 9847TIP3    H250957   2.442   2.257   1.228 -0.9403  0.7421 -0.0106
 9848TIP3   OH250958   5.002   2.741  13.900 -0.0995  0.0261 -0.0667
 9848TIP3    H150959   4.965   2.799  13.965 -1.4409  1.8067 -2.2762
 9848TIP3    H250960   4.937   2.738  13.830  1.9861 -0.3677 -2.1220
 9849TIP3   OH250961   5.068   6.266   2.660  0.2579  0.3627 -0.0717
 9849TIP3    H150962   4.985   6.248   2.615 -0.2413  0.5599  0.7397
 9849TIP3    H250963   5.043   6.277   2.752  0.8629  2.7171 -0.1389
 9850TIP3   OH250964   4.628   6.741   2.348 -0.7560  0.6290 -0.7507
 9850TIP3    H150965   4.689   6.796   2.299  1.3738  0.2172  1.2738
 9850TIP3    H250966   4.588   6.801   2.411 -1.0438  0.5271 -0.8372
 9851TIP3   OH250967   6.144   6.493   6.327 -0.0335  0.2217 -0.0614
 9851TIP3    H150968   6.089   6.539   6.264 -0.7024 -1.2857 -0.6216
 9851TIP3    H250969   6.230   6.491   6.287 -0.0764  0.6714 -0.1816
 9852TIP3   OH250970   0.537   0.224  16.552  0.1940 -0.1233  0.1577
 9852TIP3    H150971   0.499   0.176  16.478 -2.3708  0.4424  0.9978
 9852TIP3    H250972   0.572   0.156  16.610  0.8710 -0.6510 -0.8478
 9853TIP3   OH250973   0.349   2.633   0.983  0.1807  0.1747  0.2588
 9853TIP3    H150974   0.283   2.625   1.052  0.2490 -0.4189  0.2672
 9853TIP3    H250975   0.413   2.695   1.018  0.3820 -0.3604  0.8825
 9854TIP3   OH250976   3.928   4.507   1.592  0.5531  0.4768 -0.1228
 9854TIP3    H150977   3.875   4.540   1.665  1.2038  0.2142  0.4720
 9854TIP3    H250978   3.864   4.465   1.534  0.4123 -3.1906  2.3724
 9855TIP3   OH250979   5.135   0.937   5.760 -0.1810  0.8335  0.0419
 9855TIP3    H150980   5.184   1.018   5.771 -0.7607  1.2015  0.0051
 9855TIP3    H250981   5.096   0.945   5.672  0.4501  0.1284 -0.3107
 9856TIP3   OH250982   1.000   1.577  13.488 -0.6802 -0.3870 -0.6382
 9856TIP3    H150983   0.955   1.591  13.571  0.3115 -0.5898 -0.0508
 9856TIP3    H250984   1.047   1.659  13.472  1.2521 -1.2318  0.3664
 9857TIP3   OH250985   3.517   3.252  14.547  0.1497 -0.0173  0.6430
 9857TIP3    H150986   3.609   3.239  14.523  0.2173 -0.5833  1.1735
 9857TIP3    H250987   3.520   3.309  14.624  0.0782 -0.3326  0.8802
 9858TIP3   OH250988   0.997   2.268   1.288 -0.0635  0.7586  0.4744
 9858TIP3    H150989   0.922   2.223   1.249 -0.8804  3.3040 -1.1539
 9858TIP3    H250990   1.069   2.205   1.280 -1.5131 -0.9241  0.0307
 9859TIP3   OH250991   2.278   0.479   0.193  0.5082  0.0677  0.2633
 9859TIP3    H150992   2.337   0.507   0.123  0.2009 -0.5725 -0.2639
 9859TIP3    H250993   2.226   0.557   0.212  0.3198  0.1416 -0.5084
 9860TIP3   OH250994   3.700   6.603   5.403  0.1869 -0.0780 -0.7928
 9860TIP3    H150995   3.607   6.618   5.387  0.1177 -0.2508 -0.5490
 9860TIP3    H250996   3.744   6.651   5.332 -0.0762  0.2220 -0.7546
 9861TIP3   OH250997   0.296   5.634  16.427 -0.1486 -0.1035 -1.0457
 9861TIP3    H150998   0.340   5.553  16.452  0.1352  0.2227 -0.4387
 9861TIP3    H250999   0.361   5.702  16.443 -1.2126  0.5208  1.0141
 9862TIP3   OH251000   3.322   6.157  14.170 -0.4058  0.2916  0.9519
 9862TIP3    H151001   3.294   6.218  14.103  0.3089  0.5371  0.8717
 9862TIP3    H251002   3.309   6.204  14.253  2.4813  1.5641  0.7886
 9863TIP3   OH251003   3.087   4.527  14.268 -0.3306  0.7643 -0.2087
 9863TIP3    H151004   3.028   4.526  14.192  0.7549  0.9524 -1.0822
 9863TIP3    H251005   3.089   4.436  14.298 -1.7400  0.9100  0.3894
 9864TIP3   OH251006   2.844   4.764   3.083 -0.6632  0.0449  0.4486
 9864TIP3    H151007   2.823   4.856   3.095  0.1742  0.3794 -0.4886
 9864TIP3    H251008   2.868   4.732   3.170 -4.6153 -0.3205  1.5950
 9865TIP3   OH251009   3.808   2.863   0.432 -0.7684 -0.5978  0.3220
 9865TIP3    H151010   3.821   2.782   0.482  0.9928 -0.9098 -0.5484
 9865TIP3    H251011   3.721   2.854   0.394 -0.1489 -2.6947 -0.7435
 9866TIP3   OH251012   4.022   6.076   6.287 -0.2203  1.0666 -0.5354
 9866TIP3    H151013   4.012   6.158   6.335  0.1953 -0.4792  2.4012
 9866TIP3    H251014   4.113   6.076   6.258  0.3498  0.8230  1.1726
 9867TIP3   OH251015   2.545   1.202  11.443 -0.0147 -0.1053 -0.4620
 9867TIP3    H151016   2.619   1.207  11.503 -0.3680 -0.3704  0.0065
 9867TIP3    H251017   2.476   1.253  11.485 -1.3222 -2.7984  0.9494
 9868TIP3   OH251018   2.493   4.309   3.369  1.1447 -0.0785  0.8437
 9868TIP3    H151019   2.469   4.227   3.412 -2.9862 -0.5279 -1.6809
 9868TIP3    H251020   2.418   4.367   3.387  1.6958  1.4218 -1.3471
 9869TIP3   OH251021   1.789   6.188   0.285  0.1415  0.0101 -0.4663
 9869TIP3    H151022   1.820   6.250   0.219 -0.3829 -0.4964 -1.2133
 9869TIP3    H251023   1.746   6.119   0.234  0.4581 -0.8198  0.3581
 9870TIP3   OH251024   5.719   2.588   3.461  0.0836 -0.4346  0.2145
 9870TIP3    H151025   5.745   2.517   3.520 -0.3651 -0.4003  0.4602
 9870TIP3    H251026   5.797   2.642   3.453  0.3716 -0.8483  0.1805
 9871TIP3   OH251027   4.615   0.133  14.040  0.2886 -0.1257  0.1174
 9871TIP3    H151028   4.658   0.196  13.982  0.1663 -0.1633 -0.0140
 9871TIP3    H251029   4.661   0.051  14.026  1.7599  0.3535  1.7320
 9872TIP3   OH251030   6.752   6.129   5.418  0.6247  0.0662  0.5835
 9872TIP3    H151031   6.726   6.210   5.374  0.1899 -0.6441 -0.5048
 9872TIP3    H251032   6.692   6.122   5.493 -0.9838 -0.4563 -0.6852
 9873TIP3   OH251033   5.801   5.565   4.021  0.0441  0.2879  0.1802
 9873TIP3    H151034   5.723   5.512   4.005 -0.9454  1.7528 -0.1598
 9873TIP3    H251035   5.780   5.650   3.981  2.4208  0.2771 -1.2420
 9874TIP3   OH251036   1.191   4.420   4.898  0.0544  0.0241 -0.4467
 9874TIP3    H151037   1.144   4.340   4.921 -0.6461  1.0034  1.8120
 9874TIP3    H251038   1.283   4.401   4.918 -0.2622  0.1197  1.2513
 9875TIP3   OH251039   0.968   2.538  12.387  0.5122  0.5790 -0.6121
 9875TIP3    H151040   0.962   2.627  12.422  0.5464  0.0204  0.9259
 9875TIP3    H251041   1.061   2.527  12.364  0.9797  0.2731  1.2226
 9876TIP3   OH251042   4.867   6.544   0.408 -0.8835  0.5886  0.0087
 9876TIP3    H151043   4.888   6.498   0.489  0.5677  1.1040 -0.0419
 9876TIP3    H251044   4.831   6.477   0.350 -0.0545 -0.1950  0.3880
 9877TIP3   OH251045   4.860   2.175   4.588  0.2712  0.0782  0.1903
 9877TIP3    H151046   4.842   2.215   4.673  0.5630  1.3985 -0.3556
 9877TIP3    H251047   4.884   2.248   4.531  0.5332 -0.8412 -0.9140
 9878TIP3   OH251048   2.961   3.478   2.852 -0.5818 -0.3932 -0.5463
 9878TIP3    H151049   2.900   3.484   2.926 -1.2394  0.7446 -1.1535
 9878TIP3    H251050   2.985   3.386   2.848 -0.2053 -0.4149  1.3497
 9879TIP3   OH251051   3.932   5.293   2.338  0.3286  0.0004 -0.0477
 9879TIP3    H151052   3.858   5.242   2.306  2.6260 -1.6511 -3.4402
 9879TIP3    H251053   3.949   5.259   2.426 -0.7507 -2.1615 -0.6017
 9880TIP3   OH251054   1.912   1.839   2.678  0.1833 -0.0064 -0.1150
 9880TIP3    H151055   1.869   1.863   2.760 -0.0017  2.1936 -0.7977
 9880TIP3    H251056   1.843   1.841   2.613  0.7158  0.3764 -0.6784
 9881TIP3   OH251057   4.641   3.291   4.612  0.3124  0.5841 -0.8181
 9881TIP3    H151058   4.656   3.386   4.604 -1.3964  0.9159 -0.3152
 9881TIP3    H251059   4.564   3.283   4.667  1.2364 -1.1688  0.3125
 9882TIP3   OH251060   2.906   5.209  12.358 -0.0235  0.1413 -0.0571
 9882TIP3    H151061   2.824   5.208  12.309  0.9496  2.0884 -1.9255
 9882TIP3    H251062   2.890   5.269  12.431 -0.1031  1.1065 -0.8378
 9883TIP3   OH251063   2.799   3.999  15.525 -0.0524 -0.2976 -0.2003
 9883TIP3    H151064   2.758   4.085  15.539 -0.5240 -0.5577  0.0248
 9883TIP3    H251065   2.792   3.984  15.431 -1.9125 -1.0393  0.0207
 9884TIP3   OH251066   2.778   4.935  11.902 -0.4181 -0.2069 -0.2750
 9884TIP3    H151067   2.855   4.970  11.858 -0.4017 -1.3507 -1.1813
 9884TIP3    H251068   2.809   4.912  11.990 -0.4687  2.1360  0.4247
 9885TIP3   OH251069   0.794   3.974   5.146  0.8415 -0.6789 -0.0079
 9885TIP3    H151070   0.821   3.910   5.212  0.9592 -0.6739 -0.0522
 9885TIP3    H251071   0.757   4.046   5.196  0.0756 -1.0781  0.0196
 9886TIP3   OH251072   1.476   4.433   0.098  0.1859 -0.0190 -0.2582
 9886TIP3    H151073   1.453   4.375   0.171 -0.3199  1.1587  0.5405
 9886TIP3    H251074   1.394   4.448   0.052 -0.0143  1.2929  0.4693
 9887TIP3   OH251075   2.612   2.383   2.187 -0.1044  0.5918  0.5450
 9887TIP3    H151076   2.638   2.470   2.157 -2.6897  1.3669  0.3346
 9887TIP3    H251077   2.613   2.330   2.107  0.1714  0.7564  0.4362
 9888TIP3   OH251078   3.449   0.419  14.379  0.0090  0.1081  0.0545
 9888TIP3    H151079   3.537   0.388  14.403  0.5204  0.6976 -0.9869
 9888TIP3    H251080   3.415   0.350  14.322 -0.9925 -1.0372  1.9623
 9889TIP3   OH251081   2.094   3.342   2.223  0.0573 -0.2652 -0.3715
 9889TIP3    H151082   2.075   3.307   2.136  0.3921  1.2254 -1.0686
 9889TIP3    H251083   2.044   3.423   2.228  0.4209 -0.0900  0.6372
 9890TIP3   OH251084   6.538   0.873   3.167  0.0320 -0.0002  0.5158
 9890TIP3    H151085   6.541   0.941   3.234  0.5074  0.6393 -0.1447
 9890TIP3    H251086   6.486   0.803   3.207  0.8964  0.0679  1.8417
 9891TIP3   OH251087   4.919   5.991  14.054 -0.1157  0.7058 -0.7613
 9891TIP3    H151088   4.882   5.916  14.007  2.1763 -2.1590  1.5731
 9891TIP3    H251089   5.006   6.002  14.016 -0.0212  1.4302 -0.3444
 9892TIP3   OH251090   0.720   4.645  13.363  0.4150  0.1948  0.0837
 9892TIP3    H151091   0.705   4.654  13.457  0.4647  0.4566  0.0660
 9892TIP3    H251092   0.741   4.552  13.352 -1.4368 -0.2600  0.0742
 9893TIP3   OH251093   0.998   1.141   6.060  0.0408  0.7030  0.1990
 9893TIP3    H151094   0.955   1.094   6.132  0.5409  0.7030  0.5022
 9893TIP3    H251095   1.067   1.081   6.031  0.1423  0.9021  0.0297
 9894TIP3   OH251096   4.378   3.898  15.098  0.2335  0.4005 -0.0621
 9894TIP3    H151097   4.469   3.882  15.073  0.5942 -0.7253  1.7557
 9894TIP3    H251098   4.384   3.963  15.169 -0.3762  0.2908  0.0968
 9895TIP3   OH251099   5.890   1.214  12.399 -0.0504 -0.2415 -0.1163
 9895TIP3    H151100   5.950   1.232  12.471  1.1446  0.3055 -1.2049
 9895TIP3    H251101   5.858   1.300  12.372  0.1151 -0.3694 -0.7390
 9896TIP3   OH251102   6.599   5.735  10.575 -0.5051 -0.2917  0.5108
 9896TIP3    H151103   6.651   5.693  10.643  1.8538  1.0670 -0.3545
 9896TIP3    H251104   6.617   5.683  10.496 -2.6595 -1.4249  0.6853
 9897TIP3   OH251105   4.624   5.060  13.754  0.2555 -0.6730 -0.0734
 9897TIP3    H151106   4.644   4.966  13.757  2.0127 -0.3059  1.9804
 9897TIP3    H251107   4.604   5.083  13.845  1.8309  1.2976 -0.1606
 9898TIP3   OH251108   6.693   3.711  13.795 -0.0686  0.4913  0.1746
 9898TIP3    H151109   6.734   3.676  13.715  0.7212 -0.6489  1.0438
 9898TIP3    H251110   6.757   3.772  13.831  0.1485  0.0139  0.6158
 9899TIP3   OH251111   3.035   1.887  14.667  0.4820 -0.0360 -0.0903
 9899TIP3    H151112   3.013   1.839  14.588 -1.1652  1.6143 -0.6993
 9899TIP3    H251113   2.988   1.842  14.737 -1.0953  0.6541 -0.6609
 9900TIP3   OH251114   3.676   5.655   0.800 -0.1646  0.4863  0.5418
 9900TIP3    H151115   3.653   5.707   0.878 -2.2297  0.4587  0.0038
 9900TIP3    H251116   3.739   5.710   0.754 -0.7502  1.6098  1.0231
 9901TIP3   OH251117   6.694   0.938  10.265 -0.1091  0.2925 -0.4593
 9901TIP3    H151118   6.643   0.987  10.200 -0.9014  1.6607  1.1036
 9901TIP3    H251119   6.644   0.856  10.277 -0.9033  0.7775 -0.3512
 9902TIP3   OH251120   6.773   5.013  15.683  0.2556 -0.7925 -0.0650
 9902TIP3    H151121   6.694   5.007  15.629 -2.3783  0.6378  3.2505
 9902TIP3    H251122   6.763   4.942  15.747  2.7280 -1.7749 -0.6467
 9903TIP3   OH251123   0.132   1.606  16.299 -0.0249  0.3544 -0.6038
 9903TIP3    H151124   0.170   1.545  16.362  1.4186  1.1368 -0.6576
 9903TIP3    H251125   0.149   1.566  16.214 -0.1713  0.2597 -0.5896
 9904TIP3   OH251126   5.095   0.720  12.503 -0.3928  0.1944 -0.1358
 9904TIP3    H151127   5.070   0.775  12.429 -2.6995 -0.6136 -0.0383
 9904TIP3    H251128   5.162   0.662  12.468  0.0083  1.1535 -1.0159
 9905TIP3   OH251129   5.143   5.375  12.737  0.2548 -0.6199 -0.5601
 9905TIP3    H151130   5.181   5.463  12.739  0.0259 -0.4803 -1.5255
 9905TIP3    H251131   5.143   5.347  12.828  1.2996 -0.0361 -0.3577
 9906TIP3   OH251132   0.122   4.271  16.720 -0.2477 -0.2726 -0.3229
 9906TIP3    H151133   0.160   4.259  16.807 -1.0554  0.0969  0.0930
 9906TIP3    H251134   0.105   4.182  16.688  2.0473 -0.5108 -1.0388
 9907TIP3   OH251135   5.392   6.449   0.384  0.2534  0.1513  0.4934
 9907TIP3    H151136   5.482   6.421   0.366  0.4641  1.0169  0.1603
 9907TIP3    H251137   5.344   6.426   0.304 -0.5130 -2.9938  1.7029
 9908TIP3   OH251138   2.024   4.939  15.656 -0.4944 -0.2330  0.5767
 9908TIP3    H151139   2.044   4.948  15.750  3.5910 -3.5469  0.3274
 9908TIP3    H251140   1.993   4.849  15.648  2.6983 -1.3055 -1.5059
 9909TIP3   OH251141   6.777   6.480  15.379  0.0808 -0.0379  0.0317
 9909TIP3    H151142   6.864   6.446  15.401 -0.4307 -0.5182  1.4217
 9909TIP3    H251143   6.718   6.407  15.395 -0.5863  0.2732 -0.9389
 9910TIP3   OH251144   0.624   2.589  11.297  0.7962  1.2552 -0.1630
 9910TIP3    H151145   0.548   2.623  11.251  0.9876  0.7537 -0.8633
 9910TIP3    H251146   0.668   2.533  11.233  1.4423  1.0905  0.4118
 9911TIP3   OH251147   4.480   4.698  10.562 -0.1051 -0.3977  0.4073
 9911TIP3    H151148   4.447   4.739  10.643  1.3233  1.3322  0.1918
 9911TIP3    H251149   4.404   4.695  10.504 -1.6985 -3.5047  2.3701
 9912TIP3   OH251150   0.974   2.122  10.906  0.3217 -0.3764  0.6937
 9912TIP3    H151151   1.024   2.197  10.874  1.0787 -1.0425  0.3064
 9912TIP3    H251152   1.025   2.046  10.880 -1.5289 -1.1634 -0.9453
 9913TIP3   OH251153   2.616   0.461  16.407  0.5527  0.1726  0.5801
 9913TIP3    H151154   2.700   0.438  16.366 -0.2561 -0.4672 -0.7880
 9913TIP3    H251155   2.609   0.555  16.395  1.1919  0.2637  0.9142
 9914TIP3   OH251156   5.007   2.606  14.228 -0.0549  0.4167 -0.2275
 9914TIP3    H151157   4.994   2.684  14.282 -1.6030  0.1168 -0.1261
 9914TIP3    H251158   5.014   2.534  14.291 -0.5225  0.2348 -0.3828
 9915TIP3   OH251159   1.457   4.374   3.318 -0.0387 -0.4502 -0.2495
 9915TIP3    H151160   1.449   4.297   3.262  0.4319 -1.3640  0.9003
 9915TIP3    H251161   1.498   4.440   3.261 -1.2768 -0.7281 -1.5149
 9916TIP3   OH251162   6.245   1.493  12.616  0.4623  0.0298 -0.5968
 9916TIP3    H151163   6.288   1.574  12.589 -0.4196  0.8045  0.2510
 9916TIP3    H251164   6.172   1.483  12.555 -0.2114  0.5980  0.0921
 9917TIP3   OH251165   5.689   2.985   0.612  0.2748  0.0755  0.4161
 9917TIP3    H151166   5.629   3.058   0.628 -0.8436 -0.8417  0.5294
 9917TIP3    H251167   5.652   2.940   0.536  0.7203 -0.6172  0.6057
 9918TIP3   OH251168   4.162   0.526   1.800  0.2339  0.3747  0.0893
 9918TIP3    H151169   4.112   0.604   1.776 -1.3821 -0.3245  1.0319
 9918TIP3    H251170   4.243   0.560   1.838  0.5225  1.5378 -1.4711
 9919TIP3   OH251171   5.978   2.786  12.858  0.3022  0.0331 -0.0502
 9919TIP3    H151172   5.940   2.761  12.943 -1.0821  1.4795 -0.1908
 9919TIP3    H251173   5.910   2.766  12.794  0.8436  0.1480 -0.6772
 9920TIP3   OH251174   1.479   2.438   4.735 -0.2053  0.0631  0.0672
 9920TIP3    H151175   1.500   2.345   4.740  0.5804  0.1157 -1.5289
 9920TIP3    H251176   1.385   2.442   4.720 -0.1588 -0.5078 -0.3881
 9921TIP3   OH251177   6.800   0.148   3.335 -0.0724  0.5596  0.1640
 9921TIP3    H151178   6.817   0.134   3.242 -0.9147  0.0295  0.0823
 9921TIP3    H251179   6.722   0.096   3.354  1.0208 -0.6860  1.5373
 9922TIP3   OH251180   5.487   5.357   0.605  0.1841  0.1501  0.2529
 9922TIP3    H151181   5.445   5.397   0.530  0.4661 -0.4238 -0.2212
 9922TIP3    H251182   5.415   5.334   0.664 -0.0903  0.0021 -0.1400
 9923TIP3   OH251183   0.745   6.363   2.892  0.4332  0.5822 -0.3464
 9923TIP3    H151184   0.791   6.294   2.844  1.5718  2.1970 -1.6755
 9923TIP3    H251185   0.779   6.357   2.981 -1.1165 -1.9352  0.2033
 9924TIP3   OH251186   3.035   3.068  11.781  0.1949 -0.7080  0.0751
 9924TIP3    H151187   3.011   2.986  11.824 -1.4892 -1.0230 -1.3695
 9924TIP3    H251188   3.002   3.060  11.692 -2.5406  2.5972  0.5830
 9925TIP3   OH251189   0.392   4.741   1.071  0.0816  0.3720 -0.1875
 9925TIP3    H151190   0.342   4.672   1.115 -0.2192 -0.5421 -1.8641
 9925TIP3    H251191   0.325   4.791   1.024  0.5309  0.3081 -0.9072
 9926TIP3   OH251192   2.268   4.652   5.567  0.6504  0.6666  0.4474
 9926TIP3    H151193   2.361   4.634   5.557  0.6787  1.8330 -2.1908
 9926TIP3    H251194   2.261   4.694   5.653  2.0105 -2.1106  2.0829
 9927TIP3   OH251195   3.191   4.697   2.232 -0.7752 -0.1390 -0.5575
 9927TIP3    H151196   3.262   4.676   2.171 -1.5164 -1.3337 -1.0545
 9927TIP3    H251197   3.156   4.611   2.257 -2.8480  0.4428 -1.3088
 9928TIP3   OH251198   4.002   1.244  13.435 -0.3823 -0.1397 -0.3694
 9928TIP3    H151199   4.095   1.228  13.421 -0.6840 -1.3792 -1.0735
 9928TIP3    H251200   3.976   1.180  13.500 -0.3539  1.5120  1.3680
 9929TIP3   OH251201   5.298   5.274  15.773  0.4108  0.4516  0.0145
 9929TIP3    H151202   5.281   5.247  15.682  1.5632  1.2639 -0.4685
 9929TIP3    H251203   5.273   5.366  15.776  0.6847  0.5133  0.4382
 9930TIP3   OH251204   2.205   4.158   3.844  0.5904  0.1215  0.2918
 9930TIP3    H151205   2.130   4.166   3.903  1.2815  1.9158  1.0165
 9930TIP3    H251206   2.199   4.235   3.787  1.7425  0.1913  0.2289
 9931TIP3   OH251207   6.643   2.637  11.843  0.2257  0.0227 -0.0771
 9931TIP3    H151208   6.714   2.680  11.889 -0.1551  0.1883  0.3655
 9931TIP3    H251209   6.682   2.558  11.806  0.2413 -0.8339  1.6752
 9932TIP3   OH251210   0.985   6.413   2.629 -0.1930 -0.2079  0.6262
 9932TIP3    H151211   1.014   6.419   2.720  0.3544 -0.7426  0.4917
 9932TIP3    H251212   0.993   6.502   2.595 -0.1767 -0.0524  1.0393
 9933TIP3   OH251213   2.861   5.508   3.691  0.1875  0.1819  0.3469
 9933TIP3    H151214   2.856   5.414   3.675  1.0375  0.0244  0.9449
 9933TIP3    H251215   2.821   5.548   3.614 -2.7329 -0.7140  1.2660
 9934TIP3   OH251216   1.134   6.623  16.104 -0.0213  0.0847  0.0160
 9934TIP3    H151217   1.051   6.579  16.124 -0.3020  0.0635 -1.1251
 9934TIP3    H251218   1.147   6.609  16.010  0.4673  1.4762 -0.1492
 9935TIP3   OH251219   4.953   3.631  15.047  0.5397 -0.1728  0.5511
 9935TIP3    H151220   4.984   3.718  15.074 -0.7482  0.3290  0.5069
 9935TIP3    H251221   4.927   3.589  15.129 -0.6943  0.2640  0.4125
 9936TIP3   OH251222   2.297   6.610  10.762  0.3563 -0.7879  0.4118
 9936TIP3    H151223   2.300   6.529  10.813 -0.6917 -1.7234 -0.9272
 9936TIP3    H251224   2.237   6.590  10.690  0.4772  1.0283 -0.2342
 9937TIP3   OH251225   2.345   0.017   0.996  0.4569  0.4938 -0.2678
 9937TIP3    H151226   2.389   0.003   1.081  1.7466  1.4788 -0.7364
 9937TIP3    H251227   2.394  -0.039   0.935  0.2231  0.6131 -0.5617
 9938TIP3   OH251228   4.407   1.738  15.846  0.3708  0.7657  0.0246
 9938TIP3    H151229   4.477   1.787  15.888  0.1924  0.3940  0.7692
 9938TIP3    H251230   4.426   1.646  15.867  0.0545  0.6065 -0.3708
 9939TIP3   OH251231   4.049   2.461  15.659 -0.1154  0.0100  0.0514
 9939TIP3    H151232   3.996   2.446  15.581 -0.6494  0.0592  0.4011
 9939TIP3    H251233   3.993   2.432  15.731  0.7320 -0.9522  0.3466
 9940TIP3   OH251234   1.749   4.061   5.619  0.0623 -0.0751  0.4666
 9940TIP3    H151235   1.763   4.142   5.571 -1.7946  0.5911  0.9993
 9940TIP3    H251236   1.823   4.006   5.593  1.5234  1.8564  0.3182
 9941TIP3   OH251237   4.845   3.055  13.096  0.4301 -0.2999 -0.0356
 9941TIP3    H151238   4.842   2.982  13.034  2.0822 -1.0974  0.7453
 9941TIP3    H251239   4.925   3.103  13.073 -0.5899  1.2477 -0.4796
 9942TIP3   OH251240   3.211   1.216  12.141 -0.6542  0.6834  0.0208
 9942TIP3    H151241   3.219   1.279  12.212  0.5799  0.1428  0.4025
 9942TIP3    H251242   3.289   1.231  12.087 -2.2321  2.0468 -2.0803
 9943TIP3   OH251243   5.465   5.862  12.174 -0.3706 -0.5102 -0.4763
 9943TIP3    H151244   5.440   5.811  12.251 -0.7094 -1.4526 -1.1878
 9943TIP3    H251245   5.487   5.796  12.108 -1.0657  0.2478 -1.5055
 9944TIP3   OH251246   4.234   2.998   4.606  0.2368 -0.7289  0.2174
 9944TIP3    H151247   4.158   2.951   4.639  0.0547 -1.3240 -0.9938
 9944TIP3    H251248   4.307   2.938   4.619  0.4915 -0.2364  1.1951
 9945TIP3   OH251249   3.772   1.280   4.703 -0.3244 -0.3172  0.1707
 9945TIP3    H151250   3.846   1.291   4.643 -0.5556 -2.2188 -0.5260
 9945TIP3    H251251   3.702   1.332   4.664 -0.4626 -1.5133 -1.2534
 9946TIP3   OH251252   1.273   5.410   0.704  0.3815 -0.1174  0.2592
 9946TIP3    H151253   1.270   5.336   0.644 -1.2104 -0.1396  0.3164
 9946TIP3    H251254   1.352   5.458   0.680 -0.4706  0.1684 -2.2252
 9947TIP3   OH251255   4.285   1.924  14.065 -0.5231 -0.0914  0.2170
 9947TIP3    H151256   4.301   1.906  14.157  0.2983  1.2528  0.3512
 9947TIP3    H251257   4.274   2.019  14.060  1.1274  0.0580 -1.2941
 9948TIP3   OH251258   0.222   3.006   5.834 -0.4407  0.3290 -0.1337
 9948TIP3    H151259   0.288   2.937   5.837 -0.7637 -0.0006 -0.4668
 9948TIP3    H251260   0.191   3.014   5.924 -1.4137 -0.9660 -0.3304
 9949TIP3   OH251261   2.322   4.461  15.577 -0.5608  0.2849 -0.2844
 9949TIP3    H151262   2.331   4.428  15.487  0.8518  2.3694 -0.9886
 9949TIP3    H251263   2.228   4.460  15.594 -0.7426 -1.8693 -1.0562
 9950TIP3   OH251264   5.239   6.376  14.253  0.2430 -0.5639  0.1367
 9950TIP3    H151265   5.279   6.463  14.250 -0.3982 -0.1276  2.4334
 9950TIP3    H251266   5.278   6.329  14.179  1.2129  1.4037 -0.6708
 9951TIP3   OH251267   0.279   5.251   6.401 -0.0224 -0.3517  0.1985
 9951TIP3    H151268   0.245   5.319   6.342 -0.4057 -1.8905 -1.4492
 9951TIP3    H251269   0.201   5.206   6.433  0.2719 -1.6614 -0.8272
 9952TIP3   OH251270   0.391   5.454   3.694 -0.2323 -0.3761 -0.0381
 9952TIP3    H151271   0.413   5.460   3.601 -0.8553  3.6796 -0.0840
 9952TIP3    H251272   0.300   5.423   3.695 -0.8783  1.3582 -0.9670
 9953TIP3   OH251273   2.954   2.906   1.346 -0.0959 -0.0639  0.5488
 9953TIP3    H151274   3.025   2.869   1.293  0.2527  1.0654  0.1896
 9953TIP3    H251275   2.875   2.895   1.292 -0.3082 -1.7763  1.1591
 9954TIP3   OH251276   0.246   2.924   1.481  0.2747  0.5513  0.4016
 9954TIP3    H151277   0.231   2.950   1.390 -1.4482 -0.9933  0.1850
 9954TIP3    H251278   0.185   2.977   1.531  1.8676  2.0779  0.8282
 9955TIP3   OH251279   6.676   3.185  16.338 -0.5225  0.7377  0.2115
 9955TIP3    H151280   6.597   3.199  16.285  0.1950  1.6978 -0.6397
 9955TIP3    H251281   6.694   3.271  16.376 -0.3936  0.3128  1.1401
 9956TIP3   OH251282   1.422   1.301  13.351  0.4954 -0.0943  0.1098
 9956TIP3    H151283   1.392   1.371  13.292  0.4926  0.2875  0.5624
 9956TIP3    H251284   1.382   1.321  13.435  1.3159 -0.0719  0.5022
 9957TIP3   OH251285   0.513   6.323   3.130 -0.5280 -0.1762 -0.6441
 9957TIP3    H151286   0.539   6.412   3.109 -0.9668 -0.1642 -1.1405
 9957TIP3    H251287   0.544   6.309   3.220 -1.3773  0.8274 -0.1822
 9958TIP3   OH251288   5.952   1.225  16.672  0.0806 -0.0002 -0.2700
 9958TIP3    H151289   5.910   1.285  16.734  3.3443  2.1143  0.1706
 9958TIP3    H251290   6.004   1.167  16.728  0.8144  0.0492 -0.8849
 9959TIP3   OH251291   2.360   1.334   0.909 -0.3721  0.0152 -0.9355
 9959TIP3    H151292   2.301   1.328   0.984 -1.0534  0.5718 -1.4195
 9959TIP3    H251293   2.303   1.352   0.834  0.1962 -1.4538 -1.7670
 9960TIP3   OH251294   0.528   6.268  14.513 -0.4341  0.6010 -0.3633
 9960TIP3    H151295   0.571   6.225  14.587  0.0827  0.6467 -0.6322
 9960TIP3    H251296   0.600   6.297  14.457 -0.8248 -0.3306 -1.3913
 9961TIP3   OH251297   4.961   4.293  11.396  0.7881  0.1158  0.3415
 9961TIP3    H151298   4.921   4.215  11.433  2.1001 -0.0568  1.4745
 9961TIP3    H251299   4.888   4.341  11.356 -0.1430 -1.3214  0.2492
 9962TIP3   OH251300   4.450   6.584  14.003  0.5772 -0.3191  0.0765
 9962TIP3    H151301   4.371   6.623  13.967 -0.6818 -1.1051  1.8098
 9962TIP3    H251302   4.460   6.502  13.955  0.2922 -0.2349 -0.1289
 9963TIP3   OH251303   6.315   0.321   4.790  0.0131 -0.0007  0.2118
 9963TIP3    H151304   6.363   0.304   4.872  0.3410  0.5298  0.1328
 9963TIP3    H251305   6.258   0.245   4.780  1.3478 -1.0216 -0.0599
 9964TIP3   OH251306   1.973   1.214   6.537 -0.2399 -0.1786  0.6418
 9964TIP3    H151307   2.012   1.131   6.565  0.4258 -0.9130 -2.1753
 9964TIP3    H251308   1.913   1.190   6.466 -0.0300  1.7340 -0.2568
 9965TIP3   OH251309   0.896   1.458  16.535 -0.4464  0.6037  0.0558
 9965TIP3    H151310   0.869   1.528  16.593 -0.7398 -0.5060  1.3193
 9965TIP3    H251311   0.864   1.484  16.448 -1.1532  1.6761  0.6166
 9966TIP3   OH251312   1.966   5.514  15.189  0.0620 -0.0810  0.9584
 9966TIP3    H151313   1.878   5.476  15.193  0.3123 -1.1048 -1.3420
 9966TIP3    H251314   2.021   5.449  15.233 -0.3027  0.5948  2.4653
 9967TIP3   OH251315   1.712   5.180  16.857  0.3836  0.4543 -0.7551
 9967TIP3    H151316   1.660   5.198  16.779  0.2139  1.5338 -0.4160
 9967TIP3    H251317   1.747   5.265  16.882  2.1113 -0.1995 -0.8199
 9968TIP3   OH251318   6.000   2.240  16.421 -0.3138  0.4695 -0.7204
 9968TIP3    H151319   6.023   2.147  16.427 -2.2352  0.0049 -0.1340
 9968TIP3    H251320   6.077   2.285  16.457  0.7243 -0.8441 -1.1765
 9969TIP3   OH251321   2.759   5.129  16.517  0.4506  0.0783 -0.0692
 9969TIP3    H151322   2.811   5.050  16.528  2.4608  1.3419  0.1105
 9969TIP3    H251323   2.697   5.108  16.448  2.1315 -1.1105 -1.3066
 9970TIP3   OH251324   3.351   6.066   3.038  0.1081  0.5231  0.1358
 9970TIP3    H151325   3.277   6.111   2.996  0.5224  0.7691 -0.3343
 9970TIP3    H251326   3.429   6.107   3.000  0.4897  0.5410  0.9248
 9971TIP3   OH251327   3.605   1.261  13.347  0.7755  0.1110 -0.2224
 9971TIP3    H151328   3.536   1.329  13.348 -1.1041 -1.5982 -2.6075
 9971TIP3    H251329   3.589   1.211  13.427  0.6111  0.9682  0.3045
 9972TIP3   OH251330   2.062   1.043  12.032 -0.8702  0.0544  0.0313
 9972TIP3    H151331   2.102   1.106  11.972 -0.0902  0.8681  1.3528
 9972TIP3    H251332   1.994   1.094  12.077  0.8063  0.4587  2.2389
 9973TIP3   OH251333   2.488   0.613   6.123  0.2647  0.4055  0.4188
 9973TIP3    H151334   2.511   0.657   6.205  3.5060  1.1470 -0.7367
 9973TIP3    H251335   2.514   0.521   6.137 -1.9735 -0.1724  1.1603
 9974TIP3   OH251336   2.410   2.443  15.666 -0.1296  0.2823  0.1726
 9974TIP3    H151337   2.389   2.391  15.743  0.6243 -0.3504 -0.0358
 9974TIP3    H251338   2.417   2.379  15.595 -1.4157  0.9063 -0.5736
 9975TIP3   OH251339   6.046   2.393   6.001 -0.5772  0.4148 -0.0937
 9975TIP3    H151340   6.119   2.414   6.059  0.4032 -2.5164 -0.0580
 9975TIP3    H251341   6.079   2.412   5.913 -0.0045 -0.1830 -0.0207
 9976TIP3   OH251342   0.768   3.393   4.160  0.4566 -0.0446  0.6231
 9976TIP3    H151343   0.731   3.480   4.143  0.3946 -0.0741  0.6084
 9976TIP3    H251344   0.848   3.390   4.107 -0.6485 -0.8094 -1.0972
 9977TIP3   OH251345   2.650   5.329  15.867  0.5043 -0.9733  0.0319
 9977TIP3    H151346   2.557   5.321  15.846  0.5309 -1.4877  0.1121
 9977TIP3    H251347   2.655   5.318  15.962  0.4445  0.8732  0.2965
 9978TIP3   OH251348   2.468   1.590   2.574  0.1499 -0.0111 -0.3432
 9978TIP3    H151349   2.395   1.530   2.560  0.5521 -0.4509 -0.5940
 9978TIP3    H251350   2.480   1.593   2.669 -1.4169  1.5586 -0.1540
 9979TIP3   OH251351   0.696   0.873   0.836  0.2145 -0.0479  0.0225
 9979TIP3    H151352   0.721   0.896   0.926  0.2050  1.1080 -0.2640
 9979TIP3    H251353   0.716   0.950   0.784 -2.1866  0.2939 -0.5445
 9980TIP3   OH251354   2.761   2.966   0.935 -0.0697  0.1137  0.2910
 9980TIP3    H151355   2.670   2.939   0.942 -0.5504  1.4525 -0.4528
 9980TIP3    H251356   2.782   2.958   0.841  0.4006  0.3475  0.3708
 9981TIP3   OH251357   6.271   3.586  12.783 -0.2277  0.3493 -0.2648
 9981TIP3    H151358   6.284   3.641  12.861  0.7606  0.6672 -0.6338
 9981TIP3    H251359   6.343   3.523  12.786  0.1909  0.7610 -1.2404
 9982TIP3   OH251360   2.986   0.754   0.080  0.1467  0.3433  0.0831
 9982TIP3    H151361   2.929   0.678   0.065 -1.6392  1.3139  1.4767
 9982TIP3    H251362   3.019   0.777  -0.006 -0.9135 -0.7937 -0.6617
 9983TIP3   OH251363   1.707   3.478   5.041 -0.3219 -0.3532 -0.0842
 9983TIP3    H151364   1.785   3.467   5.096  0.9803  0.4465 -1.7002
 9983TIP3    H251365   1.686   3.571   5.049 -0.5656 -0.3854 -0.3549
 9984TIP3   OH251366   4.604   0.534  14.618 -0.3873 -0.1465 -0.0653
 9984TIP3    H151367   4.556   0.607  14.656 -2.0340 -1.3857  0.3302
 9984TIP3    H251368   4.583   0.459  14.674  0.8541 -1.0471 -0.7457
 9985TIP3   OH251369   1.490   1.443  15.644  0.1883  0.2267  0.4712
 9985TIP3    H151370   1.525   1.372  15.589  0.3978  1.2533 -0.7805
 9985TIP3    H251371   1.442   1.499  15.582 -0.6329  0.7602  1.5652
 9986TIP3   OH251372   1.816   5.303   3.012  0.1987  0.1408  0.4834
 9986TIP3    H151373   1.853   5.234   3.067 -1.0715 -0.6797  0.3440
 9986TIP3    H251374   1.848   5.284   2.924 -1.3140 -1.1661  0.1796
 9987TIP3   OH251375   2.338   0.675  12.324 -0.5833 -0.1553 -0.3309
 9987TIP3    H151376   2.365   0.752  12.375  1.2708  0.6186 -2.3415
 9987TIP3    H251377   2.420   0.636  12.294 -1.5774 -0.9344 -2.1719
 9988TIP3   OH251378   4.596   1.638   1.617 -0.8529  0.1340  0.6603
 9988TIP3    H151379   4.518   1.646   1.672 -0.3178  0.6252  1.3580
 9988TIP3    H251380   4.614   1.727   1.587 -1.5870 -0.2305 -0.9701
 9989TIP3   OH251381   5.700   2.847  10.804  0.9422 -0.4670 -0.5038
 9989TIP3    H151382   5.628   2.832  10.742  1.1131 -0.1377 -0.7888
 9989TIP3    H251383   5.757   2.771  10.794  0.0238 -1.3262  0.5981
 9990TIP3   OH251384   1.889   6.231   1.674 -0.0180 -0.1554 -0.3205
 9990TIP3    H151385   1.930   6.311   1.641 -1.8563  1.6564  1.5346
 9990TIP3    H251386   1.839   6.259   1.750 -0.3522 -3.1914  0.7138
 9991TIP3   OH251387   1.558   2.955  12.226 -0.1060  0.1083  0.2474
 9991TIP3    H151388   1.620   3.019  12.262 -0.5949  1.0319 -0.5232
 9991TIP3    H251389   1.490   3.008  12.184  0.0632 -0.9382 -1.4032
 9992TIP3   OH251390   3.812   2.075  13.050 -0.6174  0.1024  0.2149
 9992TIP3    H151391   3.809   1.983  13.023 -2.6538 -0.1300  1.0575
 9992TIP3    H251392   3.860   2.119  12.980 -1.5712 -1.2524 -1.3704
 9993TIP3   OH251393   3.482   0.268  12.808  0.2559 -0.1312 -0.4580
 9993TIP3    H151394   3.421   0.226  12.748 -1.4864  1.9571 -0.2961
 9993TIP3    H251395   3.565   0.223  12.794 -1.2829 -3.1257 -0.6785
 9994TIP3   OH251396   3.186   5.968   4.892 -0.0527 -0.2475 -0.1216
 9994TIP3    H151397   3.132   5.951   4.815 -0.1201  0.4605 -0.2380
 9994TIP3    H251398   3.276   5.961   4.861 -0.0531 -1.7668  0.1468
 9995TIP3   OH251399   4.356   1.075   0.047 -0.7071  0.4793 -0.0900
 9995TIP3    H151400   4.387   1.079  -0.043 -0.8048  0.7069 -0.1166
 9995TIP3    H251401   4.261   1.088   0.040 -0.4681  2.8655  0.2051
 9996TIP3   OH251402   2.027   6.581   3.199 -0.1594 -0.1309  0.7883
 9996TIP3    H151403   2.080   6.519   3.249  0.2336 -0.1861  0.3076
 9996TIP3    H251404   2.079   6.600   3.121 -1.2451 -0.9413 -0.1840
 9997TIP3   OH251405   2.353   5.249   2.368  0.7481  0.0103  0.3956
 9997TIP3    H151406   2.266   5.250   2.328  0.5048  1.8608  0.8777
 9997TIP3    H251407   2.408   5.299   2.308  1.6067 -1.4699 -0.1001
 9998TIP3   OH251408   6.394   1.271   4.018 -0.1929  0.0361 -0.1944
 9998TIP3    H151409   6.404   1.218   3.939 -0.1255 -0.9351  0.4409
 9998TIP3    H251410   6.449   1.227   4.083  0.4268  1.3032  0.1680
 9999TIP3   OH251411   3.038   6.742   5.732  0.3535 -0.1393  0.6613
 9999TIP3    H151412   3.030   6.718   5.824  0.7015  0.0787  0.7488
 9999TIP3    H251413   2.948   6.758   5.703  0.1923 -0.7417  0.8168
10000TIP3   OH251414   5.882   0.796   2.722  0.1399  0.4025 -0.3763
10000TIP3    H151415   5.924   0.876   2.755  0.2446 -0.2519  1.1770
10000TIP3    H251416   5.819   0.827   2.657 -0.8627  1.9165  1.2186
10001TIP3   OH251417   6.358   6.474   3.316 -0.1944 -0.2213 -0.0632
10001TIP3    H151418   6.287   6.520   3.361 -1.5590 -0.1172 -2.1957
10001TIP3    H251419   6.383   6.532   3.245  0.2957 -1.3692 -0.8563
10002TIP3   OH251420   4.759   0.498   5.771  0.2054  0.4482 -0.0990
10002TIP3    H151421   4.759   0.494   5.867 -0.5460 -1.8891 -0.1451
10002TIP3    H251422   4.841   0.456   5.745  0.9833  2.1295 -0.5180
10003TIP3   OH251423   1.382   5.897   2.359  0.4094 -0.0539 -0.0101
10003TIP3    H151424   1.333   5.939   2.429  0.3787 -0.7762  0.4166
10003TIP3    H251425   1.451   5.848   2.405  0.7627 -0.0401 -0.5225
10004TIP3   OH251426   1.883   5.036   1.891  0.1484  0.1171  0.4105
10004TIP3    H151427   1.957   5.036   1.830  0.0377 -0.1850  0.2761
10004TIP3    H251428   1.924   5.049   1.977  0.6720 -2.6336  0.6801
10005TIP3   OH251429   0.127   6.553  14.837  0.7138  0.0628 -0.0396
10005TIP3    H151430   0.155   6.608  14.910  1.0835 -0.5902  0.3232
10005TIP3    H251431   0.208   6.514  14.804  0.2134 -3.1336  2.0512
10006TIP3   OH251432   4.542   2.643   2.591  0.0583  0.1227 -0.0319
10006TIP3    H151433   4.539   2.712   2.657  0.9002  0.4847 -0.3505
10006TIP3    H251434   4.455   2.645   2.550  0.0249  0.9067  0.0535
10007TIP3   OH251435   4.188   0.427  15.108  0.5021 -0.6410 -0.7251
10007TIP3    H151436   4.131   0.436  15.184 -0.5057  0.2475 -1.5484
10007TIP3    H251437   4.265   0.480  15.129  0.7340 -1.2931  0.1128
10008TIP3   OH251438   5.845   3.543   0.925  0.3947  0.6543 -0.3508
10008TIP3    H151439   5.849   3.618   0.867  0.5929  0.0826 -1.0849
10008TIP3    H251440   5.913   3.560   0.991 -0.1705  1.5401  0.0249
10009TIP3   OH251441   4.165   6.593  14.275 -0.1759 -0.0842 -0.1661
10009TIP3    H151442   4.232   6.526  14.290  0.6033  0.4954 -0.9410
10009TIP3    H251443   4.215   6.672  14.255 -1.0905  0.1938 -1.4418
10010TIP3   OH251444   3.585   2.409   4.472 -0.5713  0.1015 -0.1369
10010TIP3    H151445   3.550   2.371   4.391  1.6693  2.1780 -2.2360
10010TIP3    H251446   3.523   2.478   4.495 -0.5835  0.3170 -0.8020
10011TIP3   OH251447   4.564   1.520   3.952 -0.0816 -0.8299  0.6848
10011TIP3    H151448   4.622   1.454   3.914 -1.3224 -1.2849 -0.5235
10011TIP3    H251449   4.483   1.472   3.972 -1.4078  0.4479 -1.1965
10012TIP3   OH251450   1.459   2.909   1.482  0.8025 -0.2901 -0.0142
10012TIP3    H151451   1.419   2.868   1.558  0.2713 -1.2659 -0.7869
10012TIP3    H251452   1.482   2.997   1.511 -0.6168 -0.1844  0.8786
10013TIP3   OH251453   1.580   0.027  10.419 -0.3592  0.4330  0.6373
10013TIP3    H151454   1.569   0.061  10.330  0.9871 -0.7178 -0.0182
10013TIP3    H251455   1.531   0.087  10.474 -2.6946  0.2070 -1.0658
10014TIP3   OH251456   6.648   3.056  14.631  0.4687  0.2823 -0.3710
10014TIP3    H151457   6.609   3.053  14.544  1.3180 -0.9862 -0.7361
10014TIP3    H251458   6.586   3.108  14.683 -1.3288 -1.0347 -1.0899
10015TIP3   OH251459   0.644   1.233   0.743  0.2918  0.4398  0.0569
10015TIP3    H151460   0.557   1.274   0.739 -0.1693 -0.4626  0.5525
10015TIP3    H251461   0.641   1.163   0.678  0.0286 -0.7104  1.2572
10016TIP3   OH251462   4.851   1.157   4.983  0.0428 -0.0097  0.2913
10016TIP3    H151463   4.788   1.173   4.913  1.0955 -1.6465 -1.1038
10016TIP3    H251464   4.855   1.240   5.031  0.3303  1.6924 -2.4582
10017TIP3   OH251465   3.930   0.845  15.505  0.2599 -0.3128  0.2178
10017TIP3    H151466   3.951   0.816  15.416  0.7075  0.2291  0.1437
10017TIP3    H251467   4.005   0.818  15.557  0.6894  0.6994  0.1458
10018TIP3   OH251468   3.405   3.917   2.451 -0.1020 -0.1163  0.3946
10018TIP3    H151469   3.493   3.890   2.425 -0.2657  0.1676 -0.4846
10018TIP3    H251470   3.347   3.871   2.390 -0.4134  1.8739 -0.8951
10019TIP3   OH251471   2.448   0.801  16.139  0.0441 -1.0100 -0.4421
10019TIP3    H151472   2.509   0.862  16.096  1.4494  1.3268  4.1633
10019TIP3    H251473   2.363   0.844  16.133  0.5588  0.2204  0.5205
10020TIP3   OH251474   0.363   1.690   4.267 -0.6205 -0.2405 -0.0506
10020TIP3    H151475   0.449   1.670   4.229  0.5709  1.3913  1.5857
10020TIP3    H251476   0.325   1.604   4.286  0.7854 -1.0131 -0.5272
10021TIP3   OH251477   2.194   3.840  13.651 -0.0618 -0.2747  0.2460
10021TIP3    H151478   2.119   3.829  13.710 -0.2505 -0.2568  0.0099
10021TIP3    H251479   2.232   3.924  13.675 -1.5137  0.8477 -1.1989
10022TIP3   OH251480   3.267   1.203   2.816  0.3044 -0.0041  0.1201
10022TIP3    H151481   3.317   1.278   2.849  1.7793 -0.8000 -0.2170
10022TIP3    H251482   3.279   1.135   2.883 -2.7353  0.6343  1.4666
10023TIP3   OH251483   5.745   6.562  13.335 -0.3952 -0.0141  0.2728
10023TIP3    H151484   5.657   6.526  13.348 -0.0357 -1.1087 -0.1870
10023TIP3    H251485   5.799   6.515  13.399 -0.0094  0.0941  0.0298
10024TIP3   OH251486   1.189   4.998   3.239 -0.2311 -0.3023 -0.2166
10024TIP3    H151487   1.274   4.959   3.260 -0.9285 -1.6650  0.1943
10024TIP3    H251488   1.194   5.086   3.276  0.6935 -0.6511  0.5562
10025TIP3   OH251489   6.411   4.673   1.106 -0.1603 -0.3711  0.6832
10025TIP3    H151490   6.473   4.611   1.146  1.5071  1.5077  1.1811
10025TIP3    H251491   6.440   4.759   1.136 -0.8760  0.8926 -1.9388
10026TIP3   OH251492   4.543   3.767   2.661 -0.4569 -0.2857 -0.3695
10026TIP3    H151493   4.454   3.790   2.687 -0.2508 -0.9186  0.9764
10026TIP3    H251494   4.585   3.737   2.742  1.5603  1.7175 -0.5829
10027TIP3   OH251495   0.924   5.108  14.816  0.1998  0.3820  0.1324
10027TIP3    H151496   0.998   5.108  14.877 -0.0459  0.7190  0.4349
10027TIP3    H251497   0.858   5.053  14.857 -0.4862  1.6776  0.8261
10028TIP3   OH251498   2.318   3.819   2.310 -0.0603 -0.2595 -0.1168
10028TIP3    H151499   2.397   3.864   2.342 -0.3216 -0.5548  0.9806
10028TIP3    H251500   2.247   3.858   2.360 -0.5265 -0.5266 -0.5679
10029TIP3   OH251501   1.801   0.164   0.884 -0.4969 -0.2403 -0.4886
10029TIP3    H151502   1.823   0.201   0.798  1.3138  0.6203  0.2992
10029TIP3    H251503   1.880   0.119   0.912 -0.6950  0.3539  1.1606
10030TIP3   OH251504   5.625   4.704   0.138  0.3888  0.0531 -0.5212
10030TIP3    H151505   5.714   4.679   0.113  1.1750  0.0999  1.9818
10030TIP3    H251506   5.635   4.791   0.178 -0.6772 -0.2148  0.3794
10031TIP3   OH251507   5.024   0.151  15.402 -0.3475  0.1123 -0.3632
10031TIP3    H151508   5.091   0.211  15.435 -1.0932  0.7053  0.0936
10031TIP3    H251509   5.073   0.089  15.348  0.3844  1.3807 -1.2054
10032TIP3   OH251510   1.535   0.757   6.186  0.1843  0.0809 -0.1933
10032TIP3    H151511   1.519   0.727   6.097 -1.6015  1.2476 -0.3281
10032TIP3    H251512   1.628   0.779   6.188  0.2011  0.3066 -1.8665
10033TIP3   OH251513   0.215   3.489   2.340  0.2231  0.2278 -0.4650
10033TIP3    H151514   0.134   3.530   2.308  0.2955  0.5533 -0.2377
10033TIP3    H251515   0.280   3.508   2.272  0.1117 -0.0129 -0.6363
10034TIP3   OH251516   0.942   1.187  16.615  0.0271 -0.4777 -0.6237
10034TIP3    H151517   0.888   1.179  16.537 -0.5180  1.0781 -0.4294
10034TIP3    H251518   0.937   1.280  16.639  1.9209 -0.4957  0.0130
10035TIP3   OH251519   0.698   4.520   2.404 -0.2128  0.3011  0.5275
10035TIP3    H151520   0.695   4.446   2.465  1.6996 -0.7151 -0.5044
10035TIP3    H251521   0.617   4.512   2.353 -0.0919 -1.0688  0.5008
10036TIP3   OH251522   3.070   5.629  11.487 -0.2819 -0.7141  0.1590
10036TIP3    H151523   3.058   5.683  11.408 -1.5586 -0.1540  0.7057
10036TIP3    H251524   3.164   5.613  11.490  0.2274  1.7727  0.1253
10037TIP3   OH251525   2.097   4.621   1.655 -0.2966 -0.1947 -0.2534
10037TIP3    H151526   2.096   4.545   1.713  1.9576  0.3312  0.5782
10037TIP3    H251527   2.035   4.599   1.585 -0.9952 -2.0293  0.8701
10038TIP3   OH251528   3.970   1.976  14.204  0.1290 -0.0836  0.0333
10038TIP3    H151529   4.051   1.928  14.223 -0.7923 -1.0974  1.6573
10038TIP3    H251530   3.903   1.908  14.195 -0.4460  0.6878 -2.0595
10039TIP3   OH251531   5.938   1.929   0.704  0.4832  0.7068  0.0027
10039TIP3    H151532   5.916   1.909   0.613  4.1597 -1.3269 -0.6227
10039TIP3    H251533   5.979   2.016   0.700  1.1015  0.4031 -0.4057
10040TIP3   OH251534   5.283   1.167   3.760  0.0845 -0.3042 -0.2967
10040TIP3    H151535   5.342   1.091   3.752  0.9730  0.4612 -1.3649
10040TIP3    H251536   5.277   1.201   3.670 -1.8236 -0.2151 -0.1806
10041TIP3   OH251537   2.379   2.864  15.105 -0.5401 -0.4523  0.1711
10041TIP3    H151538   2.400   2.869  15.011 -1.7188  0.5120 -0.0618
10041TIP3    H251539   2.298   2.914  15.114  0.2970  0.6563  1.9301
10042TIP3   OH251540   3.295   3.812  14.064 -0.3426 -0.1161 -0.8387
10042TIP3    H151541   3.293   3.904  14.038  0.0092  0.1531  0.0616
10042TIP3    H251542   3.352   3.770  14.000  3.8819  1.2759  1.6044
10043TIP3   OH251543   1.561   0.955  15.059  0.0493 -0.0527 -0.2762
10043TIP3    H151544   1.482   0.901  15.053 -1.2748  1.8556 -1.4933
10043TIP3    H251545   1.537   1.036  15.013  2.5570  0.8103 -0.1960
10044TIP3   OH251546   0.239   6.065  10.464 -0.5650  0.3411 -0.1878
10044TIP3    H151547   0.218   6.067  10.558 -0.9757  0.7133 -0.2855
10044TIP3    H251548   0.256   6.157  10.442 -0.6126  0.2716 -0.5103
10045TIP3   OH251549   5.375   6.620  14.080  0.7047 -0.3803 -0.1905
10045TIP3    H151550   5.399   6.671  14.002  1.0902 -1.4469 -0.7916
10045TIP3    H251551   5.406   6.531  14.061  1.0236 -0.6141  1.2898
10046TIP3   OH251552   1.685   6.126   5.087  0.1602 -0.0036  0.1398
10046TIP3    H151553   1.640   6.209   5.104  0.4829  0.0125  0.9905
10046TIP3    H251554   1.630   6.059   5.127 -1.4526 -0.5517 -2.7933
10047TIP3   OH251555   3.150   0.920  14.038  0.2555 -0.2054  0.9064
10047TIP3    H151556   3.076   0.980  14.028  1.5950  1.1680 -1.4849
10047TIP3    H251557   3.215   0.969  14.087  0.8662 -0.1418  0.0507
10048TIP3   OH251558   0.365   2.760   4.735  0.1410 -0.1832 -0.0678
10048TIP3    H151559   0.298   2.811   4.780  0.1727 -0.8045  0.7137
10048TIP3    H251560   0.338   2.669   4.748  1.0259 -0.4368  0.0998
10049TIP3   OH251561   1.560   2.251  15.696 -0.0905 -0.4427 -0.3017
10049TIP3    H151562   1.641   2.291  15.663 -0.7717 -0.2477 -1.8519
10049TIP3    H251563   1.490   2.298  15.651 -1.1522  0.0507  1.7396
10050TIP3   OH251564   3.092   5.553   4.371  0.7465 -0.0417  0.3059
10050TIP3    H151565   3.121   5.480   4.316  2.7218  0.2690  0.8676
10050TIP3    H251566   3.165   5.569   4.430  0.3379  2.3473  0.2584
10051TIP3   OH251567   5.992   5.786   0.285  0.1533  0.5384  0.4118
10051TIP3    H151568   6.087   5.787   0.280  0.1872  1.2655  0.9972
10051TIP3    H251569   5.963   5.797   0.194  0.6218  0.0537  0.2012
10052TIP3   OH251570   1.033   2.375   0.414 -0.2169  0.0380  0.4320
10052TIP3    H151571   1.020   2.397   0.322  0.8818  1.7918  0.6490
10052TIP3    H251572   1.038   2.460   0.458  2.6083 -0.6409  1.6066
10053TIP3   OH251573   5.177   0.253   3.577 -0.1822  0.0263 -0.2819
10053TIP3    H151574   5.136   0.292   3.500  0.2241 -0.1769 -0.6049
10053TIP3    H251575   5.107   0.249   3.642 -0.3562  0.8303 -0.4074
10054TIP3   OH251576   5.742   0.206  16.638 -0.4514 -0.4758 -0.2824
10054TIP3    H151577   5.787   0.201  16.554 -0.0750  0.0927 -0.1232
10054TIP3    H251578   5.654   0.173  16.621  0.4389 -3.1224 -0.2788
10055TIP3   OH251579   4.443   4.287   3.785  0.4510 -0.3021 -0.4162
10055TIP3    H151580   4.349   4.278   3.797  0.3623 -0.4906 -1.2174
10055TIP3    H251581   4.481   4.220   3.843  0.1399  0.3458  0.5556
10056TIP3   OH251582   0.814   5.097  10.898 -0.3248 -0.1425  0.2426
10056TIP3    H151583   0.751   5.038  10.939 -0.5406 -0.7571 -0.9408
10056TIP3    H251584   0.762   5.150  10.837  0.0862  0.3358  0.2953
10057TIP3   OH251585   4.707   3.722  11.949 -0.2605 -0.3816  0.1991
10057TIP3    H151586   4.629   3.755  11.994  0.3986 -0.0275  1.1327
10057TIP3    H251587   4.780   3.760  11.998  0.5341 -2.4955  0.7615
10058TIP3   OH251588   6.312   4.626  15.733 -0.3709 -0.4257 -0.1218
10058TIP3    H151589   6.347   4.576  15.660 -0.1981 -1.9665  0.9801
10058TIP3    H251590   6.263   4.697  15.692 -0.0346 -1.0845 -1.7229
10059TIP3   OH251591   6.535   0.989  11.589 -0.5912 -0.4220  0.4794
10059TIP3    H151592   6.587   1.007  11.510  1.3752  1.4714  2.0549
10059TIP3    H251593   6.448   1.023  11.568 -0.1011  0.0921 -0.8693
10060TIP3   OH251594   4.789   3.238  11.075 -0.1151  0.0133 -0.2800
10060TIP3    H151595   4.856   3.177  11.105 -0.0358  0.3466  0.2478
10060TIP3    H251596   4.837   3.318  11.054  0.0305 -0.6386 -2.7233
10061TIP3   OH251597   6.686   2.935  14.159 -0.1801  0.2467 -0.0188
10061TIP3    H151598   6.626   2.875  14.115 -0.4463  0.1636  0.4481
10061TIP3    H251599   6.649   2.946  14.247 -1.4337  2.9052 -0.7731
10062TIP3   OH251600   4.821   2.390  15.234  0.0522 -0.2790 -0.4065
10062TIP3    H151601   4.812   2.298  15.257  0.1017 -0.0593  0.5478
10062TIP3    H251602   4.812   2.393  15.139 -0.7273 -1.1705 -0.3678
10063TIP3   OH251603   2.802   6.044   0.612 -0.2691 -0.0825 -0.6374
10063TIP3    H151604   2.817   6.113   0.547  0.2203  1.7605  1.3170
10063TIP3    H251605   2.783   6.091   0.693 -1.7686 -2.2983  0.3960
10064TIP3   OH251606   3.561   1.411   4.585  0.0093 -0.1506  0.4127
10064TIP3    H151607   3.511   1.403   4.504  1.7549  1.9328 -0.9823
10064TIP3    H251608   3.519   1.484   4.632  0.1953 -0.0598  0.4410
10065TIP3   OH251609   1.885   1.473  12.266  0.2652 -0.5212  0.0208
10065TIP3    H151610   1.848   1.448  12.351  0.8887  1.2549  0.8612
10065TIP3    H251611   1.819   1.531  12.228  0.7496  0.1142  0.1194
10066TIP3   OH251612   0.549   2.232   0.167 -0.4687  0.2964  0.0711
10066TIP3    H151613   0.611   2.290   0.212  1.8538 -1.5431 -0.5642
10066TIP3    H251614   0.587   2.218   0.081 -1.7638 -0.9412 -0.3447
10067TIP3   OH251615   2.367   0.609   2.289 -0.3234  0.0907 -0.6062
10067TIP3    H151616   2.380   0.640   2.379 -2.3269 -0.7147  0.0078
10067TIP3    H251617   2.345   0.517   2.298 -0.0177 -0.1382 -1.9826
10068TIP3   OH251618   2.316   1.417   3.130 -0.3081  0.0457 -0.3618
10068TIP3    H151619   2.279   1.346   3.077  0.5825 -0.5190 -0.2446
10068TIP3    H251620   2.244   1.445   3.186 -1.3342  0.7503 -1.9416
10069TIP3   OH251621   0.314   5.616  15.829 -0.1162 -0.4053 -0.4453
10069TIP3    H151622   0.246   5.567  15.874  1.3715 -1.2082  1.0432
10069TIP3    H251623   0.306   5.589  15.737 -1.8284 -0.3872 -0.3401
10070TIP3   OH251624   3.108   3.225  15.376  0.1092  0.5400 -0.3748
10070TIP3    H151625   3.055   3.228  15.297 -0.4826  2.0933  0.0388
10070TIP3    H251626   3.167   3.300  15.368 -1.1209  1.7837  1.3895
10071TIP3   OH251627   5.790   4.028   6.361  0.0487  0.3306 -0.1658
10071TIP3    H151628   5.735   4.079   6.301  0.3070  0.6739 -0.1127
10071TIP3    H251629   5.738   3.949   6.380 -0.1281  0.3244 -0.6611
10072TIP3   OH251630   1.122   5.027  15.004 -0.1065  0.0448  0.4761
10072TIP3    H151631   1.201   5.067  15.040  1.1725 -0.3648 -1.6979
10072TIP3    H251632   1.145   4.936  14.988  0.0139  0.5144 -2.7296
10073TIP3   OH251633   2.130   4.226   0.802  0.0651  0.0338 -0.5603
10073TIP3    H151634   2.036   4.212   0.818 -0.1999  1.9840 -0.1968
10073TIP3    H251635   2.173   4.161   0.858 -1.0599 -1.1209 -0.9936
10074TIP3   OH251636   5.663   2.244   2.109  0.6381 -0.3369 -0.5859
10074TIP3    H151637   5.644   2.184   2.038  0.5022 -1.2556  0.2061
10074TIP3    H251638   5.712   2.192   2.173  2.6391  0.9998 -0.9221
10075TIP3   OH251639   0.038   5.679   0.619 -0.4042  0.1269 -0.1321
10075TIP3    H151640   0.014   5.728   0.698 -0.1350  0.6030 -0.3424
10075TIP3    H251641  -0.004   5.594   0.630 -1.5325  0.6662 -0.1213
10076TIP3   OH251642   1.146   4.642  14.769  0.5227  0.2371 -0.2267
10076TIP3    H151643   1.161   4.557  14.728  1.2140  0.5310 -0.6097
10076TIP3    H251644   1.060   4.635  14.810 -0.0820 -0.1316 -1.5415
10077TIP3   OH251645   5.490   3.199  13.819 -0.1429  0.3511  0.0251
10077TIP3    H151646   5.417   3.146  13.787  0.5636 -0.9834  0.5353
10077TIP3    H251647   5.467   3.219  13.910 -0.1620  0.4786 -0.0066
10078TIP3   OH251648   0.677   1.250   2.199 -0.1468  0.4973 -0.0085
10078TIP3    H151649   0.610   1.293   2.147 -0.9697 -1.1596 -0.4042
10078TIP3    H251650   0.742   1.318   2.217  0.1912  1.1717 -3.1910
10079TIP3   OH251651   3.691   3.563   4.703  0.0239 -0.8618 -0.7476
10079TIP3    H151652   3.599   3.583   4.685  0.2848 -0.6792 -1.9783
10079TIP3    H251653   3.718   3.630   4.767 -0.5635 -0.6107 -0.7599
10080TIP3   OH251654   1.674   2.248  13.821  0.1076 -0.2305 -0.3602
10080TIP3    H151655   1.746   2.281  13.875  0.3014 -0.7668 -0.2797
10080TIP3    H251656   1.601   2.306  13.840  0.7098  0.7530 -0.9749
10081TIP3   OH251657   3.764   0.767  16.740 -0.2312  1.0622  0.1087
10081TIP3    H151658   3.695   0.790  16.677 -0.6378 -0.8345 -0.2065
10081TIP3    H251659   3.735   0.684  16.777  2.1857 -0.1304 -0.5028
10082TIP3   OH251660   3.667   6.232  14.912 -0.6134 -0.1408  0.0474
10082TIP3    H151661   3.684   6.184  14.831  0.9002  0.2686  0.0754
10082TIP3    H251662   3.708   6.318  14.897 -0.1554 -0.1215  1.2923
10083TIP3   OH251663   3.721   3.222  15.681 -0.1712 -0.2025  0.0869
10083TIP3    H151664   3.682   3.243  15.596 -0.7700 -1.7179 -0.0440
10083TIP3    H251665   3.814   3.212  15.663  0.2787  2.7764  0.2708
10084TIP3   OH251666   3.253   3.072   4.371  0.8426 -0.6153 -0.8056
10084TIP3    H151667   3.341   3.098   4.400  1.0120 -1.6574 -0.3463
10084TIP3    H251668   3.251   2.977   4.382 -0.1296 -0.6820 -1.4193
10085TIP3   OH251669   5.455   4.568   1.500 -0.1899 -0.3252  0.0504
10085TIP3    H151670   5.440   4.474   1.505 -2.0318 -0.1135 -0.7103
10085TIP3    H251671   5.369   4.607   1.516  0.3169  1.1823 -0.6785
10086TIP3   OH251672   1.536   4.813   4.874 -0.2480  0.9868 -0.1665
10086TIP3    H151673   1.595   4.756   4.825 -0.9095  1.7053 -1.8783
10086TIP3    H251674   1.493   4.866   4.807 -0.9687  2.2426  1.2429
10087TIP3   OH251675   2.903   5.401   0.082  0.6321  0.4212 -0.4905
10087TIP3    H151676   2.863   5.415   0.168  1.6730  1.5526 -0.1573
10087TIP3    H251677   2.906   5.306   0.071 -0.7021  0.2809  0.1334
10088TIP3   OH251678   1.142   1.433   0.454  0.0619  0.1911 -0.0919
10088TIP3    H151679   1.174   1.454   0.542 -1.7038  0.5909  0.4858
10088TIP3    H251680   1.098   1.512   0.424  0.9962  0.2050 -1.5425
10089TIP3   OH251681   4.328   3.934  14.585 -0.3810 -0.2438 -0.1485
10089TIP3    H151682   4.328   4.028  14.599  0.3264 -0.5149  2.1371
10089TIP3    H251683   4.302   3.923  14.494 -1.3040  2.1053 -0.2335
10090TIP3   OH251684   3.151   5.716   4.031  0.3290 -0.4669  0.1550
10090TIP3    H151685   3.197   5.636   4.058  0.6085  0.3069  2.2183
10090TIP3    H251686   3.069   5.714   4.080  0.1831  0.3273 -0.0380
10091TIP3   OH251687   3.383   3.385  13.175  0.4792 -0.1089  0.5438
10091TIP3    H151688   3.302   3.339  13.151  0.6185  0.6446 -1.5894
10091TIP3    H251689   3.358   3.440  13.249 -0.8543 -0.2570  0.2373
10092TIP3   OH251690   0.205   0.737  13.463  0.2905 -0.6514 -0.2550
10092TIP3    H151691   0.237   0.677  13.396  1.5860 -0.4792  0.1831
10092TIP3    H251692   0.249   0.709  13.543  0.1641  0.2840  0.1546
10093TIP3   OH251693   6.731   5.309   4.374 -0.0049  0.1927  0.0345
10093TIP3    H151694   6.821   5.279   4.359 -0.2506  0.1995 -1.6399
10093TIP3    H251695   6.678   5.251   4.319 -1.0893 -0.0803  1.3204
10094TIP3   OH251696   0.663   5.246  13.329  0.3533 -0.1622 -0.3309
10094TIP3    H151697   0.657   5.244  13.234 -0.4606  0.6915 -0.3023
10094TIP3    H251698   0.585   5.199  13.359 -0.3495  1.1483 -0.0721
10095TIP3   OH251699   5.282   1.632  15.582 -0.3127  0.4669 -0.1551
10095TIP3    H151700   5.246   1.720  15.573  1.2986  1.0971 -0.8776
10095TIP3    H251701   5.280   1.614  15.676 -2.5225  0.4160 -0.1742
10096TIP3   OH251702   6.579   6.730   5.018 -0.4226 -0.1780 -0.0564
10096TIP3    H151703   6.579   6.809   5.072 -2.2168 -0.2561  0.1206
10096TIP3    H251704   6.520   6.749   4.946  1.1596 -0.4465 -1.5078
10097TIP3   OH251705   5.747   2.523   4.352  0.5183  0.2086  0.4531
10097TIP3    H151706   5.693   2.520   4.430 -2.4514 -1.5019 -1.4931
10097TIP3    H251707   5.784   2.435   4.345  2.8215  1.0415  1.1467
10098TIP3   OH251708   4.874   2.237   4.877 -0.0068  0.0794  0.0001
10098TIP3    H151709   4.927   2.317   4.886 -0.3318  0.5616 -1.9006
10098TIP3    H251710   4.937   2.166   4.890  0.4482  0.6180  0.9164
10099TIP3   OH251711   2.108   5.036   2.328  0.0967  0.9399  0.4066
10099TIP3    H151712   2.134   4.944   2.340  0.8677  1.0093 -0.6101
10099TIP3    H251713   2.165   5.068   2.259  0.6886  2.5573  1.5825
10100TIP3   OH251714   3.600   4.454  16.922 -0.2088  0.3844 -0.0630
10100TIP3    H151715   3.518   4.424  16.961 -0.8149  1.6450 -0.2962
10100TIP3    H251716   3.611   4.400  16.844 -1.2577  0.7177 -0.4684
10101TIP3   OH251717   1.498   3.553   0.354 -0.4152 -0.6806  0.4930
10101TIP3    H151718   1.484   3.499   0.277 -1.9879 -1.3319  1.1833
10101TIP3    H251719   1.581   3.523   0.391  0.0724 -0.7362 -0.6201
10102TIP3   OH251720   3.353   1.076   5.309 -0.1353 -0.5030 -0.2126
10102TIP3    H151721   3.272   1.123   5.331  1.1299  1.9883 -0.4671
10102TIP3    H251722   3.418   1.115   5.368  0.7830 -3.0084  0.5423
10103TIP3   OH251723   3.421   5.389   3.690 -0.5043 -0.7557 -0.4003
10103TIP3    H151724   3.495   5.335   3.716  0.5540  0.9220  0.2353
10103TIP3    H251725   3.415   5.377   3.595  0.8991 -0.5578 -0.5358
10104TIP3   OH251726   6.403   2.142   5.718  0.0653 -0.2219 -0.0924
10104TIP3    H151727   6.403   2.103   5.631  1.6377  0.9193 -0.6438
10104TIP3    H251728   6.312   2.167   5.734 -0.1578 -0.0148 -1.5956
10105TIP3   OH251729   6.448   2.759  15.990  0.5075  0.2521  0.2747
10105TIP3    H151730   6.516   2.824  15.976  0.6565  0.3751  1.4434
10105TIP3    H251731   6.370   2.810  16.014  0.5829  0.0205  1.0381
10106TIP3   OH251732   2.552   2.988   5.984 -0.1807 -0.1003 -0.7485
10106TIP3    H151733   2.486   2.961   6.048 -1.0977  2.1749 -0.6172
10106TIP3    H251734   2.585   2.906   5.947 -0.6912 -1.4301  1.5467
10107TIP3   OH251735   1.720   5.587   5.830  0.4618 -0.9834  0.1412
10107TIP3    H151736   1.636   5.552   5.800 -0.2787  1.0561 -0.3458
10107TIP3    H251737   1.778   5.510   5.835 -0.9133 -2.1818 -1.2701
10108TIP3   OH251738   1.082   5.483  10.673 -0.2127  0.7622 -0.2939
10108TIP3    H151739   1.073   5.405  10.618 -2.9067  1.1218 -0.4951
10108TIP3    H251740   1.171   5.515  10.656  0.3534 -1.2852 -1.4847
10109TIP3   OH251741   1.809   5.956  15.282  0.2056 -0.0588 -0.4153
10109TIP3    H151742   1.826   5.880  15.338  1.0736 -0.8156 -1.6577
10109TIP3    H251743   1.883   6.015  15.300  0.1576 -0.0262 -0.3219
10110TIP3   OH251744   6.589   4.783  12.182  0.3824 -0.6580 -0.1036
10110TIP3    H151745   6.527   4.856  12.191  1.3094  0.1797 -0.3864
10110TIP3    H251746   6.628   4.795  12.096 -0.0179 -1.9620 -0.4924
10111TIP3   OH251747   4.630   1.266  14.839  0.2333  0.1527 -0.1621
10111TIP3    H151748   4.577   1.186  14.830 -1.3612  1.3071 -1.8569
10111TIP3    H251749   4.700   1.255  14.775 -0.1977  0.2375 -0.6612
10112TIP3   OH251750   1.395   1.509   3.243  0.1916 -0.0695  0.0781
10112TIP3    H151751   1.318   1.455   3.227  0.8008 -0.8482 -0.2590
10112TIP3    H251752   1.376   1.554   3.325 -0.2473 -0.9347  0.4604
10113TIP3   OH251753   6.491   1.141  14.713  0.0750  0.7763  0.2009
10113TIP3    H151754   6.520   1.060  14.671 -1.5431 -0.5280  1.4568
10113TIP3    H251755   6.430   1.180  14.651 -2.2003 -1.0726  1.0992
10114TIP3   OH251756   0.780   0.141   1.282  0.6021 -0.2503  0.3217
10114TIP3    H151757   0.794   0.224   1.328  0.5692 -1.5565  2.8410
10114TIP3    H251758   0.841   0.080   1.322  0.1336 -1.6338 -0.9818
10115TIP3   OH251759   2.566   0.291   3.767  0.3047 -0.0188 -0.3605
10115TIP3    H151760   2.643   0.348   3.776  0.4379 -0.0683 -1.1276
10115TIP3    H251761   2.543   0.296   3.674  0.0995 -0.9328 -0.3706
10116TIP3   OH251762   3.523   3.535  15.315 -0.8805 -0.2407 -0.0452
10116TIP3    H151763   3.475   3.610  15.281 -0.8746 -0.1130  0.2245
10116TIP3    H251764   3.615   3.555  15.296 -1.0139 -1.0673 -1.7014
10117TIP3   OH251765   1.770   0.927  13.336  0.2543 -0.0510  0.5289
10117TIP3    H151766   1.827   1.004  13.338  0.5351 -0.2559  2.6111
10117TIP3    H251767   1.828   0.854  13.358 -0.0515 -0.8685 -1.2285
10118TIP3   OH251768   3.300   6.407  12.607 -0.6206  0.2884 -0.2307
10118TIP3    H151769   3.217   6.454  12.599 -1.7539 -1.4550  0.8225
10118TIP3    H251770   3.319   6.378  12.517 -0.1946  2.1417 -0.7981
10119TIP3   OH251771   3.793   0.399   5.139 -0.6470 -0.6073  0.5851
10119TIP3    H151772   3.841   0.460   5.194 -1.7051 -1.5020  2.5910
10119TIP3    H251773   3.733   0.353   5.199 -0.6634 -2.8365 -0.9942
10120TIP3   OH251774   1.162   3.476  12.159 -0.2124 -0.2966 -0.1837
10120TIP3    H151775   1.159   3.545  12.226  0.0124 -0.4408 -0.0241
10120TIP3    H251776   1.186   3.521  12.078 -2.1288  0.1812 -0.5532
10121TIP3   OH251777   0.981   2.357  12.608  0.0174  0.2184 -0.1690
10121TIP3    H151778   0.943   2.400  12.684 -1.6475  1.2011 -1.4963
10121TIP3    H251779   0.984   2.425  12.541 -2.1944 -1.4788 -2.1791
10122TIP3   OH251780   1.954   4.746  12.099 -0.0870 -0.4965  0.2770
10122TIP3    H151781   1.867   4.727  12.064 -0.6448  1.3452  0.5881
10122TIP3    H251782   2.011   4.745  12.021 -0.9097  1.2101 -0.3848
10123TIP3   OH251783   1.031   0.347   0.334 -0.7608  0.3874 -0.0952
10123TIP3    H151784   1.026   0.372   0.242 -1.4829  1.2711  0.1640
10123TIP3    H251785   1.038   0.430   0.381  0.0560 -0.0721  0.6350
10124TIP3   OH251786   4.122   6.029   4.310 -0.4459 -0.1215  0.1856
10124TIP3    H151787   4.185   5.990   4.370 -2.4541 -3.4952  0.3767
10124TIP3    H251788   4.139   6.123   4.314  2.9737 -0.6685  1.9116
10125TIP3   OH251789   3.582   3.675   0.565 -0.4211  0.2058  0.1021
10125TIP3    H151790   3.578   3.612   0.493 -0.6042  0.1388  0.1714
10125TIP3    H251791   3.612   3.623   0.640  0.3186  0.3895 -0.0552
10126TIP3   OH251792   0.485   6.450  15.108  0.6622  0.1485 -0.2458
10126TIP3    H151793   0.550   6.466  15.177  0.5343  1.5043 -0.4243
10126TIP3    H251794   0.524   6.487  15.029  0.3275 -0.4080 -0.6798
10127TIP3   OH251795   0.193   2.513  11.944  0.6305 -0.0699  0.5405
10127TIP3    H151796   0.125   2.580  11.943  0.7463  0.0473  0.4925
10127TIP3    H251797   0.200   2.484  11.853  0.6612 -0.0665  0.5420
10128TIP3   OH251798   5.973   3.792  12.566  0.3424 -0.6722  0.6118
10128TIP3    H151799   5.907   3.778  12.498  1.6561 -0.6196 -0.7052
10128TIP3    H251800   5.923   3.827  12.640 -1.2616 -1.5901  0.0245
10129TIP3   OH251801   2.786   5.555   3.431  0.2449  0.4834  0.1918
10129TIP3    H151802   2.697   5.545   3.399  0.2669  2.4519 -0.6549
10129TIP3    H251803   2.837   5.578   3.353  0.9469  1.9994  1.0398
10130TIP3   OH251804   4.387   4.274   5.703 -0.2306 -0.5676  0.0330
10130TIP3    H151805   4.356   4.205   5.761  0.3243 -0.5870  0.3205
10130TIP3    H251806   4.327   4.272   5.629 -1.0869 -0.3943  0.7057
10131TIP3   OH251807   1.771   6.324   1.920  0.4055  0.3173  0.7682
10131TIP3    H151808   1.811   6.294   2.002 -0.2208 -1.3520  0.5062
10131TIP3    H251809   1.682   6.289   1.922  0.0666  1.0804 -0.1912
10132TIP3   OH251810   5.379   5.894  14.021  0.0491 -0.0045 -0.0255
10132TIP3    H151811   5.417   5.841  13.951  0.9093 -1.2920  1.3506
10132TIP3    H251812   5.453   5.947  14.054 -0.4267  0.8492 -0.3044
10133TIP3   OH251813   0.321   0.250  14.855  0.4090 -0.3476  0.2520
10133TIP3    H151814   0.275   0.228  14.936 -0.5951 -0.0639 -0.2302
10133TIP3    H251815   0.286   0.189  14.790  0.6296 -0.0457 -0.1521
10134TIP3   OH251816   1.344   0.844  15.132  0.4490  0.2346 -0.1737
10134TIP3    H151817   1.284   0.807  15.067 -0.0355  0.4690  0.1411
10134TIP3    H251818   1.300   0.832  15.216  1.1846 -0.2924  0.1531
10135TIP3   OH251819   2.209   1.340  15.903 -0.7311 -0.2889 -0.5817
10135TIP3    H151820   2.237   1.348  15.812 -0.0218 -0.0825 -0.3493
10135TIP3    H251821   2.243   1.255  15.931  0.2337  0.2455 -0.1060
10136TIP3   OH251822   4.971   3.187  16.674  0.7594 -0.2196 -0.2402
10136TIP3    H151823   5.027   3.188  16.751  0.7660  0.5041 -0.2443
10136TIP3    H251824   5.031   3.183  16.600  0.9064  1.7357 -0.2939
10137TIP3   OH251825   4.022   3.072   2.160  0.1471  0.2263 -0.2924
10137TIP3    H151826   3.945   3.031   2.120 -0.4058  1.3840 -0.4579
10137TIP3    H251827   4.085   3.079   2.088  0.6269 -1.1494 -0.0534
10138TIP3   OH251828   2.152   4.207  15.006  0.6003 -0.6551 -0.1586
10138TIP3    H151829   2.221   4.140  15.013  0.4597 -0.7809  0.0361
10138TIP3    H251830   2.111   4.209  15.093 -0.1610 -1.1432 -0.4952
10139TIP3   OH251831   4.774   1.079  14.241  0.4388  0.3162 -0.0036
10139TIP3    H151832   4.868   1.085  14.260  0.4410  1.2891 -0.2718
10139TIP3    H251833   4.770   1.056  14.148  0.4036 -0.3821  0.1621
10140TIP3   OH251834   2.691   4.240   1.184 -0.3982 -0.1511 -0.2940
10140TIP3    H151835   2.618   4.298   1.164 -0.2263 -0.2692 -1.3400
10140TIP3    H251836   2.671   4.159   1.135 -0.6297 -0.9767  1.1131
10141TIP3   OH251837   2.822   0.120   0.315  0.2696 -0.2607  0.7944
10141TIP3    H151838   2.809   0.030   0.347 -0.1283  0.1224  1.7386
10141TIP3    H251839   2.740   0.164   0.334  0.7942  0.5594  1.2136
10142TIP3   OH251840   4.089   6.383  11.365  0.3385 -0.1045  0.1295
10142TIP3    H151841   4.010   6.437  11.360  1.7879  2.3228  1.4671
10142TIP3    H251842   4.090   6.351  11.456  0.4576 -0.9204 -0.1454
10143TIP3   OH251843   0.195   5.748   3.869 -0.2169 -0.2700  0.4130
10143TIP3    H151844   0.242   5.831   3.874  1.5451 -1.2605  1.2642
10143TIP3    H251845   0.191   5.727   3.776 -0.0112  0.3917  0.2532
10144TIP3   OH251846   3.778   3.628  14.956  0.2700 -0.9457  0.2860
10144TIP3    H151847   3.784   3.537  14.928 -1.6835 -1.0484  0.0397
10144TIP3    H251848   3.688   3.654  14.934  1.0635  1.3603 -0.5981
10145TIP3   OH251849   0.831   1.814   5.681 -0.2979  0.1022 -0.2384
10145TIP3    H151850   0.811   1.748   5.614  0.6967 -0.5526  0.0882
10145TIP3    H251851   0.925   1.805   5.696 -0.0885  1.7965 -0.3753
10146TIP3   OH251852   3.231   6.592  14.265 -0.0864 -0.3496  0.2452
10146TIP3    H151853   3.300   6.647  14.302 -1.5179  0.0231  2.5866
10146TIP3    H251854   3.246   6.506  14.304 -0.7566 -0.3277  0.5711
10147TIP3   OH251855   6.495   2.629  13.784  0.1040  0.0632 -0.3415
10147TIP3    H151856   6.520   2.718  13.760 -0.3367  0.0030 -1.0553
10147TIP3    H251857   6.530   2.574  13.714  3.0583 -0.7300  1.6094
10148TIP3   OH251858   3.694   4.672  13.279  0.0219  0.3297 -0.6790
10148TIP3    H151859   3.758   4.712  13.220  0.7930 -0.9237 -0.7290
10148TIP3    H251860   3.614   4.668  13.227  0.6115 -0.4807 -1.5674
10149TIP3   OH251861   2.460   3.313  12.527  0.3700  0.1014 -0.1580
10149TIP3    H151862   2.493   3.223  12.524  1.5800  0.5315 -0.4855
10149TIP3    H251863   2.539   3.367  12.529 -0.3337  1.1398  1.1563
10150TIP3   OH251864   5.262   1.378   1.831  0.0500 -0.7975  0.4707
10150TIP3    H151865   5.167   1.387   1.838  0.0048 -0.5395 -0.4497
10150TIP3    H251866   5.292   1.460   1.792  0.5052 -1.4006 -0.4695
10151TIP3   OH251867   5.207   3.799   3.161 -0.6391  0.4925 -0.3753
10151TIP3    H151868   5.280   3.774   3.219 -0.9954 -0.6960 -0.4274
10151TIP3    H251869   5.135   3.820   3.221 -0.1154  2.2710 -0.2949
10152TIP3   OH251870   2.770   0.073  11.080  0.0419  0.2662 -0.8531
10152TIP3    H151871   2.804  -0.015  11.099 -0.9041  0.4684  2.3796
10152TIP3    H251872   2.824   0.131  11.132 -0.5796  1.4076 -1.4515
10153TIP3   OH251873   2.593   1.457   3.430  0.6224  0.1520 -0.4296
10153TIP3    H151874   2.662   1.401   3.466  0.5082 -0.0025 -0.4504
10153TIP3    H251875   2.586   1.529   3.493  0.0999 -0.3602  0.1071
10154TIP3   OH251876   5.114   6.539  12.408  0.1555 -0.1186 -0.0090
10154TIP3    H151877   5.199   6.578  12.390 -0.7793  1.4701 -1.2930
10154TIP3    H251878   5.052   6.596  12.363 -1.3109 -3.4599 -2.6720
10155TIP3   OH251879   6.760   0.245  12.544  0.5252 -0.2356 -0.3197
10155TIP3    H151880   6.745   0.292  12.462  0.8313 -0.1647 -0.3357
10155TIP3    H251881   6.681   0.262  12.595  0.8298  0.7080 -0.1328
10156TIP3   OH251882   0.682   5.334  17.087 -0.4815 -0.2683 -0.1100
10156TIP3    H151883   0.753   5.393  17.061  0.5129 -1.2582  0.2456
10156TIP3    H251884   0.615   5.346  17.021 -0.6520  1.8262  0.3785
10157TIP3   OH251885   0.552   4.532   3.011 -0.4807 -0.1959 -0.6595
10157TIP3    H151886   0.508   4.451   2.984  0.2568 -1.1498  0.8761
10157TIP3    H251887   0.619   4.503   3.073 -0.0428  1.5792 -0.2662
10158TIP3   OH251888   5.675   5.286  14.194  0.6260 -0.3945  0.3981
10158TIP3    H151889   5.609   5.356  14.198  0.7267 -0.3504  2.6724
10158TIP3    H251890   5.624   5.206  14.187  0.4478 -0.2146 -0.4766
10159TIP3   OH251891   4.873   6.264   1.405  0.3053 -0.3882 -0.2925
10159TIP3    H151892   4.790   6.299   1.437 -1.2401 -3.7563 -0.2771
10159TIP3    H251893   4.926   6.254   1.484 -0.6677 -1.5596  0.2505
10160TIP3   OH251894   3.112   5.037  12.468  0.3202  0.1213 -0.8050
10160TIP3    H151895   3.017   5.029  12.464  0.3657 -0.5656 -0.6724
10160TIP3    H251896   3.133   5.102  12.401 -0.2013 -0.0981 -1.1940
10161TIP3   OH251897   0.099   6.042   3.650 -0.3260 -0.0568  0.1435
10161TIP3    H151898   0.090   5.994   3.567 -0.6042 -3.3868  1.9554
10161TIP3    H251899   0.191   6.035   3.672 -0.6465 -1.1394  1.1800
10162TIP3   OH251900   5.255   2.412  10.397 -0.1494 -0.3033  0.2687
10162TIP3    H151901   5.259   2.490  10.341  1.9109 -0.5182  0.0453
10162TIP3    H251902   5.347   2.389  10.412 -0.6972 -3.2523 -0.4359
10163TIP3   OH251903   2.520   2.027   0.947  0.0430  0.6514 -0.0804
10163TIP3    H151904   2.603   2.075   0.953  1.5360 -1.7849  0.2733
10163TIP3    H251905   2.524   1.964   1.019 -1.0019 -1.1331 -1.4979
10164TIP3   OH251906   0.410   3.817   4.054 -0.1717 -0.3347  0.0980
10164TIP3    H151907   0.366   3.900   4.075 -1.6873 -0.9953 -0.3979
10164TIP3    H251908   0.429   3.824   3.961 -0.9398 -0.8277 -0.0996
10165TIP3   OH251909   1.314   3.697  15.800  0.2316 -0.0622  0.5522
10165TIP3    H151910   1.233   3.732  15.839  0.0376 -0.3901  0.4473
10165TIP3    H251911   1.325   3.611  15.841  1.4877  0.6912  1.8869
10166TIP3   OH251912   3.615   4.329  16.683 -0.3970 -0.4922  0.4199
10166TIP3    H151913   3.646   4.383  16.610 -0.7147  0.0054  0.6483
10166TIP3    H251914   3.572   4.254  16.641 -0.3027 -0.3705  0.1021
10167TIP3   OH251915   4.714   1.809  11.783 -0.4411  0.0072  0.1176
10167TIP3    H151916   4.808   1.806  11.763 -0.1930  1.3263  0.9581
10167TIP3    H251917   4.672   1.769  11.707  0.7944 -0.5819 -0.2837
10168TIP3   OH251918   4.799   3.101   5.860  0.1631  0.0617 -0.3350
10168TIP3    H151919   4.814   3.057   5.776 -0.8458 -0.9573 -0.0129
10168TIP3    H251920   4.714   3.145   5.849  1.2599  2.2196 -0.7319
10169TIP3   OH251921   5.315   1.034  16.410 -0.6984 -0.1888  0.5060
10169TIP3    H151922   5.309   1.104  16.345 -0.5213 -1.0629 -0.4806
10169TIP3    H251923   5.384   1.063  16.471 -0.3752  0.3209 -0.0941
10170TIP3   OH251924   3.655   3.652   3.969 -0.1803  0.3599  0.4301
10170TIP3    H151925   3.720   3.686   3.907 -1.3010 -0.7801 -1.4425
10170TIP3    H251926   3.678   3.559   3.979  0.8239  0.7720  2.9023
10171TIP3   OH251927   1.431   0.202  14.300 -0.2404 -0.1430 -0.0404
10171TIP3    H151928   1.388   0.231  14.381  1.1207 -0.7381  0.9288
10171TIP3    H251929   1.383   0.125  14.273  0.9480 -1.6024  1.7770
10172TIP3   OH251930   3.369   3.466  15.697 -0.4067 -0.3817 -0.0193
10172TIP3    H151931   3.313   3.461  15.620 -2.8867  0.3942  1.6030
10172TIP3    H251932   3.402   3.556  15.696 -3.1498  0.7606  1.4564
10173TIP3   OH251933   3.974   5.879  15.747  0.1661 -0.4832  0.1117
10173TIP3    H151934   4.018   5.937  15.685  2.2803 -0.6484  1.3614
10173TIP3    H251935   3.909   5.832  15.694  0.3869  0.9367 -1.4925
10174TIP3   OH251936   5.136   0.323  15.711 -0.1123 -0.0567  0.4868
10174TIP3    H151937   5.191   0.247  15.727  1.6883  1.3584  1.3577
10174TIP3    H251938   5.074   0.323  15.784  1.7837  0.8896  2.1997
10175TIP3   OH251939   4.241   0.279   2.357  0.0741 -0.1974 -0.6579
10175TIP3    H151940   4.195   0.351   2.315 -2.3334 -1.0764  0.2730
10175TIP3    H251941   4.316   0.261   2.301  1.8224  4.1041 -0.0483
10176TIP3   OH251942   1.623   3.647   4.641  0.2921 -0.0808  0.1335
10176TIP3    H151943   1.633   3.692   4.725  1.2042 -0.2977  0.1533
10176TIP3    H251944   1.649   3.556   4.659 -1.7820 -0.7176  0.1593
10177TIP3   OH251945   4.942   6.631   1.330  0.0630 -0.0696 -0.1315
10177TIP3    H151946   4.858   6.625   1.286 -1.1116  2.5971  1.4881
10177TIP3    H251947   4.923   6.617   1.423  1.1723  1.5111  0.3950
10178TIP3   OH251948   6.136   4.178  15.737  0.1845  0.1430 -0.7021
10178TIP3    H151949   6.049   4.215  15.727 -0.1145 -0.2831  0.1984
10178TIP3    H251950   6.130   4.122  15.815  1.2356  0.0382 -0.6761
10179TIP3   OH251951   3.099   2.569   5.759 -0.0215  0.5255  0.1554
10179TIP3    H151952   3.165   2.558   5.690 -0.4334  0.7368 -0.2828
10179TIP3    H251953   3.083   2.664   5.761 -0.0948  0.5072  0.4677
10180TIP3   OH251954   4.213   4.059   5.818 -0.6166  0.0589  0.1029
10180TIP3    H151955   4.153   4.063   5.892  0.7222 -0.5182  1.2636
10180TIP3    H251956   4.221   3.966   5.799 -0.6190  0.1772 -0.5024
10181TIP3   OH251957   6.205   5.334  15.868  0.0088  0.2374  0.2254
10181TIP3    H151958   6.129   5.305  15.817  0.4589 -2.4219  0.9201
10181TIP3    H251959   6.183   5.312  15.959  0.6891  1.5854  0.7472
10182TIP3   OH251960   5.871   2.793   2.617 -0.2112 -0.1314 -0.0527
10182TIP3    H151961   5.848   2.836   2.699  1.9661 -0.7136  0.9422
10182TIP3    H251962   5.802   2.727   2.604 -0.8854  0.3525  0.9924
10183TIP3   OH251963   5.605   3.533   3.908  0.1641 -0.0872  0.2576
10183TIP3    H151964   5.625   3.524   3.815  0.2743  0.7674  0.1928
10183TIP3    H251965   5.689   3.518   3.952  0.4973  1.2460  0.1127
10184TIP3   OH251966   3.120   3.648   4.843  0.4261  0.1556  0.0902
10184TIP3    H151967   3.142   3.716   4.779  1.1506 -1.0610 -1.0030
10184TIP3    H251968   3.033   3.619   4.818 -0.2218  1.2025  1.0517
10185TIP3   OH251969   0.131   0.328  15.375  0.1699  0.2325  0.5478
10185TIP3    H151970   0.125   0.233  15.378 -0.2772  0.2040 -0.7296
10185TIP3    H251971   0.213   0.345  15.328 -0.5665  0.4463 -0.6938
10186TIP3   OH251972   6.271   5.758   0.064  0.0468 -0.1806  0.8783
10186TIP3    H151973   6.295   5.851   0.063 -0.2482 -0.0818  2.0230
10186TIP3    H251974   6.262   5.736   0.157  1.5456 -1.7351  0.7216
10187TIP3   OH251975   2.446   1.771   3.533  0.0442 -0.3690 -0.0164
10187TIP3    H151976   2.458   1.860   3.568 -1.5793 -0.3856  0.6916
10187TIP3    H251977   2.523   1.723   3.563 -0.7002 -0.0666  2.6838
10188TIP3   OH251978   6.770   3.248   2.902 -0.2705  0.0638  0.2766
10188TIP3    H151979   6.772   3.170   2.847  1.1134 -1.3893  2.2573
10188TIP3    H251980   6.848   3.298   2.875 -1.1968  0.8738 -1.0414
10189TIP3   OH251981   0.254   1.654   5.597 -0.5248  0.6587  0.5765
10189TIP3    H151982   0.278   1.641   5.689 -0.3960  2.4468  0.8372
10189TIP3    H251983   0.174   1.706   5.600 -1.2550 -0.3682 -0.3355
10190TIP3   OH251984   0.724   6.230  16.198  0.1593 -0.4656 -0.3757
10190TIP3    H151985   0.779   6.265  16.267  0.6140 -2.3543  0.2707
10190TIP3    H251986   0.677   6.307  16.163  1.8001  0.8932  0.2907
10191TIP3   OH251987   2.963   1.864   6.354  0.0349 -0.8775  0.5182
10191TIP3    H151988   3.042   1.869   6.408  1.3738  2.0849 -1.3782
10191TIP3    H251989   2.891   1.884   6.413  1.0223 -0.9940  1.7938
10192TIP3   OH251990   5.531   0.977   6.214 -0.4424 -0.0123  0.7472
10192TIP3    H151991   5.575   0.958   6.297  0.6418  3.2789  1.0752
10192TIP3    H251992   5.578   0.923   6.150  2.6790  1.6060  1.4705
10193TIP3   OH251993   5.802   3.317  12.062 -0.0034 -0.0424  0.2818
10193TIP3    H151994   5.718   3.362  12.071 -0.5251 -0.9112 -0.0567
10193TIP3    H251995   5.858   3.356  12.129 -0.4683  1.0040  0.0850
10194TIP3   OH251996   1.503   5.069  15.608 -0.2437  0.2604 -0.1262
10194TIP3    H151997   1.557   5.122  15.667  0.0327 -1.4308  1.2276
10194TIP3    H251998   1.430   5.040  15.662 -0.8583 -0.0041 -1.0804
10195TIP3   OH251999   2.359   1.120  11.792 -0.1846  0.2611  0.1042
10195TIP3    H152000   2.432   1.181  11.780 -0.9653  1.7099  2.1532
10195TIP3    H252001   2.355   1.107  11.887 -2.2530 -0.1968 -0.0147
10196TIP3   OH252002   4.915   1.624   3.916  0.0016 -0.2054  0.0437
10196TIP3    H152003   4.973   1.571   3.971 -0.5638 -0.4607  0.4112
10196TIP3    H252004   4.936   1.599   3.826  0.9423  0.2189  0.1332
10197TIP3   OH252005   2.933   5.617  11.152  0.0041 -0.3294  0.1004
10197TIP3    H152006   3.012   5.666  11.128  0.0450 -0.6713 -0.4892
10197TIP3    H252007   2.951   5.527  11.124  0.0783 -0.7801  1.5019
10198TIP3   OH252008   2.545   1.606  16.992 -0.4011  0.3294  0.2688
10198TIP3    H152009   2.609   1.649  17.049  0.9172 -0.6348 -0.4202
10198TIP3    H252010   2.509   1.677  16.939  0.8685  0.7725 -0.0321
10199TIP3   OH252011   1.664   0.764   4.570 -0.1280 -0.2965 -0.5300
10199TIP3    H152012   1.579   0.721   4.582 -0.0713 -0.3335 -0.2695
10199TIP3    H252013   1.727   0.705   4.612 -0.0973  0.2322  0.1770
10200TIP3   OH252014   6.537   3.406   5.594 -0.4240  0.0497  1.1942
10200TIP3    H152015   6.453   3.451   5.581  0.1658  0.6274 -1.0308
10200TIP3    H252016   6.522   3.318   5.559  0.3791  0.7356 -1.0158
10201TIP3   OH252017   3.913   5.472  10.439 -0.3216  0.0491 -0.4230
10201TIP3    H152018   3.942   5.546  10.493  0.2648 -0.3609 -0.1742
10201TIP3    H252019   3.993   5.428  10.413 -0.6751 -0.5563 -0.5028
10202TIP3   OH252020   0.744   5.493  13.374  0.0271 -0.5466  0.0917
10202TIP3    H152021   0.819   5.486  13.433 -0.0677 -1.5928  0.0961
10202TIP3    H252022   0.708   5.405  13.369 -0.5260 -0.2874 -0.8139
10203TIP3   OH252023   4.397   2.514   1.462  0.1569 -0.6188 -0.5625
10203TIP3    H152024   4.436   2.571   1.395 -1.6975  0.7788 -0.5500
10203TIP3    H252025   4.314   2.486   1.424 -0.4355 -0.6863  0.7175
10204TIP3   OH252026   1.955   4.879  15.932  0.1861  0.0473  0.1539
10204TIP3    H152027   1.960   4.878  16.027  0.7455 -0.1123  0.1279
10204TIP3    H252028   1.862   4.881  15.912  0.0299 -1.1773  0.6964
10205TIP3   OH252029   1.897   1.037   5.583 -0.0415  0.2489  0.0907
10205TIP3    H152030   1.828   1.089   5.624  1.3978  1.0803  1.5939
10205TIP3    H252031   1.946   1.099   5.530  1.5289  0.4592  1.6844
10206TIP3   OH252032   3.755   2.561   5.188 -0.6252  0.5563  0.2390
10206TIP3    H152033   3.673   2.555   5.138  1.1346 -1.0861 -2.7407
10206TIP3    H252034   3.800   2.637   5.152 -0.3561  0.8179  1.1031
10207TIP3   OH252035   6.321   4.852  14.051 -0.2890  0.5271  0.4028
10207TIP3    H152036   6.254   4.876  13.987 -1.2851  0.3628  1.3455
10207TIP3    H252037   6.388   4.805  14.001 -1.3241 -0.1008 -0.4214
10208TIP3   OH252038   3.254   0.336   2.406  0.5550  0.0515  0.2239
10208TIP3    H152039   3.211   0.260   2.367  0.3536  0.3494 -0.1399
10208TIP3    H252040   3.206   0.411   2.372  3.0917  0.6280 -2.6356
10209TIP3   OH252041   0.843   0.666  13.739  0.1976 -0.1141 -0.5185
10209TIP3    H152042   0.917   0.649  13.682  0.4466  1.0454 -0.5623
10209TIP3    H252043   0.866   0.624  13.822  0.6434 -0.2528 -0.7110
10210TIP3   OH252044   4.169   6.270  15.785 -0.6095 -0.4418 -0.0434
10210TIP3    H152045   4.095   6.228  15.741 -0.7086 -1.3610  0.9715
10210TIP3    H252046   4.213   6.199  15.832 -0.2293  0.4324  0.9595
10211TIP3   OH252047   2.896   5.609   5.391  0.1707 -0.2800  0.1531
10211TIP3    H152048   2.927   5.581   5.477  0.6192  0.3269  0.1950
10211TIP3    H252049   2.970   5.657   5.353 -0.4807  0.6054 -0.0278
10212TIP3   OH252050   1.751   0.949   2.088 -0.6237  0.7189  0.2335
10212TIP3    H152051   1.796   1.032   2.102  0.2210  0.0258  1.9203
10212TIP3    H252052   1.813   0.883   2.119 -1.7382 -0.4631  0.0363
10213TIP3   OH252053   5.864   3.511  11.026  0.2858  0.6333 -0.0622
10213TIP3    H152054   5.955   3.529  11.049  0.1645  0.6954  0.3920
10213TIP3    H252055   5.835   3.590  10.980  0.6851  0.3014 -0.9059
10214TIP3   OH252056   1.163   5.085  12.473 -0.0454 -0.3050 -0.1427
10214TIP3    H152057   1.099   5.156  12.484 -1.6986 -1.9346  1.3742
10214TIP3    H252058   1.174   5.049  12.560  0.1570 -2.3958 -0.9816
10215TIP3   OH252059   1.797   3.808  15.673  0.0053 -0.2708  0.6582
10215TIP3    H152060   1.862   3.862  15.719 -0.6816  0.9835  0.1928
10215TIP3    H252061   1.717   3.817  15.725 -0.2252 -0.5251  0.3493
10216TIP3   OH252062   2.063   4.429  15.651 -0.1515  0.0944 -0.1185
10216TIP3    H152063   2.074   4.497  15.717  0.2781  0.1061 -0.1995
10216TIP3    H252064   2.033   4.352  15.701 -0.9370  0.4241 -0.0702
10217TIP3   OH252065   3.895   1.751   5.228 -0.0076  0.0935 -0.6312
10217TIP3    H152066   3.928   1.669   5.191 -0.6882  0.0597 -1.1982
10217TIP3    H252067   3.908   1.815   5.158 -2.2061 -0.1729 -1.3634
10218TIP3   OH252068   0.817   4.989  11.242 -0.4084 -0.2209  0.0118
10218TIP3    H152069   0.766   5.032  11.311  0.9750  0.2767  0.7875
10218TIP3    H252070   0.759   4.924  11.205 -1.5977  0.3411  0.8366
10219TIP3   OH252071   2.746   4.086  14.915 -0.1086 -0.0939 -0.0288
10219TIP3    H152072   2.712   3.997  14.915 -1.4880  0.4177 -0.1238
10219TIP3    H252073   2.686   4.135  14.859  0.9861  0.7720 -0.4767
10220TIP3   OH252074   2.274   1.896  13.060 -0.0843 -0.1331 -0.4827
10220TIP3    H152075   2.264   1.909  13.154 -1.4257  0.5741 -0.6856
10220TIP3    H252076   2.213   1.825  13.039 -1.3902  1.1101 -1.0970
10221TIP3   OH252077   6.376   2.813   0.792 -0.1947 -0.2373  0.2323
10221TIP3    H152078   6.413   2.827   0.879  1.1418 -0.7123 -0.2211
10221TIP3    H252079   6.291   2.773   0.808  0.0620 -0.3871  1.3182
10222TIP3   OH252080   1.050   0.295  14.396  0.8199 -0.3522 -0.2371
10222TIP3    H152081   1.089   0.298  14.308  3.0487 -1.8908  0.6039
10222TIP3    H252082   1.112   0.342  14.452 -0.1220 -0.1735  0.7042
10223TIP3   OH252083   3.474   5.814   3.589  0.5923 -0.2249 -0.4769
10223TIP3    H152084   3.420   5.741   3.558 -0.3318  0.5809 -0.8211
10223TIP3    H252085   3.562   5.777   3.597 -0.2221 -1.9357  1.4285
10224TIP3   OH252086   3.833   0.019  10.984  0.6528  0.5650 -0.3244
10224TIP3    H152087   3.811   0.088  10.921  0.5167 -0.3869 -1.3556
10224TIP3    H252088   3.812  -0.063  10.938  0.9916 -0.1727  0.7947
10225TIP3   OH252089   1.315   6.283  15.563 -0.7957 -0.8042  0.3379
10225TIP3    H152090   1.369   6.204  15.572  1.1463  0.1504 -1.8526
10225TIP3    H252091   1.358   6.348  15.618 -1.0097 -0.6303  0.3011
10226TIP3   OH252092   1.141   5.046   1.565 -0.0782 -0.2250  0.4926
10226TIP3    H152093   1.180   5.025   1.480 -0.0484  1.0492  0.1651
10226TIP3    H252094   1.150   5.141   1.572 -0.9122 -0.2060  1.5163
10227TIP3   OH252095   2.152   5.661   5.553  0.2475  0.4447 -0.3299
10227TIP3    H152096   2.067   5.699   5.533 -1.3830 -2.6324  0.0669
10227TIP3    H252097   2.195   5.652   5.468 -0.1224  1.3191 -0.6236
10228TIP3   OH252098   5.151   5.730   2.913  0.5242  0.1181 -0.0371
10228TIP3    H152099   5.227   5.788   2.907 -0.3199  1.4026  1.0669
10228TIP3    H252100   5.109   5.738   2.827  3.0849 -2.8569 -1.7722
10229TIP3   OH252101   1.252   0.566   1.383  0.4260  0.8073 -0.3837
10229TIP3    H152102   1.290   0.647   1.350  1.9700  0.0509 -0.5676
10229TIP3    H252103   1.319   0.530   1.441 -1.2088  0.8433  1.6383
10230TIP3   OH252104   0.267   5.785   1.138  0.3827 -0.0204  0.0902
10230TIP3    H152105   0.266   5.689   1.136  2.3762 -0.2364  2.8172
10230TIP3    H252106   0.175   5.811   1.135 -0.2415 -2.0672  0.2181
10231TIP3   OH252107   1.788   2.577   4.633 -0.1727  0.0671  0.0375
10231TIP3    H152108   1.698   2.544   4.630 -0.3173  0.5164 -0.8863
10231TIP3    H252109   1.787   2.644   4.701 -0.9938  1.3024 -1.1262
10232TIP3   OH252110   3.462   0.342   0.753  0.1158  0.5180  0.2970
10232TIP3    H152111   3.367   0.328   0.751  0.1999 -0.0131 -1.0958
10232TIP3    H252112   3.497   0.260   0.789  0.1759 -0.2525 -1.4401
10233TIP3   OH252113   4.046   1.902  12.855  0.3487  0.5741 -0.6042
10233TIP3    H152114   3.969   1.867  12.900 -0.6336  2.4859 -0.7065
10233TIP3    H252115   4.117   1.894  12.919 -0.3602  0.5363  0.1932
10234TIP3   OH252116   2.301   5.879   3.878  0.5619  0.5164  0.0034
10234TIP3    H152117   2.385   5.906   3.914  0.0292  1.0164  0.9088
10234TIP3    H252118   2.236   5.932   3.926 -0.3055 -0.3118 -0.2299
10235TIP3   OH252119   0.748   3.007  13.985  0.0378 -0.0921 -0.3314
10235TIP3    H152120   0.737   3.098  13.958 -0.7854 -0.5214 -1.5524
10235TIP3    H252121   0.745   2.957  13.903 -2.5846 -1.4755  0.4668
10236TIP3   OH252122   1.318   5.751   0.899 -0.0356  0.2965 -0.1154
10236TIP3    H152123   1.237   5.699   0.904 -0.3566  0.5388 -1.9948
10236TIP3    H252124   1.288   5.842   0.908  0.0357  0.3824 -0.7353
10237TIP3   OH252125   3.831   4.809  13.093  0.4031 -0.2884 -0.0432
10237TIP3    H152126   3.820   4.881  13.031 -0.1907  1.1794  1.6705
10237TIP3    H252127   3.859   4.735  13.039 -1.8369  0.3654 -2.3426
10238TIP3   OH252128   5.080   3.030   3.557 -0.1323 -0.0722  0.4311
10238TIP3    H152129   5.155   2.978   3.585 -0.1502  1.1011  2.9310
10238TIP3    H252130   5.006   2.968   3.559  0.1156 -0.3639  1.8062
10239TIP3   OH252131   4.829   6.393  14.753  0.6317 -0.0290 -0.0889
10239TIP3    H152132   4.783   6.327  14.805  0.3884  0.3155  0.1426
10239TIP3    H252133   4.760   6.434  14.701  0.7109  0.3318  0.0874
10240TIP3   OH252134   2.036   4.691  10.772  0.4015  0.1375 -0.0992
10240TIP3    H152135   2.037   4.604  10.812 -0.1142 -1.7603 -3.7180
10240TIP3    H252136   1.944   4.710  10.759  0.5530  0.2869 -1.0483
10241TIP3   OH252137   3.707   6.567  13.760 -0.1880 -0.0149  0.8242
10241TIP3    H152138   3.695   6.531  13.848  0.3955  1.1055  1.3859
10241TIP3    H252139   3.619   6.573  13.724 -0.7498  1.8824  2.3166
10242TIP3   OH252140   5.336   1.130   5.755 -0.1404  0.1453 -0.5265
10242TIP3    H152141   5.273   1.199   5.775 -2.1696 -1.4387 -1.0945
10242TIP3    H252142   5.393   1.126   5.832 -0.6840  1.6598 -0.0122
10243TIP3   OH252143   0.523   3.561  14.809 -0.7296  0.3523 -0.1317
10243TIP3    H152144   0.593   3.557  14.744  1.4372  1.1787  2.0244
10243TIP3    H252145   0.486   3.473  14.810  1.2678 -0.5308 -0.3055
10244TIP3   OH252146   2.157   2.716   5.311 -0.2371 -0.0360 -0.4267
10244TIP3    H152147   2.246   2.699   5.343 -0.0208  1.9439  0.1933
10244TIP3    H252148   2.169   2.741   5.219 -0.0125  1.1395 -0.0937
10245TIP3   OH252149   3.393   3.706   5.012  0.4303  0.4948  0.3200
10245TIP3    H152150   3.372   3.738   4.924 -1.7083 -0.0024  0.5743
10245TIP3    H252151   3.336   3.629   5.024  3.2385 -1.6916  0.8353
10246TIP3   OH252152   3.568   6.732   0.544  0.8388 -0.3773 -0.4357
10246TIP3    H152153   3.607   6.667   0.603 -0.9357 -1.0385  0.0606
10246TIP3    H252154   3.635   6.800   0.536  1.1144 -0.1701  2.4776
10247TIP3   OH252155   0.691   3.453  11.020 -0.1476  0.7543 -0.1361
10247TIP3    H152156   0.636   3.384  11.057  0.8982 -0.0134  0.0305
10247TIP3    H252157   0.716   3.507  11.095  0.9629 -0.0848  0.1259
10248TIP3   OH252158   4.912   4.942  15.992  0.5070 -0.0448  0.0348
10248TIP3    H152159   4.914   5.038  15.986  0.9890 -0.0367  0.2584
10248TIP3    H252160   5.000   4.914  15.965  0.6845 -0.3584  0.8875
10249TIP3   OH252161   0.249   5.115   1.959 -0.0997 -0.2063 -0.7577
10249TIP3    H152162   0.229   5.205   1.933 -2.0857 -1.3587 -3.6734
10249TIP3    H252163   0.233   5.063   1.880  0.8945 -3.1634  0.8433
10250TIP3   OH252164   5.597   6.724  16.430  0.3122 -0.3462  0.2096
10250TIP3    H152165   5.677   6.751  16.475  1.1709  2.4364 -2.6188
10250TIP3    H252166   5.535   6.704  16.500  2.4930  0.4957  2.5354
10251TIP3   OH252167   4.257   4.655   6.094 -0.3262  0.3798 -0.0893
10251TIP3    H152168   4.347   4.689   6.089  0.0494 -0.6489 -0.8215
10251TIP3    H252169   4.258   4.578   6.036 -0.9794 -1.1690  1.8432
10252TIP3   OH252170   6.505   3.062  15.785  0.5614 -0.0892  0.1433
10252TIP3    H152171   6.483   3.155  15.786  2.6029  0.5062 -1.7018
10252TIP3    H252172   6.546   3.046  15.871  2.4486  1.4041 -0.4026
10253TIP3   OH252173   2.266   6.012   2.983  0.3187 -0.2942  0.4983
10253TIP3    H152174   2.211   6.082   3.019  1.9199  0.2492  1.9843
10253TIP3    H252175   2.318   5.981   3.057  0.2951 -2.4819 -0.3193
10254TIP3   OH252176   4.446   4.446  14.050 -0.1879 -0.5043 -0.3423
10254TIP3    H152177   4.525   4.400  14.021 -0.2392 -0.0862 -1.1824
10254TIP3    H252178   4.447   4.437  14.145 -0.2272 -2.2791 -0.4685
10255TIP3   OH252179   6.097   0.415  10.386  0.2282 -0.0310 -0.2077
10255TIP3    H152180   6.017   0.458  10.415  0.3535 -0.9747  1.6888
10255TIP3    H252181   6.067   0.341  10.332 -0.0537  0.9845 -1.4957
10256TIP3   OH252182   4.595   5.098   0.433 -0.1150 -0.8430 -0.0425
10256TIP3    H152183   4.582   5.013   0.474  0.2885 -1.5384 -1.3138
10256TIP3    H252184   4.660   5.083   0.364  1.3807  0.8824  0.8966
10257TIP3   OH252185   1.682   0.065   1.334 -0.1811  0.3868 -0.4849
10257TIP3    H152186   1.760   0.028   1.374 -0.9089 -0.6683  0.0199
10257TIP3    H252187   1.714   0.135   1.278  1.1192 -0.0645 -0.3294
10258TIP3   OH252188   2.299   0.929  14.771  0.1481  0.0983 -0.6437
10258TIP3    H152189   2.319   0.918  14.864 -1.7436  0.2421 -0.1815
10258TIP3    H252190   2.364   0.876  14.726  1.7661  0.8483  0.6801
10259TIP3   OH252191   1.842   5.439  11.378 -0.3283  0.1999 -0.4090
10259TIP3    H152192   1.775   5.501  11.407 -0.0842  1.3511 -2.1449
10259TIP3    H252193   1.793   5.371  11.331 -0.4701 -0.2313  0.3435
10260TIP3   OH252194   4.068   4.890   4.900 -0.3039 -0.0178  0.1225
10260TIP3    H152195   4.142   4.836   4.871  0.8932  0.5953  1.8519
10260TIP3    H252196   3.998   4.827   4.916  0.0578 -0.7009 -0.8353
10261TIP3   OH252197   5.149   2.609  15.617  0.2741 -0.0658 -0.2048
10261TIP3    H152198   5.054   2.619  15.624  0.2792 -0.5212  0.6011
10261TIP3    H252199   5.161   2.518  15.590  0.5259 -0.5643  1.4737
10262TIP3   OH252200   6.377   2.110   1.817  0.1193 -0.3556 -0.2597
10262TIP3    H152201   6.314   2.054   1.771 -0.2494 -0.4691  0.3746
10262TIP3    H252202   6.327   2.189   1.838  0.6316  0.2103 -1.1310
10263TIP3   OH252203   6.403   5.027  11.228  0.2292  0.0121 -0.1435
10263TIP3    H152204   6.422   4.994  11.316 -3.5387  0.0164  0.8453
10263TIP3    H252205   6.362   5.112  11.242  1.2691  0.9122 -2.0984
10264TIP3   OH252206   6.241   5.374  11.876  0.0942  0.2323 -0.3078
10264TIP3    H152207   6.263   5.430  11.802  0.7734  0.6997  0.2347
10264TIP3    H252208   6.318   5.379  11.933 -0.4406 -0.0796  0.4544
10265TIP3   OH252209   1.892   2.294  16.861 -0.1655  0.2824  0.7372
10265TIP3    H152210   1.813   2.275  16.810  0.3104 -0.6092  0.3259
10265TIP3    H252211   1.897   2.390  16.861  0.3375  0.3296 -1.7335
10266TIP3   OH252212   2.836   2.968  11.995 -0.1644 -0.0336  0.2900
10266TIP3    H152213   2.768   2.900  11.987 -0.2333  0.2079 -1.4316
10266TIP3    H252214   2.787   3.049  12.010 -0.4891  0.4941 -2.9409
10267TIP3   OH252215   1.747   4.614  11.076  0.3704  0.5964 -0.1273
10267TIP3    H152216   1.689   4.612  11.000  1.6449 -1.6539 -1.1451
10267TIP3    H252217   1.754   4.707  11.098 -2.0586  1.0947 -1.1240
10268TIP3   OH252218   2.086   1.046   3.853  0.3540 -0.0006 -0.0400
10268TIP3    H152219   2.113   0.963   3.892  0.4046  0.5405  1.1183
10268TIP3    H252220   1.998   1.028   3.819  0.9171 -0.9058 -1.0590
10269TIP3   OH252221   3.842   6.631  13.293 -0.5794 -0.2057 -0.5129
10269TIP3    H152222   3.848   6.719  13.254 -2.3304  0.3417  0.3322
10269TIP3    H252223   3.868   6.572  13.222 -0.1242  0.9571 -1.3499
10270TIP3   OH252224   0.760   0.893  13.540 -0.6696 -0.2015  0.2897
10270TIP3    H152225   0.810   0.902  13.621 -0.3066  0.3248  0.0235
10270TIP3    H252226   0.815   0.837  13.485 -0.5723  0.0162  0.1594
10271TIP3   OH252227   0.846   0.949  13.138  0.6985  0.1087 -0.7749
10271TIP3    H152228   0.893   1.008  13.196 -0.6781 -1.0174  1.6120
10271TIP3    H252229   0.757   0.985  13.133  0.6298 -0.1569 -1.7060
10272TIP3   OH252230   3.614   2.899   5.890 -0.5721 -0.2542  0.4662
10272TIP3    H152231   3.686   2.859   5.842 -0.8520 -0.2428  0.0290
10272TIP3    H252232   3.549   2.829   5.898 -0.6311 -0.1846  0.6108
10273TIP3   OH252233   0.405   1.046  13.587 -0.2812 -0.5734  0.2197
10273TIP3    H152234   0.435   1.137  13.589 -0.7594 -0.3425 -1.4832
10273TIP3    H252235   0.326   1.048  13.533 -0.2655 -2.0068  0.1045
10274TIP3   OH252236   5.876   4.983  12.764  0.4129 -0.1197  0.2078
10274TIP3    H152237   5.812   5.042  12.803  0.8013  1.7928 -1.8240
10274TIP3    H252238   5.942   5.042  12.726  0.7132 -1.8339 -2.1364
10275TIP3   OH252239   2.642   1.625  13.939  0.3898  0.4195  0.6889
10275TIP3    H152240   2.727   1.669  13.945  0.1073  0.9554  0.8289
10275TIP3    H252241   2.578   1.695  13.952 -0.1330  0.4487 -1.6706
10276TIP3   OH252242   6.181   4.628   3.561 -0.0487  0.2153  0.2623
10276TIP3    H152243   6.117   4.668   3.621 -1.4352 -0.0772 -0.9620
10276TIP3    H252244   6.130   4.609   3.482  1.3216 -1.0561 -0.3426
10277TIP3   OH252245   6.659   1.731  10.932  0.0748 -0.3731  0.3240
10277TIP3    H152246   6.638   1.786  10.857  2.7311 -0.7096 -0.7744
10277TIP3    H252247   6.688   1.648  10.894  0.3392 -0.9824  1.7853
10278TIP3   OH252248   4.804   2.101  12.301 -0.2490  0.0743  0.3573
10278TIP3    H152249   4.785   2.011  12.277 -1.1985 -0.3581  2.5443
10278TIP3    H252250   4.746   2.153  12.246  0.7213 -0.5725 -1.3399
10279TIP3   OH252251   0.040   0.831  11.487 -0.1687  0.9873  0.0626
10279TIP3    H152252   0.125   0.825  11.443 -1.0327 -0.5128 -1.5234
10279TIP3    H252253   0.061   0.849  11.578  2.0265 -2.3814  0.3761
10280TIP3   OH252254   2.319   4.889  13.689  0.2011 -0.2998 -0.0032
10280TIP3    H152255   2.401   4.869  13.643 -0.6427  0.8590 -2.1670
10280TIP3    H252256   2.251   4.857  13.630 -0.9351  0.5483  0.8078
10281TIP3   OH252257   6.728   2.513   6.394  0.0565 -0.1579 -0.1366
10281TIP3    H152258   6.647   2.529   6.441 -0.6555 -1.5788 -0.8123
10281TIP3    H252259   6.700   2.484   6.307  1.2681 -1.1081 -0.2426
10282TIP3   OH252260   1.051   1.777   1.879 -0.0485 -0.2242  0.3352
10282TIP3    H152261   1.039   1.859   1.831  0.5083  0.9799  2.1746
10282TIP3    H252262   0.967   1.731   1.869 -1.3634  1.7901  1.4651
10283TIP3   OH252263   6.569   0.329  11.438 -0.1071  0.6745 -0.5841
10283TIP3    H152264   6.604   0.291  11.518  0.8467 -2.4860 -2.3090
10283TIP3    H252265   6.646   0.340  11.382 -0.9676  0.9474 -1.7464
10284TIP3   OH252266   3.973   0.022  14.196  0.1264  0.4603 -0.5036
10284TIP3    H152267   4.023   0.099  14.171  0.4262  0.5862  0.4341
10284TIP3    H252268   4.035  -0.051  14.187  0.1631  0.4746 -0.3719
10285TIP3   OH252269   2.136   3.891   4.035 -0.4836 -0.7212 -0.2941
10285TIP3    H152270   2.060   3.933   4.075  1.1349  2.2871 -0.0842
10285TIP3    H252271   2.120   3.898   3.941  0.7981  2.9650 -0.4210
10286TIP3   OH252272   4.292   5.289  11.444 -0.0902  0.6058  0.8037
10286TIP3    H152273   4.306   5.198  11.472 -0.0882 -0.4178 -2.1825
10286TIP3    H252274   4.377   5.331  11.458  0.4028 -0.3190  0.6978
10287TIP3   OH252275   2.795   1.741   3.768 -0.2546 -0.4098  0.5332
10287TIP3    H152276   2.866   1.712   3.827  0.4611 -1.5726 -0.8538
10287TIP3    H252277   2.841   1.786   3.697 -0.8901 -1.3586 -0.4890
10288TIP3   OH252278   1.033   1.275  10.834 -0.3220  0.0043 -0.5384
10288TIP3    H152279   1.069   1.215  10.899 -0.9167  1.6483  1.4166
10288TIP3    H252280   1.014   1.220  10.758 -1.7322 -2.4717  1.4546
10289TIP3   OH252281   1.208   1.919   3.140 -0.7136 -0.1541  0.1176
10289TIP3    H152282   1.265   1.986   3.101  0.4401 -0.1445  1.6940
10289TIP3    H252283   1.165   1.964   3.213 -1.1403 -0.7280  0.2235
10290TIP3   OH252284   2.937   2.461   3.080 -0.2326  0.2160 -0.1631
10290TIP3    H152285   2.974   2.439   3.165 -0.5608  1.3007  0.2798
10290TIP3    H252286   2.967   2.551   3.063 -1.4815  0.6016 -0.4321
10291TIP3   OH252287   1.999   2.696   2.117  0.2832  0.0710  0.3200
10291TIP3    H152288   2.079   2.740   2.146 -0.0466  1.1495 -0.3499
10291TIP3    H252289   2.021   2.663   2.030  0.3324 -0.5754  0.5723
10292TIP3   OH252290   4.582   4.623   2.921 -0.2372  0.2021 -0.7794
10292TIP3    H152291   4.490   4.626   2.892 -0.7403  0.0594  0.7097
10292TIP3    H252292   4.593   4.704   2.972  0.2395 -0.1568 -0.3087
10293TIP3   OH252293   0.839   2.783  14.620 -0.0725  0.1438  0.1719
10293TIP3    H152294   0.884   2.854  14.573  1.2064 -1.4767 -1.1869
10293TIP3    H252295   0.908   2.742  14.672 -0.3230 -1.2495 -0.5402
10294TIP3   OH252296   0.254   6.484   2.247  0.7055  0.3300  0.0044
10294TIP3    H152297   0.280   6.402   2.288 -0.7947 -0.8868 -1.3519
10294TIP3    H252298   0.198   6.527   2.311  3.3316  1.5124  1.6870
10295TIP3   OH252299   2.660   1.559   1.585 -0.2856 -0.0735 -0.1593
10295TIP3    H152300   2.720   1.532   1.654 -0.6035  0.6911  0.4403
10295TIP3    H252301   2.587   1.600   1.632 -1.5343 -1.4561 -0.8335
10296TIP3   OH252302   0.450   2.062  14.134 -0.0926  0.4718  0.2209
10296TIP3    H152303   0.486   2.117  14.204  0.0512  1.1442 -0.3754
10296TIP3    H252304   0.464   2.113  14.054 -0.6147 -0.1210 -0.2501
10297TIP3   OH252305   2.942   3.863  11.073 -0.2131  0.4455 -0.4885
10297TIP3    H152306   2.852   3.865  11.105  0.1103  1.2727  0.4039
10297TIP3    H252307   2.996   3.872  11.151  0.7318 -1.9722 -0.7866
10298TIP3   OH252308   0.567   4.232  12.404 -0.0818 -0.2931 -0.3435
10298TIP3    H152309   0.572   4.146  12.446  1.2257  0.3198  0.8292
10298TIP3    H252310   0.658   4.257  12.390 -0.4652  0.0176 -2.6295
10299TIP3   OH252311   4.408   0.509  13.894  0.1945 -0.7531  0.5896
10299TIP3    H152312   4.463   0.587  13.887 -0.4838 -0.3591 -0.6131
10299TIP3    H252313   4.462   0.438  13.858  0.0198 -0.4052 -0.3936
10300TIP3   OH252314   2.135   6.066   2.743  0.5227 -0.1187  0.6581
10300TIP3    H152315   2.166   6.012   2.670 -0.2064 -0.6163  0.6994
10300TIP3    H252316   2.204   6.058   2.810  1.5917  1.0120 -0.2724
10301TIP3   OH252317   4.695   0.943   2.372  0.5859 -0.9003 -0.2586
10301TIP3    H152318   4.676   0.964   2.463 -0.0053 -1.8056 -0.1632
10301TIP3    H252319   4.627   0.880   2.347  0.4487 -0.2990 -1.4686
10302TIP3   OH252320   1.395   1.287  16.381  0.1785 -1.0505 -0.4944
10302TIP3    H152321   1.300   1.291  16.392  0.2903  1.2327  0.2834
10302TIP3    H252322   1.415   1.359  16.320  1.6206  0.6745  1.8375
10303TIP3   OH252323   2.819   3.319   0.249  0.4549 -0.0490 -0.1088
10303TIP3    H152324   2.878   3.392   0.229  0.5203 -0.4758 -1.5505
10303TIP3    H252325   2.866   3.242   0.218 -0.7171 -0.4322 -0.9875
10304TIP3   OH252326   4.181   0.226   0.390 -1.0969  0.0011  0.1334
10304TIP3    H152327   4.132   0.180   0.458  0.4094 -0.0921  1.2114
10304TIP3    H252328   4.146   0.316   0.392 -2.6046 -0.5493 -0.5398
10305TIP3   OH252329   5.193   1.771   5.027 -0.4396  0.3255  0.3947
10305TIP3    H152330   5.272   1.789   4.974 -0.5722  0.5264  0.2615
10305TIP3    H252331   5.170   1.681   5.006  1.2529 -0.6396  2.3893
10306TIP3   OH252332   6.772   5.247  15.852  0.4465 -0.2431  0.5382
10306TIP3    H152333   6.809   5.266  15.766 -0.1140  1.0330  0.5627
10306TIP3    H252334   6.693   5.196  15.833 -0.5935  1.4407  0.1677
10307TIP3   OH252335   6.285   3.454   5.546 -0.0456  0.2234 -0.2264
10307TIP3    H152336   6.269   3.544   5.574  0.2973  0.8781 -2.0518
10307TIP3    H252337   6.229   3.401   5.604  0.2509  1.5172  1.3268
10308TIP3   OH252338   5.896   5.780  12.331 -0.5393  0.3632  0.1273
10308TIP3    H152339   5.989   5.777  12.351 -0.0263  1.2155 -1.8127
10308TIP3    H252340   5.872   5.690  12.311  0.2232  0.3168 -0.6425
10309TIP3   OH252341   2.246   4.033   0.964 -0.4356  0.0646  0.8588
10309TIP3    H152342   2.321   3.980   0.935 -1.2898  1.2747 -4.7614
10309TIP3    H252343   2.171   3.974   0.956 -0.7006  0.3961  0.8891
10310TIP3   OH252344   3.013   5.611   4.804 -0.0650 -0.2395  0.0121
10310TIP3    H152345   2.924   5.578   4.798  0.4269 -1.8061  0.7899
10310TIP3    H252346   3.004   5.701   4.836 -1.3781 -0.1884 -0.4755
10311TIP3   OH252347   3.941   4.841  16.969 -0.1208  0.4738  0.0770
10311TIP3    H152348   3.899   4.756  16.983 -0.0348 -0.0843 -2.4833
10311TIP3    H252349   3.879   4.890  16.916  0.9362  0.9642 -0.7558
10312TIP3   OH252350   0.545   6.102   2.959 -0.4164 -0.3133 -0.0555
10312TIP3    H152351   0.520   6.150   3.038 -0.2888 -1.9745  1.0458
10312TIP3    H252352   0.615   6.154   2.920 -1.7075  1.4725 -0.0925
10313TIP3   OH252353   6.431   0.939   2.473  0.1940 -0.0692  0.0146
10313TIP3    H152354   6.492   0.927   2.546 -1.7974 -0.5842  1.6612
10313TIP3    H252355   6.347   0.907   2.506 -0.7130 -0.6361 -2.6332
10314TIP3   OH252356   2.756   3.036   0.394 -0.2576 -0.1840 -0.0043
10314TIP3    H152357   2.756   2.942   0.412 -1.4561  0.0083  1.1411
10314TIP3    H252358   2.696   3.073   0.459  1.4054  1.5832  0.6245
10315TIP3   OH252359   5.217   2.632  16.909 -0.3363  0.1338 -0.1186
10315TIP3    H152360   5.242   2.541  16.892  0.7629  0.6664 -1.5426
10315TIP3    H252361   5.299   2.681  16.902 -0.9547  1.2838  0.3986
10316TIP3   OH252362   1.996   5.000   0.688 -0.4754  0.2037 -0.3763
10316TIP3    H152363   1.969   5.063   0.755 -1.8902 -0.0631 -0.6683
10316TIP3    H252364   1.942   5.021   0.612  0.6128  0.0471 -1.2179
10317TIP3   OH252365   6.485   1.633   4.485 -0.6803  0.1990 -0.1426
10317TIP3    H152366   6.504   1.615   4.393  2.6678 -0.3769  0.5087
10317TIP3    H252367   6.505   1.726   4.495 -0.0767  0.0456  0.1566
10318TIP3   OH252368   6.145   0.879  12.514 -0.2604  0.1564 -0.0839
10318TIP3    H152369   6.052   0.898  12.529 -0.1014 -0.2310  1.5340
10318TIP3    H252370   6.183   0.964  12.492 -0.6833  0.6541  1.0080
10319TIP3   OH252371   3.737   0.693   4.375  0.2023  0.7148  0.0233
10319TIP3    H152372   3.651   0.651   4.369 -0.0029  0.8165  1.7224
10319TIP3    H252373   3.762   0.685   4.467  1.5936  1.5266 -0.2425
10320TIP3   OH252374   0.515   2.336  11.152  0.2052  0.2591  0.1376
10320TIP3    H152375   0.526   2.422  11.112  2.1342 -0.1861 -0.4011
10320TIP3    H252376   0.520   2.351  11.246 -0.7717  0.8660  0.1081
10321TIP3   OH252377   0.719   2.518  13.417 -0.1792  0.4055  0.0304
10321TIP3    H152378   0.785   2.451  13.433 -0.1517  0.2283 -0.8173
10321TIP3    H252379   0.767   2.601  13.426 -0.0928  0.3078  0.5207
10322TIP3   OH252380   3.870   2.893   0.963  0.0672  0.0600  0.0266
10322TIP3    H152381   3.882   2.891   0.868  3.3401  0.2759  0.3055
10322TIP3    H252382   3.836   2.807   0.986 -1.2377  0.1730 -1.3294
10323TIP3   OH252383   5.631   4.937   2.234  0.0759 -0.4081  0.2714
10323TIP3    H152384   5.651   5.004   2.299 -0.1607 -1.6891  1.7139
10323TIP3    H252385   5.565   4.977   2.178  1.9390  1.5842 -0.6758
10324TIP3   OH252386   6.348   6.436  16.530 -0.0277 -0.1122  0.0944
10324TIP3    H152387   6.410   6.383  16.580 -0.7947  0.6507  1.9755
10324TIP3    H252388   6.267   6.430  16.581 -0.7353  1.0554 -0.8608
10325TIP3   OH252389   6.104   0.076   3.414  0.2581 -1.0061 -0.5727
10325TIP3    H152390   6.129   0.161   3.453  0.6797 -0.2394 -2.4051
10325TIP3    H252391   6.014   0.089   3.385 -0.4050 -1.9064  0.9471
10326TIP3   OH252392   4.033   3.086  13.697  0.1322 -0.0688 -0.0660
10326TIP3    H152393   4.088   3.133  13.760 -0.7883  0.7555  0.1445
10326TIP3    H252394   3.949   3.132  13.700 -0.2629 -0.7059 -1.0968
10327TIP3   OH252395   1.467   0.637  14.005 -0.5019  0.0559 -0.8206
10327TIP3    H152396   1.504   0.556  14.037 -0.5579  0.4522  0.2718
10327TIP3    H252397   1.497   0.704  14.066 -2.2349  0.5333 -0.4354
10328TIP3   OH252398   1.589   4.391  12.055 -0.4955  0.0066  0.1206
10328TIP3    H152399   1.580   4.391  12.150 -0.8051  0.2795  0.0912
10328TIP3    H252400   1.632   4.474  12.034 -1.1451  0.3057 -0.0449
10329TIP3   OH252401   6.652   0.534  15.362  0.2989 -0.6364  0.0542
10329TIP3    H152402   6.599   0.531  15.442 -1.8972 -1.8526 -1.3362
10329TIP3    H252403   6.727   0.478  15.380 -0.2537 -1.0241  1.2222
10330TIP3   OH252404   2.099   4.511   5.984 -0.2428  0.0721  0.4963
10330TIP3    H152405   2.124   4.486   5.895 -2.4441  0.9309 -0.4405
10330TIP3    H252406   2.085   4.428   6.029 -0.8862 -0.4048 -0.5351
10331TIP3   OH252407   1.386   2.465  14.168 -0.1931 -0.2489  0.3021
10331TIP3    H152408   1.369   2.552  14.132 -0.0884  0.5767  2.1598
10331TIP3    H252409   1.298   2.430  14.187 -0.2960 -1.0167 -1.3851
10332TIP3   OH252410   2.044   2.539   4.427  0.7629  0.2317 -0.3108
10332TIP3    H152411   1.985   2.572   4.359  2.2147 -0.8582 -2.1909
10332TIP3    H252412   1.986   2.495   4.489 -0.5654  0.7991 -1.0999
10333TIP3   OH252413   5.635   1.913   0.271  0.4399 -0.5554 -0.0238
10333TIP3    H152414   5.627   2.005   0.296  0.3562 -0.6391  0.2528
10333TIP3    H252415   5.684   1.916   0.189  0.1197 -0.2376 -0.2132
10334TIP3   OH252416   3.937   2.825   5.711  0.0983 -0.6390 -0.2014
10334TIP3    H152417   3.865   2.762   5.713 -0.6160  0.1572 -0.3885
10334TIP3    H252418   3.899   2.906   5.745  0.9888 -0.2824 -0.0214
10335TIP3   OH252419   6.457   4.634  16.713  0.3386 -0.5825 -0.2252
10335TIP3    H152420   6.444   4.643  16.618 -0.0901 -0.0629 -0.1277
10335TIP3    H252421   6.371   4.607  16.746  0.4110 -0.4822  0.0484
10336TIP3   OH252422   2.188   1.315  13.218  0.3197 -0.2562 -0.6287
10336TIP3    H152423   2.213   1.271  13.300  0.3182 -0.2629 -0.6318
10336TIP3    H252424   2.183   1.408  13.242  0.1056 -0.2830 -0.5699
10337TIP3   OH252425   1.555   5.978  12.809 -0.0369 -0.2080 -0.1982
10337TIP3    H152426   1.478   5.961  12.864  1.6492 -2.1859  1.7862
10337TIP3    H252427   1.562   5.901  12.753  0.1340  0.2464 -0.8061
10338TIP3   OH252428   1.137   2.311  14.630 -0.1138  0.1809 -0.0734
10338TIP3    H152429   1.093   2.297  14.714 -1.9397 -0.8411 -1.1516
10338TIP3    H252430   1.114   2.401  14.606 -1.7905 -0.3593 -0.6575
10339TIP3   OH252431   1.270   0.740  15.398  0.3266  0.0276 -0.0065
10339TIP3    H152432   1.190   0.700  15.364  0.8553 -0.6942 -0.4289
10339TIP3    H252433   1.300   0.680  15.466  0.6083  0.2011  0.0227
10340TIP3   OH252434   1.662   4.158   4.779 -0.0963  0.3957  0.2352
10340TIP3    H152435   1.593   4.104   4.742 -1.5544  1.3994  1.3554
10340TIP3    H252436   1.661   4.139   4.873  1.3512  0.2376  0.2478
10341TIP3   OH252437   6.751   2.781  16.852 -0.0720  0.1258 -0.8925
10341TIP3    H152438   6.751   2.817  16.764 -2.2296  0.3151 -0.8652
10341TIP3    H252439   6.803   2.701  16.846 -1.3210 -0.6032 -2.6692
10342TIP3   OH252440   4.023   1.510   6.026  0.8166  0.1777  0.0522
10342TIP3    H152441   4.002   1.494   6.118  0.1454  1.7396  0.2007
10342TIP3    H252442   4.108   1.554   6.027  1.2919 -0.7205 -0.1519
10343TIP3   OH252443   6.156   4.307  17.023 -0.3232  0.0482  0.4839
10343TIP3    H152444   6.204   4.387  17.042  2.4200 -1.2987 -0.2509
10343TIP3    H252445   6.210   4.237  17.060 -0.9024 -1.6963 -1.7172
10344TIP3   OH252446   5.210   2.953   0.730  0.0010 -0.9614  0.0108
10344TIP3    H152447   5.175   2.899   0.802 -1.1706 -2.3716 -1.5245
10344TIP3    H252448   5.262   2.892   0.678 -0.3812 -0.3219 -1.1390
10345TIP3   OH252449   2.577   2.825  14.583 -0.1680 -0.0141 -0.0587
10345TIP3    H152450   2.608   2.742  14.546 -0.6383 -0.0428 -0.4004
10345TIP3    H252451   2.578   2.886  14.510  1.0384  0.5288  0.3953
10346TIP3   OH252452   0.006   6.074  13.018 -0.4651 -0.1196 -0.5775
10346TIP3    H152453   0.077   6.016  13.048 -1.3054 -1.2022 -0.6115
10346TIP3    H252454   0.049   6.134  12.957  0.4571 -0.6796 -0.5054
10347TIP3   OH252455   5.880   6.009  14.766 -0.2761 -0.7892  0.5538
10347TIP3    H152456   5.838   6.077  14.818  0.6233  0.4215 -0.2484
10347TIP3    H252457   5.907   6.054  14.686 -1.1267 -2.4631 -0.7439
10348TIP3   OH252458   1.153   2.958  12.223  0.1612  0.0277 -0.6752
10348TIP3    H152459   1.143   2.926  12.313  1.0255  0.2708 -0.4841
10348TIP3    H252460   1.118   2.887  12.169 -0.3540 -0.1269 -0.1529
10349TIP3   OH252461   1.686   0.431  15.259 -0.3586 -0.2495 -0.2261
10349TIP3    H152462   1.759   0.412  15.200  0.7372 -0.4682  1.1322
10349TIP3    H252463   1.700   0.373  15.334  0.2134  2.2464  1.7358
10350TIP3   OH252464   6.025   1.739  16.414 -0.1389 -0.2677 -0.1496
10350TIP3    H152465   5.933   1.757  16.396 -0.0378  0.3082 -0.0868
10350TIP3    H252466   6.028   1.644  16.431 -0.7101 -0.2920 -0.1834
10351TIP3   OH252467   2.923   5.517  12.274  0.2395  0.6429  0.0498
10351TIP3    H152468   2.953   5.485  12.189  1.1792 -1.1062  0.9720
10351TIP3    H252469   2.836   5.478  12.285  1.1096 -1.1762  0.8833
10352TIP3   OH252470   0.798   3.727  17.012 -0.2344  0.0358 -0.0894
10352TIP3    H152471   0.881   3.700  17.050  0.9532 -0.2509 -2.6985
10352TIP3    H252472   0.754   3.645  16.990 -2.1752  0.1136  2.9939
10353TIP3   OH252473   3.643   6.565  12.114  0.3624 -0.3345  0.3911
10353TIP3    H152474   3.733   6.592  12.134 -0.4928  1.4158  2.2250
10353TIP3    H252475   3.610   6.633  12.056  0.2619 -1.0983 -0.4727
10354TIP3   OH252476   5.376   5.907   4.858  0.4521  0.0922  0.6537
10354TIP3    H152477   5.354   5.828   4.808  1.0062  0.9492 -0.9923
10354TIP3    H252478   5.389   5.975   4.792  2.0618  1.0678  1.9132
10355TIP3   OH252479   3.883   4.924  13.885  0.2610  0.4590  0.0590
10355TIP3    H152480   3.888   4.897  13.794 -2.2373  1.8590 -0.5931
10355TIP3    H252481   3.810   4.873  13.921  1.0481  0.1159  1.2170
10356TIP3   OH252482   6.459   6.808   1.505  0.2088  0.2112  0.3994
10356TIP3    H152483   6.503   6.876   1.454 -1.2404 -0.0835 -1.3790
10356TIP3    H252484   6.458   6.841   1.594  0.6198  1.9535 -0.2053
10357TIP3   OH252485   0.965   3.859  14.229 -0.1200  0.0854  0.1031
10357TIP3    H152486   0.929   3.852  14.317 -1.5760  1.9779 -0.2797
10357TIP3    H252487   0.908   3.922  14.184  0.8555 -0.4573 -2.0539
10358TIP3   OH252488   4.039   2.804  14.748  0.2856  0.1497  0.1551
10358TIP3    H152489   4.111   2.796  14.811 -0.3958  0.6101  1.0163
10358TIP3    H252490   3.992   2.884  14.775  0.4433  0.8184 -1.4334
10359TIP3   OH252491   3.571   1.227  15.836  0.4692 -0.1343  0.2535
10359TIP3    H152492   3.630   1.197  15.766 -0.4932 -1.3429 -0.0670
10359TIP3    H252493   3.508   1.156  15.846 -1.2659  1.3366  0.2266
10360TIP3   OH252494   1.544   1.491  12.382  0.3441  0.0257  0.3479
10360TIP3    H152495   1.515   1.400  12.369  2.1181 -0.5182 -0.1169
10360TIP3    H252496   1.634   1.483  12.412  1.2594  1.6569 -1.7030
10361TIP3   OH252497   5.684   6.248   5.924 -0.1806 -0.6438  0.4526
10361TIP3    H152498   5.736   6.321   5.958 -0.3482  0.0530 -0.7143
10361TIP3    H252499   5.597   6.261   5.962 -0.3638  0.1177 -0.1903
10362TIP3   OH252500   2.297   0.066  13.348 -0.7661 -0.2100  0.0477
10362TIP3    H152501   2.337   0.142  13.305 -0.9715  0.2080  0.5811
10362TIP3    H252502   2.206   0.068  13.318 -0.3227 -1.4192 -1.5206
10363TIP3   OH252503   6.058   6.300   4.937 -0.5123  0.0519  0.2669
10363TIP3    H152504   6.062   6.230   4.871 -0.6430 -0.4131  0.7468
10363TIP3    H252505   5.974   6.287   4.981 -0.5314  0.5087  0.3750
10364TIP3   OH252506   2.289   0.249  14.409 -0.1632 -0.3749 -0.1329
10364TIP3    H152507   2.335   0.290  14.336 -0.3869  0.5954  0.2518
10364TIP3    H252508   2.197   0.269  14.395 -0.4356 -1.9049 -0.6407
10365TIP3   OH252509   3.594   1.871  12.906  0.4650  0.2173  0.0603
10365TIP3    H152510   3.671   1.815  12.914  1.2222  1.1072 -0.7776
10365TIP3    H252511   3.554   1.869  12.993  0.9046 -0.9855  0.2652
10366TIP3   OH252512   4.439   2.646   5.937 -1.0111  0.9601 -0.1107
10366TIP3    H152513   4.356   2.693   5.947 -1.4749  0.4654 -1.3474
10366TIP3    H252514   4.439   2.582   6.008 -1.3654  1.4295  0.3190
10367TIP3   OH252515   0.637   1.460   0.407 -0.4991 -0.3732 -0.0580
10367TIP3    H152516   0.617   1.528   0.343 -0.7657 -0.2413  0.1661
10367TIP3    H252517   0.556   1.410   0.415 -0.0490 -1.2823 -0.8925
10368TIP3   OH252518   0.899   6.340   0.786 -0.1358  0.6521  0.5448
10368TIP3    H152519   0.927   6.311   0.873 -1.3607  0.4760  0.8962
10368TIP3    H252520   0.926   6.269   0.727  0.3017  0.5698  0.8390
10369TIP3   OH252521   6.641   2.450   0.607 -0.0881  0.3076  0.0961
10369TIP3    H152522   6.663   2.443   0.514 -1.5796  0.5866 -0.2957
10369TIP3    H252523   6.583   2.376   0.624 -0.1387  0.4812  0.7141
10370TIP3   OH252524   4.036   5.870   5.248  0.4008  0.2423 -0.2942
10370TIP3    H152525   4.022   5.960   5.277 -1.1024  0.6974 -2.2590
10370TIP3    H252526   4.102   5.878   5.179 -0.6206  0.0452 -1.3257
10371TIP3   OH252527   2.421   1.623   1.204  0.3312  0.3361  0.7425
10371TIP3    H152528   2.470   1.574   1.271 -0.5093 -0.9576  0.4302
10371TIP3    H252529   2.361   1.559   1.167 -0.5856  1.5454  0.1058
10372TIP3   OH252530   1.132   4.819   4.777  0.0620  0.3804  0.1758
10372TIP3    H152531   1.115   4.848   4.688  0.3986 -0.1048 -0.0501
10372TIP3    H252532   1.206   4.758   4.769 -0.4926 -0.3785  0.6555
10373TIP3   OH252533   0.294   2.586  17.093 -0.3448 -0.4081  0.1064
10373TIP3    H152534   0.382   2.552  17.109  0.3735  0.5285 -1.5169
10373TIP3    H252535   0.291   2.669  17.141  0.5899  0.7407 -1.6747
10374TIP3   OH252536   3.520   1.585   4.216 -0.2298  0.5083  0.3758
10374TIP3    H152537   3.524   1.645   4.141  1.6252 -0.9061 -0.7437
10374TIP3    H252538   3.506   1.643   4.292  0.8570  2.3022 -0.7100
10375TIP3   OH252539   6.145   5.863  11.076  0.1986 -0.1650 -0.7652
10375TIP3    H152540   6.201   5.855  10.999  0.6210 -0.1523 -0.4633
10375TIP3    H252541   6.196   5.824  11.148  0.2498  0.7703 -0.2811
10376TIP3   OH252542   4.858   0.508   3.243 -0.0893 -0.0940  0.2255
10376TIP3    H152543   4.847   0.489   3.336  0.0725 -0.7814  0.1092
10376TIP3    H252544   4.921   0.579   3.240 -0.6492  0.4292  0.6727
10377TIP3   OH252545   5.620   6.508  15.163  0.4149 -0.4441  0.4799
10377TIP3    H152546   5.548   6.451  15.190 -1.0019  1.3614  0.7932
10377TIP3    H252547   5.678   6.452  15.111 -0.6993 -2.2029  1.0448
10378TIP3   OH252548   4.314   0.998  13.439  0.0501 -0.4326 -0.0422
10378TIP3    H152549   4.303   1.084  13.482 -0.4430 -1.2412  1.5521
10378TIP3    H252550   4.334   1.019  13.348  2.3737  1.4173  0.8035
10379TIP3   OH252551   5.710   0.265   3.728 -0.0235 -0.2049  0.1606
10379TIP3    H152552   5.643   0.278   3.661  2.3117  0.5579 -2.1635
10379TIP3    H252553   5.684   0.324   3.799 -2.9286 -1.5351  0.3829
10380TIP3   OH252554   3.230   6.153  15.238 -0.3006  0.2504 -0.2430
10380TIP3    H152555   3.212   6.236  15.282 -0.5856  0.3899 -0.6140
10380TIP3    H252556   3.146   6.129  15.198 -0.1109 -0.0078 -0.4876
10381TIP3   OH252557   4.909   6.363  13.520 -0.3314 -0.1218  0.1211
10381TIP3    H152558   4.849   6.438  13.528 -1.0746 -0.5937 -0.8700
10381TIP3    H252559   4.908   6.341  13.427  0.7700 -0.6567  0.2197
10382TIP3   OH252560   4.227   6.608  11.933  0.6583  0.7204 -0.0754
10382TIP3    H152561   4.197   6.699  11.927  2.7525  1.4241 -0.6697
10382TIP3    H252562   4.246   6.583  11.843  1.1396  0.0694  0.2030
10383TIP3   OH252563   2.535   0.539  11.833  0.0843  0.5897 -0.3850
10383TIP3    H152564   2.514   0.489  11.912  1.6360  1.0671  0.3610
10383TIP3    H252565   2.450   0.574  11.805 -0.7537 -0.9053  0.1175
10384TIP3   OH252566   0.872   1.969  13.717  0.0888 -0.4777  0.0028
10384TIP3    H152567   0.916   1.971  13.802  0.3602  0.6327 -0.1505
10384TIP3    H252568   0.870   2.060  13.688 -0.7017 -0.7347 -0.8291
10385TIP3   OH252569   6.386   4.386  13.913  0.0626 -0.8073 -1.0236
10385TIP3    H152570   6.336   4.468  13.918  2.7715  1.0934 -2.3289
10385TIP3    H252571   6.433   4.382  13.997 -1.5767 -2.1623 -0.1289
10386TIP3   OH252572   6.185   0.032   0.118 -0.0446 -0.2978  0.3094
10386TIP3    H152573   6.110   0.084   0.091  1.1846  1.4986  0.2332
10386TIP3    H252574   6.260   0.072   0.074  0.9738 -2.1302  0.2626
10387TIP3   OH252575   3.905   3.759   2.588  0.4580  0.0700 -0.1115
10387TIP3    H152576   3.944   3.839   2.624  2.1990 -0.8951  0.2592
10387TIP3    H252577   3.815   3.759   2.620 -0.0086  2.5163 -1.1940
10388TIP3   OH252578   5.771   5.039   5.289 -0.0965  0.0547  0.3342
10388TIP3    H152579   5.694   5.046   5.345 -1.2670  0.5721 -1.2668
10388TIP3    H252580   5.742   4.986   5.215  1.4329 -0.6853  0.2158
10389TIP3   OH252581   0.800   1.641   1.844 -0.2035  0.4846 -0.3332
10389TIP3    H152582   0.778   1.549   1.859 -0.5353  0.6783  0.4237
10389TIP3    H252583   0.720   1.679   1.807 -0.7926  0.9081  1.2612
10390TIP3   OH252584   2.239   2.171  11.657 -0.0533 -0.3121 -0.1703
10390TIP3    H152585   2.159   2.224  11.648 -1.2443 -2.2273 -1.6051
10390TIP3    H252586   2.245   2.153  11.751 -2.6719 -1.9784 -0.2134
10391TIP3   OH252587   0.659   4.394   3.223  0.3333  0.4001  0.6073
10391TIP3    H152588   0.629   4.304   3.237  0.2768  0.2582 -0.3523
10391TIP3    H252589   0.703   4.417   3.305  1.2315 -0.8490  0.5081
10392TIP3   OH252590   6.373   5.172  12.557 -0.1051 -0.2875  0.0198
10392TIP3    H152591   6.296   5.124  12.527 -0.9230  1.0938 -0.1814
10392TIP3    H252592   6.441   5.150  12.494 -0.7844 -0.3146 -0.7196
10393TIP3   OH252593   5.987   1.978   6.364  0.0198 -0.4598 -0.0405
10393TIP3    H152594   6.068   2.013   6.401  0.1133  0.4004 -1.0135
10393TIP3    H252595   5.926   1.974   6.437  0.3128  0.8357  0.2881
10394TIP3   OH252596   4.163   0.762   2.237  0.6232  0.1419  0.4142
10394TIP3    H152597   4.124   0.830   2.182  0.1213  1.1065  1.9073
10394TIP3    H252598   4.257   0.777   2.232  0.5233  0.8582  0.6167
10395TIP3   OH252599   0.864   1.398  12.197 -0.0980 -0.0658 -0.1937
10395TIP3    H152600   0.820   1.378  12.280  1.7086 -1.0177  0.5943
10395TIP3    H252601   0.896   1.314  12.166  2.9674  0.7738  0.3855
10396TIP3   OH252602   6.378   6.104  12.751  0.3929 -0.2286 -0.1533
10396TIP3    H152603   6.454   6.137  12.703  0.3230  3.1456  1.6976
10396TIP3    H252604   6.411   6.091  12.840 -1.1253  1.3293  0.6889
10397TIP3   OH252605   4.955   5.618   0.511 -0.2935  0.3680 -0.6380
10397TIP3    H152606   4.870   5.635   0.550 -0.3165 -1.2595  0.1082
10397TIP3    H252607   4.999   5.703   0.509 -0.9660  0.8031  1.3468
10398TIP3   OH252608   4.785   0.017  14.578 -0.6777 -0.3289  0.5823
10398TIP3    H152609   4.783   0.069  14.497 -0.1017 -1.1287  0.0340
10398TIP3    H252610   4.715  -0.048  14.567  0.1846 -1.2189  0.1623
10399TIP3   OH252611   6.145   4.897   6.042 -0.0940  0.4455  0.1324
10399TIP3    H152612   6.239   4.884   6.060  0.0646 -0.0832 -1.0067
10399TIP3    H252613   6.109   4.808   6.040 -0.1344  0.4823 -1.9072
10400TIP3   OH252614   1.682   5.353  14.552 -0.1143 -0.0316 -0.3423
10400TIP3    H152615   1.674   5.258  14.555  2.9367 -0.4281 -0.7126
10400TIP3    H252616   1.612   5.386  14.608  1.4419 -2.7569  3.6623
10401TIP3   OH252617   3.717   0.909  11.267 -0.2716  0.4086 -0.6537
10401TIP3    H152618   3.701   0.815  11.264  0.2112  0.3421 -1.2653
10401TIP3    H252619   3.740   0.933  11.177  1.2089  0.8244 -0.1956
10402TIP3   OH252620   4.852   5.314   5.275  0.1656 -0.3202 -0.3808
10402TIP3    H152621   4.879   5.397   5.237 -1.1616  1.2064  1.7678
10402TIP3    H252622   4.918   5.296   5.342  0.2947 -0.8772 -0.6475
10403TIP3   OH252623   1.481   2.105   0.992  0.7377 -0.7976 -0.1831
10403TIP3    H152624   1.495   2.015   0.960  3.3694 -0.3622 -0.5477
10403TIP3    H252625   1.499   2.160   0.916 -1.3215  0.0753 -0.0895
10404TIP3   OH252626   6.111   0.451   1.743 -0.2477  0.1522 -0.2873
10404TIP3    H152627   6.185   0.394   1.767 -2.5287 -1.7007  3.1312
10404TIP3    H252628   6.046   0.391   1.706 -1.3869  1.1145  0.1094
10405TIP3   OH252629   1.351   2.005  12.707  0.4286  0.0382 -0.3462
10405TIP3    H152630   1.287   2.060  12.663 -0.0478 -0.7462 -0.6608
10405TIP3    H252631   1.393   2.063  12.771 -2.1763  0.0600  1.4999
10406TIP3   OH252632   0.415   3.323  13.906 -0.1629 -0.2789 -0.1060
10406TIP3    H152633   0.499   3.300  13.867 -0.5232 -1.2068 -0.3826
10406TIP3    H252634   0.435   3.347  13.996  0.5430  0.7426 -0.5228
10407TIP3   OH252635   3.723   3.621   1.922  0.1733  0.2650  0.8949
10407TIP3    H152636   3.642   3.571   1.930  1.1022 -1.6288 -0.6347
10407TIP3    H252637   3.705   3.687   1.855 -0.7035  1.3037  2.0995
10408TIP3   OH252638   1.094   6.069   3.543  0.2855 -0.3145  0.1515
10408TIP3    H152639   1.021   6.130   3.552  0.7788  0.4415 -0.7993
10408TIP3    H252640   1.158   6.097   3.608  0.1928 -0.2992  0.2361
10409TIP3   OH252641   1.538   5.092  12.606 -0.8912 -0.0586  0.1419
10409TIP3    H152642   1.493   5.100  12.522 -2.4785  1.1200  1.0437
10409TIP3    H252643   1.513   5.171  12.654  1.8183  0.4187  0.8938
10410TIP3   OH252644   4.315   3.821   5.030  0.1754  0.2179 -0.1970
10410TIP3    H152645   4.290   3.754   4.966 -0.5827 -1.4919  1.7911
10410TIP3    H252646   4.232   3.852   5.065  0.5985 -0.4390  1.4591
10411TIP3   OH252647   6.703   5.339   5.042 -0.1409 -0.8715 -0.1830
10411TIP3    H152648   6.750   5.270   4.994  1.6363  0.6275 -0.7078
10411TIP3    H252649   6.767   5.410   5.050 -1.0282 -0.2591  2.6664
10412TIP3   OH252650   1.636   3.932   3.105 -0.3891 -0.1566  0.0728
10412TIP3    H152651   1.700   3.908   3.171  1.1685  0.5080 -1.1221
10412TIP3    H252652   1.632   3.856   3.046 -0.3621 -0.0186 -0.1084
10413TIP3   OH252653   2.254   6.112  11.815 -0.7996 -0.1570  0.5254
10413TIP3    H152654   2.309   6.034  11.826  0.3155  0.6202  0.7312
10413TIP3    H252655   2.302   6.181  11.861 -0.3597  1.2542 -1.8486
10414TIP3   OH252656   1.269   1.763  12.263 -0.8486  0.0667 -0.2156
10414TIP3    H152657   1.264   1.782  12.357  0.4977 -1.0177  0.1134
10414TIP3    H252658   1.181   1.732  12.241 -0.7882 -1.1055  1.0424
10415TIP3   OH252659   1.058   3.160   3.051 -0.2113 -0.3795  0.5621
10415TIP3    H152660   0.966   3.144   3.027  0.2937 -0.9174 -1.1972
10415TIP3    H252661   1.099   3.074   3.045  0.5285 -0.0454  0.7805
10416TIP3   OH252662   1.092   4.699   6.682  0.8747 -0.5085  0.0690
10416TIP3    H152663   1.017   4.680   6.626  0.1027  2.3039  0.0125
10416TIP3    H252664   1.083   4.638   6.755 -2.1604  0.4732  0.6300
10417TIP3   OH252665   4.004   3.944   6.364 -0.2048 -0.3635  0.2888
10417TIP3    H152666   4.093   3.923   6.391 -0.5635 -1.8631  0.3739
10417TIP3    H252667   3.982   3.878   6.298 -0.6775  0.9801 -0.9816
10418TIP3   OH252668   4.928   2.887  12.883 -0.3850 -0.2948  0.6180
10418TIP3    H152669   5.007   2.841  12.852 -0.6611  0.7226 -1.7858
10418TIP3    H252670   4.877   2.819  12.928  0.8066 -1.5009  0.2227
10419TIP3   OH252671   2.499   5.620   4.077 -0.3537  0.2111  0.1028
10419TIP3    H152672   2.501   5.713   4.102 -0.8519  0.2159  0.1331
10419TIP3    H252673   2.580   5.607   4.028 -1.1272  1.1303 -1.5161
10420TIP3   OH252674   0.592   4.459  16.192  0.2353 -0.0606 -0.2415
10420TIP3    H152675   0.498   4.470  16.184 -0.2009 -0.3561  3.1657
10420TIP3    H252676   0.607   4.444  16.285  3.5264 -1.4663 -0.8513
10421TIP3   OH252677   5.303   0.429  11.279 -0.2767 -0.0240  0.6888
10421TIP3    H152678   5.313   0.454  11.188  0.6269 -0.4948  0.6536
10421TIP3    H252679   5.223   0.475  11.308 -0.2058  0.6419 -0.1417
10422TIP3   OH252680   6.201   5.462  16.183  0.0685 -0.2544  0.2286
10422TIP3    H152681   6.160   5.375  16.184 -0.0891 -0.2120 -1.2824
10422TIP3    H252682   6.290   5.446  16.215  1.4450 -1.7766 -3.7289
10423TIP3   OH252683   1.930   4.241   0.161 -0.0068  0.1109 -0.0337
10423TIP3    H152684   1.982   4.224   0.083 -1.6336 -1.1646 -0.8942
10423TIP3    H252685   1.896   4.329   0.149  2.2583  1.1882  0.7877
10424TIP3   OH252686   3.659   5.856   1.415 -0.0860  0.1139 -0.0445
10424TIP3    H152687   3.640   5.765   1.438 -0.5068  0.8312  2.8941
10424TIP3    H252688   3.732   5.880   1.473 -1.5012  2.2794  0.9427
10425TIP3   OH252689   4.581   3.428  13.798  0.0611  0.1791 -0.2654
10425TIP3    H152690   4.489   3.413  13.821  0.4119 -0.2825  0.8788
10425TIP3    H252691   4.601   3.515  13.832  0.2477 -0.0153  0.1233
10426TIP3   OH252692   6.383   1.469   0.729 -0.1206 -0.1692 -0.6936
10426TIP3    H152693   6.330   1.467   0.809 -0.8583 -1.5202 -1.1751
10426TIP3    H252694   6.395   1.562   0.710 -0.9579  0.1648  0.3109
10427TIP3   OH252695   3.391   6.032   1.763  0.5699 -0.4792 -0.1608
10427TIP3    H152696   3.352   6.120   1.760 -1.3589 -1.3053 -2.3376
10427TIP3    H252697   3.402   6.008   1.671  2.4819 -1.9704  0.3868
10428TIP3   OH252698   5.234   1.819   3.029  0.1954 -0.3886  0.1612
10428TIP3    H152699   5.291   1.760   2.980 -1.5578 -2.5698  0.6351
10428TIP3    H252700   5.168   1.763   3.069 -1.3596  1.8524  0.9769
10429TIP3   OH252701   1.258   1.466   1.274 -0.1384  0.3188  0.2270
10429TIP3    H152702   1.318   1.541   1.278  0.0421  0.3579 -1.9504
10429TIP3    H252703   1.180   1.501   1.230  0.2685 -0.9308 -1.5750
10430TIP3   OH252704   1.803   3.302  12.707 -0.2086  0.7021 -0.2278
10430TIP3    H152705   1.743   3.252  12.651  0.0156  1.0691 -0.7977
10430TIP3    H252706   1.765   3.389  12.712  0.1346  0.8596 -0.3648
10431TIP3   OH252707   5.350   5.591  11.500  0.1745 -0.1428  0.2622
10431TIP3    H152708   5.421   5.599  11.565 -1.2639 -0.4867  1.9613
10431TIP3    H252709   5.291   5.663  11.521  0.7299  1.1244 -2.1726
10432TIP3   OH252710   6.322   0.030  16.893 -0.1154  0.4103  0.0632
10432TIP3    H152711   6.394  -0.021  16.856 -0.1963  2.0295 -2.5024
10432TIP3    H252712   6.363   0.081  16.963  1.0333  0.5947 -0.7134
10433TIP3   OH252713   2.100   6.242  15.333  0.6058  0.5398  0.8764
10433TIP3    H152714   2.079   6.333  15.313  0.8273  0.8649  2.0444
10433TIP3    H252715   2.195   6.236  15.324  0.4729  0.1053 -0.3823
10434TIP3   OH252716   5.790   2.649   1.077  0.6864 -0.0773  0.1117
10434TIP3    H152717   5.818   2.650   0.986 -1.8805  0.4653 -0.7629
10434TIP3    H252718   5.798   2.739   1.107  1.2050 -0.1912  0.3249
10435TIP3   OH252719   0.522   4.627  13.676 -0.9228  0.3584 -0.0496
10435TIP3    H152720   0.471   4.689  13.728 -0.8679  1.0355 -0.7955
10435TIP3    H252721   0.459   4.590  13.614 -0.8953 -0.1429  0.2128
10436TIP3   OH252722   4.917   0.751  16.344 -0.0448 -0.0679 -0.2004
10436TIP3    H152723   4.984   0.798  16.394 -0.6148  0.8819 -0.3262
10436TIP3    H252724   4.865   0.706  16.410 -0.7351  1.1032  0.0692
10437TIP3   OH252725   2.352   4.656  13.210  0.1783 -0.1181  0.3150
10437TIP3    H152726   2.339   4.687  13.120 -0.8453 -1.1747  0.0813
10437TIP3    H252727   2.373   4.563  13.201  0.3842 -0.1670  1.1617
10438TIP3   OH252728   4.971   3.202  12.854  0.3302 -0.0870  0.2778
10438TIP3    H152729   4.997   3.226  12.765  0.4842 -1.6999 -0.1455
10438TIP3    H252730   4.954   3.285  12.898 -2.6758  0.7555 -2.1281
10439TIP3   OH252731   6.149   2.108  16.971  0.0569  0.4594 -0.1607
10439TIP3    H152732   6.107   2.029  17.004  1.0975 -0.5833 -1.2054
10439TIP3    H252733   6.133   2.174  17.038  0.2181 -0.9621  1.3594
10440TIP3   OH252734   1.109   6.746   3.700  0.0529 -0.3190  0.3606
10440TIP3    H152735   1.137   6.667   3.745 -0.5810 -0.6758  0.1445
10440TIP3    H252736   1.019   6.761   3.731 -0.3125 -0.4433 -0.6049
10441TIP3   OH252737   2.912   2.856   2.867  0.5748  0.2645 -0.3458
10441TIP3    H152738   2.996   2.816   2.846 -0.6484 -2.0133 -1.2485
10441TIP3    H252739   2.930   2.910   2.944  2.1887 -3.1767  1.9751
10442TIP3   OH252740   2.170   5.563   4.499 -0.6214 -0.2341 -0.6943
10442TIP3    H152741   2.127   5.479   4.481 -1.3971  0.0319 -0.1453
10442TIP3    H252742   2.165   5.611   4.416  0.4275 -0.9723 -1.2037
10443TIP3   OH252743   4.664   1.551  12.340 -0.5639 -1.0462 -0.7152
10443TIP3    H152744   4.660   1.473  12.284 -0.4872  0.3269 -2.7173
10443TIP3    H252745   4.652   1.625  12.280 -3.5608  0.4333  1.4728
10444TIP3   OH252746   0.765   4.809   3.475  0.1582 -0.3374  0.6250
10444TIP3    H152747   0.686   4.755   3.476  0.3588 -0.6579  2.7636
10444TIP3    H252748   0.837   4.747   3.484  0.5685  0.0739  0.2639
10445TIP3   OH252749   0.122   2.889  11.244 -0.1826  0.4232 -0.7166
10445TIP3    H152750   0.035   2.867  11.276  0.7942 -0.8245  1.2996
10445TIP3    H252751   0.149   2.964  11.297  0.3397  0.1797 -0.6325
10446TIP3   OH252752   3.150   0.021   5.337 -0.4916  0.1117  0.1028
10446TIP3    H152753   3.067  -0.026   5.339 -0.7587  0.5795  0.2259
10446TIP3    H252754   3.182   0.018   5.427 -0.1122 -0.5245 -0.0506
10447TIP3   OH252755   5.356   4.263   2.341 -0.7367  0.6283  0.2389
10447TIP3    H152756   5.270   4.252   2.380 -1.0580  1.1161 -0.3082
10447TIP3    H252757   5.344   4.332   2.275 -0.5531 -1.0526 -1.6687
10448TIP3   OH252758   5.586   0.329  12.161  0.1503  0.2081  0.1765
10448TIP3    H152759   5.524   0.262  12.134 -1.1538  1.9489 -1.4046
10448TIP3    H252760   5.651   0.282  12.214 -1.6156 -1.9528  0.5521
10449TIP3   OH252761   5.411   2.004  14.640 -0.8048 -0.2240  0.1741
10449TIP3    H152762   5.435   2.003  14.547  0.5651  0.9570  0.4768
10449TIP3    H252763   5.435   2.092  14.670  0.4422 -1.1279  2.0302
10450TIP3   OH252764   2.432   2.844   2.549 -0.0788  0.6781  0.1381
10450TIP3    H152765   2.518   2.876   2.525  0.1892  0.2101  0.4452
10450TIP3    H252766   2.385   2.920   2.582 -0.0901  1.1127 -0.8587
10451TIP3   OH252767   2.467   3.264   5.117 -0.1592  0.1976 -0.6313
10451TIP3    H152768   2.472   3.188   5.060 -0.4926 -0.1176 -0.2416
10451TIP3    H252769   2.432   3.231   5.199  0.6190  0.5847 -0.1263
10452TIP3   OH252770   2.642   1.785   2.159  0.0584  0.1790  0.5446
10452TIP3    H152771   2.590   1.832   2.225  1.8780  1.8393  0.8656
10452TIP3    H252772   2.721   1.759   2.205 -0.0200 -1.4943 -0.1936
10453TIP3   OH252773   2.927   0.780  12.761 -0.0040  0.3274  0.3039
10453TIP3    H152774   2.955   0.691  12.782 -0.9501  0.1906  1.0594
10453TIP3    H252775   2.887   0.773  12.675  0.8816  0.2361 -0.1120
10454TIP3   OH252776   4.828   5.136  16.204  0.0007  0.0843  0.2918
10454TIP3    H152777   4.843   5.159  16.112 -1.2278 -1.3270 -0.3155
10454TIP3    H252778   4.911   5.097  16.232  0.6533  1.2496  0.0451
10455TIP3   OH252779   0.622   0.764   5.041 -0.0071  0.3553 -0.4846
10455TIP3    H152780   0.536   0.723   5.047 -0.0262  0.5508  1.0963
10455TIP3    H252781   0.615   0.844   5.094  1.2118  0.2204 -0.0658
10456TIP3   OH252782   2.288   3.937   6.136 -0.4821  0.1817  0.4588
10456TIP3    H152783   2.379   3.951   6.111 -0.1300 -1.6670  0.5423
10456TIP3    H252784   2.258   4.022   6.168  0.4385  1.4737 -1.8891
10457TIP3   OH252785   4.941   3.478  13.619  0.2285 -0.3206  0.3548
10457TIP3    H152786   4.857   3.440  13.595 -0.3972  1.7103 -0.8504
10457TIP3    H252787   4.948   3.464  13.714 -0.9188 -1.5032  0.2878
10458TIP3   OH252788   3.011   2.167   1.484 -0.0319  0.2306  0.2607
10458TIP3    H152789   2.942   2.194   1.545  0.7087  1.7071  0.4649
10458TIP3    H252790   3.078   2.128   1.539  1.0562  2.4100  0.5377
10459TIP3   OH252791   2.238   1.902  14.037  0.2313  0.0534 -0.8124
10459TIP3    H152792   2.192   1.946  14.109  0.1150 -0.1280 -0.7774
10459TIP3    H252793   2.188   1.926  13.959  1.0079  1.1840 -0.9849
10460TIP3   OH252794   2.465   0.881  11.592  0.4215  0.1659  0.1643
10460TIP3    H152795   2.436   0.847  11.507 -0.4579  0.3400  0.3843
10460TIP3    H252796   2.502   0.966  11.572 -1.3545  0.9814  0.1438
10461TIP3   OH252797   6.787   1.039   1.629 -0.5569  0.1266  0.5388
10461TIP3    H152798   6.771   1.045   1.535 -0.4971 -0.1898  0.5097
10461TIP3    H252799   6.733   1.109   1.666  0.4748  1.1520  0.1545
10462TIP3   OH252800   1.914   1.332   0.196  0.1077  0.6065 -0.5305
10462TIP3    H152801   1.982   1.310   0.132 -0.1076 -0.5835 -0.3600
10462TIP3    H252802   1.939   1.285   0.275 -1.5653 -0.8892 -0.8282
10463TIP3   OH252803   1.424   2.062  13.615 -0.0263  0.1850  0.2928
10463TIP3    H152804   1.419   2.153  13.644  0.2537  0.2767  0.0499
10463TIP3    H252805   1.456   2.014  13.692 -1.5875  0.0500  0.9092
10464TIP3   OH252806   0.346   1.287  16.985  0.0892  0.6715  0.2926
10464TIP3    H152807   0.370   1.331  17.066  0.8614  0.0003  0.4363
10464TIP3    H252808   0.313   1.202  17.012  0.0543  0.5652 -0.0771
10465TIP3   OH252809   3.853   3.349   6.332 -0.2285 -0.1583 -0.2305
10465TIP3    H152810   3.914   3.421   6.314 -0.7990  0.2154 -0.7204
10465TIP3    H252811   3.892   3.273   6.289  0.5358 -0.2226  0.5520
10466TIP3   OH252812   2.624   4.201  16.967 -0.0589 -0.4647  0.0504
10466TIP3    H152813   2.615   4.202  16.872  0.2259  1.6707 -0.0034
10466TIP3    H252814   2.680   4.276  16.987 -1.1392 -0.0956  1.9778
10467TIP3   OH252815   3.443   3.569   3.784  0.3880  0.0939  0.0891
10467TIP3    H152816   3.519   3.616   3.819  0.1594  1.2850 -0.9510
10467TIP3    H252817   3.387   3.555   3.861  1.6726 -0.8829  0.8894
10468TIP3   OH252818   4.693   3.289  11.578 -0.4650 -0.3099 -0.2719
10468TIP3    H152819   4.767   3.239  11.545 -0.4741 -0.6262  0.1736
10468TIP3    H252820   4.719   3.313  11.667  0.4447  2.2758 -1.1276
10469TIP3   OH252821   6.117   2.714   0.820 -0.2202  0.3239  0.3378
10469TIP3    H152822   6.104   2.657   0.896 -0.2883 -1.1950 -0.7541
10469TIP3    H252823   6.048   2.688   0.759 -0.7513  2.1722  0.1043
10470TIP3   OH252824   3.104   6.630  12.964 -0.0242  0.5601 -0.1173
10470TIP3    H152825   3.080   6.542  12.994  1.6369 -0.2500 -0.9847
10470TIP3    H252826   3.100   6.685  13.042 -1.5765 -0.1714  0.3466
10471TIP3   OH252827   4.350   2.996   3.624  0.0359 -0.7282  0.2530
10471TIP3    H152828   4.389   3.019   3.540 -0.6871 -0.3892  0.0087
10471TIP3    H252829   4.421   3.009   3.687 -0.2201  1.9875  0.1183
10472TIP3   OH252830   1.440   4.006   3.953  0.2131 -0.1029 -0.4502
10472TIP3    H152831   1.488   4.012   4.036 -0.7390 -0.7968  0.1834
10472TIP3    H252832   1.467   4.083   3.903  0.7110  0.3959  0.5596
10473TIP3   OH252833   0.860   5.790  13.440 -0.3005  0.0990 -0.5165
10473TIP3    H152834   0.842   5.790  13.534  2.1581  0.4218  0.0202
10473TIP3    H252835   0.921   5.718  13.427 -0.4577  0.1818 -1.8476
10474TIP3   OH252836   5.691   3.075  11.666  0.2801 -0.5978 -0.2135
10474TIP3    H152837   5.772   3.107  11.626  0.1346 -1.6264 -1.3792
10474TIP3    H252838   5.667   3.144  11.729  2.9629 -1.0500  1.4732
10475TIP3   OH252839   2.678   0.182   3.229  0.2752 -0.0278 -0.1767
10475TIP3    H152840   2.771   0.206   3.232 -0.2315  2.0685  1.3579
10475TIP3    H252841   2.647   0.216   3.145  0.7926 -0.4461 -0.5486
10476TIP3   OH252842   2.686   1.846   2.941  0.1062 -0.0379  0.0540
10476TIP3    H152843   2.614   1.873   2.882 -0.9169 -1.0798  0.7962
10476TIP3    H252844   2.648   1.777   2.994  1.3874  0.0818  1.1485
10477TIP3   OH252845   4.418   0.751  12.931 -0.2570 -0.1911 -0.7450
10477TIP3    H152846   4.329   0.720  12.912 -0.7810  1.2926 -0.8138
10477TIP3    H252847   4.441   0.805  12.855  0.7666 -0.6558 -0.7798
10478TIP3   OH252848   4.778   4.371   0.760 -0.7929 -0.5828 -0.5790
10478TIP3    H152849   4.762   4.422   0.681  0.3070  1.2199  0.2824
10478TIP3    H252850   4.763   4.433   0.832  1.3313 -1.2174  0.5015
10479TIP3   OH252851   1.157   0.273   5.518 -0.0274 -0.2647  0.1082
10479TIP3    H152852   1.089   0.334   5.489  0.1131  0.5450  1.3888
10479TIP3    H252853   1.182   0.225   5.439  0.4920  1.9604 -1.1699
10480TIP3   OH252854   6.809   6.779  12.837  0.4342  0.0079  0.1552
10480TIP3    H152855   6.832   6.782  12.744  0.8174  1.3232  0.2711
10480TIP3    H252856   6.720   6.812  12.842  0.2165 -0.5648  0.2171
10481TIP3   OH252857   0.481   1.861   0.934 -0.5330  0.5685 -0.2386
10481TIP3    H152858   0.508   1.866   0.842  1.8838 -0.9708  0.3021
10481TIP3    H252859   0.416   1.791   0.936 -0.9555  0.9294 -0.8279
10482TIP3   OH252860   6.235   0.531   3.744 -0.7190  0.1470 -0.1020
10482TIP3    H152861   6.173   0.580   3.797 -0.3772 -0.5024  0.9296
10482TIP3    H252862   6.242   0.581   3.663 -1.3641  1.0828  0.4009
10483TIP3   OH252863   1.940   0.441  13.243  0.2099  0.2283  0.0821
10483TIP3    H152864   1.874   0.436  13.174 -2.2902 -0.8440  2.3638
10483TIP3    H252865   1.975   0.352  13.248  0.6120  0.3807  0.0272
10484TIP3   OH252866   5.059   4.392   3.262  0.4786 -0.1121  0.3477
10484TIP3    H152867   5.032   4.363   3.175 -0.1873  0.2346  0.4331
10484TIP3    H252868   5.144   4.433   3.249  1.4681 -2.1266  0.2309
10485TIP3   OH252869   4.769   2.280  14.197 -0.1537 -0.2311  0.2705
10485TIP3    H152870   4.698   2.340  14.217  0.3030  0.3153  0.2783
10485TIP3    H252871   4.825   2.328  14.136 -0.7761 -1.3377 -1.2479
10486TIP3   OH252872   3.754   6.323   5.158  0.2991 -0.3061  0.8863
10486TIP3    H152873   3.683   6.369   5.202 -0.1933  1.0582 -1.1922
10486TIP3    H252874   3.730   6.230   5.165 -0.2696 -0.0663  2.5138
10487TIP3   OH252875   3.197   2.484  16.434 -0.1619 -0.2057  0.6276
10487TIP3    H152876   3.263   2.549  16.458  0.2395  0.5622 -2.2357
10487TIP3    H252877   3.113   2.528  16.449  0.0797  0.4072  0.1966
10488TIP3   OH252878   0.529   1.557   4.630 -0.6529  0.0353 -0.0421
10488TIP3    H152879   0.527   1.482   4.689 -1.6235  0.0931  0.0057
10488TIP3    H252880   0.437   1.575   4.611 -0.4129  0.9849 -0.3384
10489TIP3   OH252881   3.559   5.167   6.012  0.0708 -0.3296 -0.2823
10489TIP3    H152882   3.610   5.247   6.003 -0.1541 -0.0680  0.6778
10489TIP3    H252883   3.576   5.118   5.931  1.0391  0.2076 -0.4099
10490TIP3   OH252884   2.536   0.070   3.921 -0.0979  0.8655  0.7350
10490TIP3    H152885   2.531   0.155   3.878 -1.7886  0.9765  1.0965
10490TIP3    H252886   2.621   0.071   3.965 -0.9203  3.2773  2.5094
10491TIP3   OH252887   5.209   4.549  12.560  0.0199  0.0551 -0.5786
10491TIP3    H152888   5.178   4.581  12.645  1.1693  0.7358 -0.3788
10491TIP3    H252889   5.216   4.628  12.506  0.7927 -0.1538 -0.8001
10492TIP3   OH252890   5.451   6.678   0.135 -0.1545 -0.3442 -0.3446
10492TIP3    H152891   5.456   6.696   0.229  0.8453  0.3034 -0.5037
10492TIP3    H252892   5.520   6.732   0.097  2.1648 -3.4946 -1.0371
10493TIP3   OH252893   1.878   5.467  17.084  0.0175 -0.4469 -0.0189
10493TIP3    H152894   1.938   5.394  17.097 -0.7098 -0.9963  0.3239
10493TIP3    H252895   1.860   5.467  16.990  1.1540  0.2251 -0.2646
10494TIP3   OH252896   6.071   1.448   1.117  0.5255  0.2440 -0.1353
10494TIP3    H152897   6.152   1.433   1.165  1.8258 -1.6240 -2.6347
10494TIP3    H252898   6.026   1.363   1.117 -0.7664  0.8904  0.0170
10495TIP3   OH252899   1.394   1.507  11.486  0.2109  0.4915  0.2410
10495TIP3    H152900   1.457   1.542  11.549  1.1180 -0.8165  0.0893
10495TIP3    H252901   1.444   1.445  11.433 -0.8223  0.6552 -0.9896
10496TIP3   OH252902   0.910   6.592  10.855 -0.0353 -0.4093  0.3594
10496TIP3    H152903   0.900   6.657  10.924 -2.3619 -1.2809  0.9755
10496TIP3    H252904   0.969   6.632  10.792 -2.3484  2.9135  0.0291
10497TIP3   OH252905   1.822   1.411  11.248 -0.0780 -0.1902 -0.1223
10497TIP3    H152906   1.851   1.495  11.284 -0.9608 -0.1211  0.4491
10497TIP3    H252907   1.807   1.429  11.155 -1.7413  0.7040  0.2816
10498TIP3   OH252908   6.762   3.083  15.643 -0.1302 -0.5450 -0.0227
10498TIP3    H152909   6.750   2.993  15.615  0.3142 -2.0466  3.9589
10498TIP3    H252910   6.682   3.104  15.691 -0.7813  1.7486 -1.9319
10499TIP3   OH252911   2.419   4.225   5.099 -0.0842  0.0384 -0.6168
10499TIP3    H152912   2.493   4.218   5.037  0.3951  0.0114 -0.0493
10499TIP3    H252913   2.352   4.168   5.061  1.6496 -3.3674  0.9203
10500TIP3   OH252914   1.983   1.585  14.218  0.5635  0.5852  0.4064
10500TIP3    H152915   2.024   1.594  14.132  0.3121 -0.0589  0.2187
10500TIP3    H252916   1.946   1.672  14.236 -0.9160  0.2640 -0.9188
10501TIP3   OH252917   2.728   1.017   2.583 -0.1531  0.3890  0.0833
10501TIP3    H152918   2.804   0.994   2.636 -0.6130 -0.0248  0.5740
10501TIP3    H252919   2.753   1.097   2.538 -0.4711  1.9365  2.4896
10502TIP3   OH252920   5.855   4.985   2.005  0.4684 -0.6857  0.2940
10502TIP3    H152921   5.848   5.025   2.092  1.6665  0.6755 -0.2035
10502TIP3    H252922   5.770   5.002   1.964  0.1987 -0.5742  0.8846
10503TIP3   OH252923   1.576   5.095   5.025 -0.5201  0.6632  0.0057
10503TIP3    H152924   1.625   5.140   4.956 -1.2075  0.7568 -0.4323
10503TIP3    H252925   1.611   5.006   5.026  0.3900  1.0124  0.4240
10504TIP3   OH252926   0.152   6.671  11.424  0.1859 -0.4076 -0.9316
10504TIP3    H152927   0.153   6.708  11.335 -0.4234  0.8367 -0.4311
10504TIP3    H252928   0.110   6.737  11.478  0.0524 -1.3848  0.2058
10505TIP3   OH252929   3.982   2.777  12.747  0.2958  0.1326  0.3123
10505TIP3    H152930   3.910   2.838  12.737  1.3531  1.3646 -0.1085
10505TIP3    H252931   3.963   2.707  12.684 -0.3996  0.5608  0.0343
10506TIP3   OH252932   2.273   4.564  12.391 -0.4210  0.1873  0.0914
10506TIP3    H152933   2.185   4.585  12.421 -0.2260  1.8416 -0.3995
10506TIP3    H252934   2.290   4.626  12.320  0.3239 -1.5272 -1.3166
10507TIP3   OH252935   4.084   2.644   2.664  0.1739  0.0810 -0.0167
10507TIP3    H152936   4.169   2.631   2.624 -0.2487 -0.1696 -0.8495
10507TIP3    H252937   4.047   2.719   2.618 -0.1144  0.0993  0.2416
10508TIP3   OH252938   2.864   0.473  10.157  0.1006  0.0647  0.1978
10508TIP3    H152939   2.922   0.542  10.191 -1.8667  1.9950 -0.1135
10508TIP3    H252940   2.786   0.520  10.128 -1.4098 -2.3464  0.0797
10509TIP3   OH252941   1.454   2.758  12.371 -0.5968 -0.0360  0.6582
10509TIP3    H152942   1.459   2.842  12.327  0.2481  0.0276  0.8430
10509TIP3    H252943   1.458   2.693  12.300  2.3005  0.0272  0.6162
10510TIP3   OH252944   1.478   4.705   5.611  1.1997 -0.1054  0.3191
10510TIP3    H152945   1.407   4.671   5.556  2.1786 -1.1408 -0.3572
10510TIP3    H252946   1.440   4.710   5.699 -0.8541  2.9516 -0.5809
10511TIP3   OH252947   0.202   3.074   1.079 -0.2475 -0.0422  0.3756
10511TIP3    H152948   0.267   3.105   1.143 -0.0613 -0.3776  0.3521
10511TIP3    H252949   0.135   3.031   1.131 -0.2380 -0.0626  0.3713
10512TIP3   OH252950   2.676   5.299   0.900  0.1328  0.1987  0.2676
10512TIP3    H152951   2.627   5.301   0.982  0.7898 -0.0671  0.6713
10512TIP3    H252952   2.746   5.236   0.915 -0.0717 -0.2898 -0.6879
10513TIP3   OH252953   6.139   3.812  14.528 -0.6825 -0.0852  0.0365
10513TIP3    H152954   6.155   3.787  14.437 -2.4765 -0.1836 -0.2817
10513TIP3    H252955   6.147   3.730  14.577  0.7664  0.0520  0.0573
10514TIP3   OH252956   3.821   6.517  16.537  0.4832  0.3739  0.2649
10514TIP3    H152957   3.878   6.533  16.462  0.7985 -1.2507  0.1174
10514TIP3    H252958   3.880   6.492  16.608  0.0161 -0.8464  0.2496
10515TIP3   OH252959   0.921   2.585   5.067  0.5153  0.4562  0.2199
10515TIP3    H152960   0.908   2.603   5.161  0.3027 -2.0817  0.7493
10515TIP3    H252961   0.838   2.608   5.026  0.4596  1.1704  0.7201
10516TIP3   OH252962   6.782   3.544   5.523 -0.0072 -0.1934 -0.7764
10516TIP3    H152963   6.825   3.460   5.542 -0.1717 -0.8999 -3.2225
10516TIP3    H252964   6.691   3.530   5.548  0.3302 -0.0204  0.6886
10517TIP3   OH252965   4.127   4.912  16.406  0.0814  0.2551  0.3385
10517TIP3    H152966   4.117   4.829  16.360  1.4288 -0.4584  1.2742
10517TIP3    H252967   4.217   4.939  16.389  0.2520  0.5414  1.6077
10518TIP3   OH252968   2.454   4.220   3.031 -0.3708 -0.4292  0.0906
10518TIP3    H152969   2.520   4.290   3.025 -0.5751 -0.0934  1.5143
10518TIP3    H252970   2.389   4.254   3.092 -1.4994 -1.0757 -0.7139
10519TIP3   OH252971   3.233   5.920   3.432  0.0370 -0.1688 -0.5644
10519TIP3    H152972   3.243   5.832   3.470  1.5495  1.4128  3.2066
10519TIP3    H252973   3.149   5.951   3.465  0.1762  0.3253 -0.6648
10520TIP3   OH252974   4.142   1.362  13.682 -0.5552  0.0325 -0.2390
10520TIP3    H152975   4.116   1.344  13.591 -0.6815  2.2387 -0.7059
10520TIP3    H252976   4.106   1.449  13.700 -2.2031 -1.1213  2.6392
10521TIP3   OH252977   5.211   0.840   2.940 -0.0920  0.5833 -0.1091
10521TIP3    H152978   5.206   0.746   2.923  1.2942  0.0290  1.9966
10521TIP3    H252979   5.125   0.874   2.918 -1.9494 -1.8868  2.5287
10522TIP3   OH252980   1.001   3.285   1.254 -0.8644 -0.0542 -0.3815
10522TIP3    H152981   1.022   3.217   1.317 -0.2311 -1.6657 -2.2172
10522TIP3    H252982   0.910   3.268   1.229 -2.1825  2.4136  2.1488
10523TIP3   OH252983   2.161   0.244   5.256 -0.3382  0.1737 -0.2161
10523TIP3    H152984   2.152   0.163   5.306 -0.9695 -0.7553 -1.7433
10523TIP3    H252985   2.074   0.257   5.217 -0.6774  2.4072  1.1255
10524TIP3   OH252986   3.081   1.532  14.651 -0.0909 -0.6879  0.9052
10524TIP3    H152987   3.064   1.454  14.703 -1.5852 -0.1593  1.2725
10524TIP3    H252988   3.133   1.589  14.708 -0.8421 -0.5360  1.4435
10525TIP3   OH252989   0.631   3.771   3.360 -0.3615 -0.0587  0.2045
10525TIP3    H152990   0.659   3.820   3.283 -1.5287 -0.7963 -0.7188
10525TIP3    H252991   0.552   3.816   3.390 -1.7709 -1.6289 -0.9808
10526TIP3   OH252992   4.265   6.719   1.692  0.2862 -0.0845  0.4251
10526TIP3    H152993   4.325   6.779   1.645 -1.5899  0.8461 -0.9157
10526TIP3    H252994   4.245   6.765   1.773 -0.2263  0.6056 -0.0743
10527TIP3   OH252995   2.212   1.500   2.642  0.3878 -0.4477 -0.2869
10527TIP3    H152996   2.203   1.493   2.737  0.5859  5.2141  0.4889
10527TIP3    H252997   2.125   1.527   2.611  0.5821 -1.2327 -1.6069
10528TIP3   OH252998   5.160   6.365  16.070  0.1960 -0.2789 -0.5457
10528TIP3    H152999   5.192   6.298  16.130  1.7967  0.9078  0.0130
10528TIP3    H253000   5.119   6.430  16.128  1.3012  0.6269 -0.7405
10529TIP3   OH253001   1.705   5.413   1.098  0.2266 -0.3437  0.2656
10529TIP3    H153002   1.653   5.377   1.169 -0.9497 -0.5321 -0.6616
10529TIP3    H253003   1.664   5.496   1.076 -0.2320 -0.8751 -1.0221
10530TIP3   OH253004   0.723   1.314  15.659 -0.1544 -0.4302  0.2664
10530TIP3    H153005   0.704   1.377  15.728 -0.4253 -0.9926  0.7072
10530TIP3    H253006   0.819   1.308  15.658 -0.0769  0.6468 -0.3796
10531TIP3   OH253007   0.529   4.453  12.570 -0.1616 -0.4463  0.0888
10531TIP3    H153008   0.600   4.507  12.535 -1.0235  0.5031 -0.2265
10531TIP3    H253009   0.512   4.389  12.500 -0.3480  0.0114 -0.2898
10532TIP3   OH253010   2.460   1.548  11.941 -0.0611  0.3196 -0.8241
10532TIP3    H153011   2.398   1.607  11.984  0.6402 -0.0801  0.8462
10532TIP3    H253012   2.411   1.511  11.867 -0.8429  2.1665 -1.2737
10533TIP3   OH253013   4.431   0.680  16.954 -0.2876 -0.2535  0.1257
10533TIP3    H153014   4.483   0.760  16.963 -1.9277  1.3504 -2.9191
10533TIP3    H253015   4.484   0.622  16.900 -0.3185  0.0475 -0.2321
10534TIP3   OH253016   2.762   4.976  13.246  0.1845  0.2035  0.2359
10534TIP3    H153017   2.709   4.991  13.168  1.9717  0.6854 -0.9591
10534TIP3    H253018   2.767   5.062  13.288  0.5409  0.3087 -0.0157
10535TIP3   OH253019   0.915   5.412  11.384  0.5540  0.5356  0.1334
10535TIP3    H153020   0.832   5.450  11.356  0.7937  1.2317  0.3427
10535TIP3    H253021   0.969   5.488  11.408  0.9566  0.0434  0.7969
10536TIP3   OH253022   2.755   5.297   5.974  0.2908 -0.5687  0.1915
10536TIP3    H153023   2.753   5.327   5.883 -1.3002  1.9653  0.9737
10536TIP3    H253024   2.767   5.376   6.026 -1.6664 -1.5377  2.3020
10537TIP3   OH253025   6.529   4.077   2.512 -0.0736  0.4106  0.3572
10537TIP3    H153026   6.468   4.099   2.582  0.0588 -0.7416  0.8592
10537TIP3    H253027   6.536   3.981   2.516  2.0692  0.5356  0.5761
10538TIP3   OH253028   5.787   0.669  11.771 -0.0035  0.5035 -0.3302
10538TIP3    H153029   5.745   0.598  11.821  0.6349 -0.4710 -1.1227
10538TIP3    H253030   5.738   0.748  11.795 -0.6492 -0.1781  0.6902
10539TIP3   OH253031   3.126   5.834  11.320  0.4851 -0.4070  0.2491
10539TIP3    H153032   3.210   5.821  11.275  0.2357  0.0336 -0.3571
10539TIP3    H253033   3.150   5.860  11.409  0.9931  0.0301 -0.0128
10540TIP3   OH253034   1.455   0.004   4.946 -0.3201 -0.1842 -0.2204
10540TIP3    H153035   1.370   0.029   4.910 -0.2606 -1.5271 -1.3745
10540TIP3    H253036   1.513   0.003   4.871  0.1697 -1.5300  0.1420
10541TIP3   OH253037   4.257   5.906  12.400 -0.5565  0.0602 -0.3780
10541TIP3    H153038   4.283   5.910  12.308 -2.0488 -2.9816 -1.0637
10541TIP3    H253039   4.163   5.927  12.399 -0.6560 -0.3148  0.3904
10542TIP3   OH253040   1.053   3.355  13.140  0.3458  0.4374 -0.0067
10542TIP3    H153041   1.001   3.386  13.066  2.6189  1.7061 -1.1836
10542TIP3    H253042   0.989   3.319  13.201 -1.9454  2.3385 -1.1183
10543TIP3   OH253043   6.808   0.398   0.400  0.7971  0.2969 -0.0566
10543TIP3    H153044   6.878   0.381   0.337 -1.8852 -1.1918 -2.9061
10543TIP3    H253045   6.765   0.314   0.412 -0.5563  1.1658  1.6010
10544TIP3   OH253046   1.170   2.775  14.736 -0.6930  0.3094 -0.1979
10544TIP3    H153047   1.251   2.820  14.713 -0.4907  0.2431  0.3630
10544TIP3    H253048   1.143   2.815  14.819 -1.0783  0.1273 -0.2318
10545TIP3   OH253049   2.187   6.505  12.969 -0.1110  0.0687 -0.7396
10545TIP3    H153050   2.119   6.440  12.949 -0.2694 -1.3297  3.3995
10545TIP3    H253051   2.266   6.453  12.984  0.4702  1.1197 -0.0910
10546TIP3   OH253052   3.012   3.516  10.685  0.2045  0.4183 -0.0658
10546TIP3    H153053   3.006   3.598  10.735  0.2413 -0.9293  2.3091
10546TIP3    H253054   2.926   3.508  10.643  0.0863  1.5088 -0.0800
10547TIP3   OH253055   5.521   2.859  13.424 -0.7619  0.7429  0.2941
10547TIP3    H153056   5.501   2.928  13.487  0.4275  0.4715  0.9954
10547TIP3    H253057   5.490   2.779  13.465 -0.0060  0.5685  0.5453
10548TIP3   OH253058   0.808   4.178  15.447  0.3067 -0.3189  0.1453
10548TIP3    H153059   0.712   4.175  15.458  0.2931 -0.7575 -0.1002
10548TIP3    H253060   0.836   4.248  15.507 -0.1536 -0.2679  0.3082
10549TIP3   OH253061   0.687   6.656   5.602  0.2391  0.5625  0.3559
10549TIP3    H153062   0.676   6.653   5.697  0.9474  0.6097  0.4446
10549TIP3    H253063   0.630   6.727   5.573 -0.3817  0.2117  0.6787
10550TIP3   OH253064   2.859   3.989   0.797 -0.5358 -0.2527 -0.1161
10550TIP3    H153065   2.784   4.032   0.756 -0.5763  0.0949  0.3132
10550TIP3    H253066   2.842   3.994   0.891 -0.0005 -0.2131 -0.0137
10551TIP3   OH253067   1.476   0.278   5.284  0.0678 -0.1672  0.3610
10551TIP3    H153068   1.515   0.234   5.360  0.0184 -0.8592 -0.0055
10551TIP3    H253069   1.514   0.366   5.285  2.7724 -1.1931 -0.7496
10552TIP3   OH253070   5.677   6.567   5.694  0.6633  0.0333  0.0369
10552TIP3    H153071   5.623   6.499   5.655  0.4182 -0.6859  1.5685
10552TIP3    H253072   5.757   6.522   5.721  0.3464  0.2466  1.3961
10553TIP3   OH253073   2.135   1.434   3.351 -0.5839  0.0164 -0.7606
10553TIP3    H153074   2.040   1.431   3.356 -0.5369 -0.3218  0.1308
10553TIP3    H253075   2.158   1.518   3.392 -0.4672 -0.2187 -0.3384
10554TIP3   OH253076   0.603   0.013  14.626 -0.7186  0.4224  0.4300
10554TIP3    H153077   0.543  -0.020  14.559  0.0792  0.4781 -0.3111
10554TIP3    H253078   0.658  -0.062  14.648 -0.6535  0.5396  0.6743
10555TIP3   OH253079   6.279   1.395  10.875 -0.1481 -0.8365 -0.0783
10555TIP3    H153080   6.362   1.357  10.848  1.0058  0.5812  1.2603
10555TIP3    H253081   6.303   1.481  10.912 -2.2174 -0.3275  0.2137
10556TIP3   OH253082   5.280   1.281  10.875  0.5307  0.4213 -0.5854
10556TIP3    H153083   5.244   1.204  10.832  1.2749 -0.6628  0.6513
10556TIP3    H253084   5.374   1.263  10.882  0.5290  0.8572  0.8394
10557TIP3   OH253085   0.329   6.495  17.046  0.6788  0.2097 -0.3418
10557TIP3    H153086   0.369   6.489  16.959  1.0152  0.9280 -0.2400
10557TIP3    H253087   0.314   6.404  17.071  1.1450 -0.0269 -0.8970
10558TIP3   OH253088   1.480   4.032   4.381  0.2668 -0.2962 -0.4015
10558TIP3    H153089   1.554   4.086   4.408  0.9768 -0.9808 -0.9428
10558TIP3    H253090   1.498   4.010   4.290 -0.3141 -0.9547 -0.3632
10559TIP3   OH253091   2.975   2.309   4.077  0.1154  0.0160 -0.0842
10559TIP3    H153092   2.981   2.234   4.017 -0.2301  0.1238 -0.2603
10559TIP3    H253093   2.883   2.310   4.104 -0.4557  1.7318 -1.8698
10560TIP3   OH253094   1.887   3.052   5.961 -0.6178  0.6677  0.1767
10560TIP3    H153095   1.910   3.100   6.040 -0.8214  0.4972  0.3426
10560TIP3    H253096   1.950   3.082   5.895 -1.2940  1.8162  0.0354
10561TIP3   OH253097   5.267   3.186   5.240  0.9334 -0.5290 -0.2110
10561TIP3    H153098   5.270   3.276   5.208  0.7608 -0.9578 -1.4967
10561TIP3    H253099   5.180   3.154   5.216  0.0400 -0.3102  2.4170
10562TIP3   OH253100   5.179   5.179  17.049  0.7652 -0.2669  0.2041
10562TIP3    H153101   5.148   5.268  17.066 -1.6334 -0.8915 -0.6056
10562TIP3    H253102   5.188   5.174  16.954  1.8176 -0.6304  0.3089
10563TIP3   OH253103   5.024   1.124   2.728 -0.1526 -0.0625 -0.3093
10563TIP3    H153104   5.100   1.109   2.672 -0.5942 -0.7614 -0.7360
10563TIP3    H253105   4.979   1.039   2.732 -1.4441  0.5607 -0.8620
10564TIP3   OH253106   4.894   1.738  16.868  0.3816 -0.3585  0.5688
10564TIP3    H153107   4.860   1.677  16.803 -0.5149 -1.4450  1.9928
10564TIP3    H253108   4.855   1.710  16.951  1.9689  0.5754  1.6999
10565TIP3   OH253109   3.703   2.580  14.334 -0.0011  0.5115 -0.0956
10565TIP3    H153110   3.699   2.671  14.365  1.3125  0.6981 -0.4173
10565TIP3    H253111   3.796   2.564  14.318 -0.1366 -1.0941  0.5136
10566TIP3   OH253112   3.770   3.272   2.068 -0.0641  0.6354 -0.2793
10566TIP3    H153113   3.682   3.267   2.105 -0.4772 -1.1571 -1.4246
10566TIP3    H253114   3.782   3.190   2.020  2.0440  1.0554 -0.5908
10567TIP3   OH253115   5.848   0.935  16.867 -0.5156  0.2240  0.1632
10567TIP3    H153116   5.794   0.898  16.937 -0.9751  0.0149 -0.3010
10567TIP3    H253117   5.889   1.012  16.907 -0.8728  0.1785  0.6230
10568TIP3   OH253118   0.299   4.798   1.749 -0.0776  0.0173  0.0169
10568TIP3    H153119   0.363   4.822   1.681  1.3517 -2.4435  0.3572
10568TIP3    H253120   0.217   4.787   1.701  0.7166 -0.8791 -1.2296
10569TIP3   OH253121   4.775   4.954   2.676  0.0472  0.0062  0.2046
10569TIP3    H153122   4.700   4.929   2.730 -1.0702  1.5620 -0.5713
10569TIP3    H253123   4.797   5.042   2.704  1.2507 -0.2185  0.0232
10570TIP3   OH253124   5.476   2.587  16.030 -0.0908 -0.1135 -0.4184
10570TIP3    H153125   5.432   2.512  16.072  2.8254 -0.9121  1.5459
10570TIP3    H253126   5.427   2.663  16.060 -0.3892 -0.9663  1.4027
10571TIP3   OH253127   0.123   6.166   0.436 -0.2598  0.4843 -0.2982
10571TIP3    H153128   0.155   6.221   0.508 -1.8900  0.6475  0.3430
10571TIP3    H253129   0.129   6.077   0.470 -0.8084  0.5435 -0.0350
10572TIP3   OH253130   4.281   2.227  12.205  0.1056  0.4254 -0.1064
10572TIP3    H153131   4.293   2.184  12.121 -1.6496 -0.4163  0.0322
10572TIP3    H253132   4.265   2.319  12.184  1.1650  0.5146 -0.5752
10573TIP3   OH253133   5.827   2.472   5.741  0.4843  0.3622 -0.2528
10573TIP3    H153134   5.739   2.455   5.774  0.3622 -1.1427 -1.2854
10573TIP3    H253135   5.815   2.485   5.647  1.3885 -0.0951 -0.4389
10574TIP3   OH253136   5.440   5.317  11.564  0.3532 -0.2368 -0.0970
10574TIP3    H153137   5.386   5.240  11.585  0.6405 -0.4950 -0.2988
10574TIP3    H253138   5.377   5.387  11.550  0.0523 -0.6048 -0.6199
10575TIP3   OH253139   1.611   4.994  13.901 -0.0061 -1.0477 -0.1324
10575TIP3    H153140   1.640   4.904  13.887  0.5356 -1.2008  1.7681
10575TIP3    H253141   1.520   4.995  13.870  0.1745 -2.0823 -0.7428
10576TIP3   OH253142   1.853   1.374   1.371  0.3521  0.2200  0.1085
10576TIP3    H153143   1.849   1.371   1.466 -0.2960 -0.1690  0.0815
10576TIP3    H253144   1.765   1.346   1.343  0.1741  1.3892 -0.5845
10577TIP3   OH253145   6.613   1.412  16.715 -0.2511 -0.2062  0.2970
10577TIP3    H153146   6.644   1.354  16.646 -0.2578 -0.2800  0.3556
10577TIP3    H253147   6.600   1.355  16.791  1.0310  0.0766  0.7561
10578TIP3   OH253148   0.720   0.048  15.350 -0.1398  0.1786 -0.0206
10578TIP3    H153149   0.638   0.010  15.381  0.0734 -0.1260  0.1778
10578TIP3    H253150   0.721   0.029  15.256 -0.4232  0.4238 -0.0727
10579TIP3   OH253151   2.387   2.166   2.032  0.3613  0.0862 -0.8107
10579TIP3    H153152   2.327   2.211   1.972  0.6430 -1.0706 -2.0096
10579TIP3    H253153   2.455   2.130   1.975  0.5094 -1.2729  0.1753
10580TIP3   OH253154   2.681   2.652   2.220 -0.1105  0.0320  0.0078
10580TIP3    H153155   2.713   2.670   2.309 -1.8904  1.1299  0.4694
10580TIP3    H253156   2.666   2.739   2.182 -0.5584 -0.4402 -0.9130
10581TIP3   OH253157   3.712   6.582   1.702  0.2505  0.0241 -0.2445
10581TIP3    H153158   3.764   6.513   1.662 -2.2635 -1.5178 -1.1005
10581TIP3    H253159   3.622   6.551   1.695 -0.7452  2.0535  2.0903
10582TIP3   OH253160   4.669   6.036  14.517 -0.4133  0.2065 -0.4100
10582TIP3    H153161   4.649   5.972  14.449 -4.0964  0.2370  0.4760
10582TIP3    H253162   4.619   6.114  14.493 -1.3727  0.4009  1.9641
10583TIP3   OH253163   3.789   5.992   5.889 -0.0813 -0.2547 -0.1005
10583TIP3    H153164   3.842   5.914   5.872 -1.0284 -0.4367 -2.6238
10583TIP3    H253165   3.700   5.959   5.899 -0.0599  0.2204  2.5528
10584TIP3   OH253166   0.306   3.710   4.722  0.6581 -0.3573 -0.2890
10584TIP3    H153167   0.329   3.680   4.810  0.9548  0.0147 -0.2380
10584TIP3    H253168   0.211   3.705   4.719  0.5135  1.0955  0.5944
10585TIP3   OH253169   3.459   0.601   0.139 -0.6648  0.2565  0.1208
10585TIP3    H153170   3.448   0.569   0.050 -2.2182 -2.7392  1.2497
10585TIP3    H253171   3.507   0.532   0.185 -2.1277  0.4836  2.1744
10586TIP3   OH253172   5.635   2.898   2.294 -0.5826  0.1826 -0.1585
10586TIP3    H153173   5.705   2.961   2.309  1.0923 -1.3923 -1.0188
10586TIP3    H253174   5.679   2.819   2.263 -2.6467 -1.2777  0.3855
10587TIP3   OH253175   4.335   5.746   3.475  0.2642 -0.0678  0.0104
10587TIP3    H153176   4.401   5.700   3.527 -1.1553  0.3169  2.3246
10587TIP3    H253177   4.362   5.837   3.479 -0.2549  0.0649  0.8011
10588TIP3   OH253178   2.201   6.300   0.283  0.1105  0.3147  0.0492
10588TIP3    H153179   2.237   6.388   0.275  0.8178 -0.0898 -1.4678
10588TIP3    H253180   2.143   6.291   0.207 -1.5693  0.1741  1.2822
10589TIP3   OH253181   3.919   5.297  12.738 -0.4135 -0.2106  0.2140
10589TIP3    H153182   4.000   5.343  12.715 -0.2161  0.3151  1.8289
10589TIP3    H253183   3.928   5.211  12.697  1.4735 -0.5594  1.2194
10590TIP3   OH253184   6.521   1.583  13.401  1.0257  0.5024  0.3989
10590TIP3    H153185   6.475   1.504  13.372 -1.1802  1.5350  0.8505
10590TIP3    H253186   6.453   1.635  13.446  2.2149  2.9461 -0.4579
10591TIP3   OH253187   1.355   6.241   0.363 -0.0680  0.0682 -0.4287
10591TIP3    H153188   1.264   6.257   0.338 -0.0384  0.3713 -0.3502
10591TIP3    H253189   1.382   6.166   0.311 -0.2180  0.2702 -0.7984
10592TIP3   OH253190   4.308   6.170   1.301  0.7381  0.5136  0.6278
10592TIP3    H153191   4.376   6.127   1.353  3.1197  2.4079 -0.6817
10592TIP3    H253192   4.316   6.132   1.214  0.7838  1.4084  0.2316
10593TIP3   OH253193   5.201   0.818   6.005 -0.2568  0.1036 -0.4133
10593TIP3    H153194   5.165   0.823   5.916 -0.2624 -0.5223 -0.4472
10593TIP3    H253195   5.294   0.802   5.992 -0.1655  0.5380 -0.3088
10594TIP3   OH253196   5.380   2.471   3.712  0.4313  0.1864  0.2281
10594TIP3    H153197   5.322   2.414   3.764  1.5554 -3.0685 -1.8110
10594TIP3    H253198   5.321   2.512   3.648  0.0838 -2.2065 -1.0993
10595TIP3   OH253199   2.976   4.113   5.177  0.0857 -0.2464  0.0983
10595TIP3    H153200   3.052   4.057   5.161  0.2493  0.4238 -1.6234
10595TIP3    H253201   2.906   4.076   5.123 -0.4445 -0.0602  0.6396
10596TIP3   OH253202   0.803   2.188  13.958 -0.2997 -0.4849  0.2449
10596TIP3    H153203   0.833   2.270  13.919 -0.8052 -0.3001  0.2354
10596TIP3    H253204   0.852   2.120  13.912  1.7434 -0.1126  1.7240
10597TIP3   OH253205   5.039   3.820   3.691  0.1060 -0.4741  0.2245
10597TIP3    H153206   5.129   3.853   3.689 -0.1146  0.1273 -0.1371
10597TIP3    H253207   4.985   3.899   3.686 -0.4600 -0.7062  1.9551
10598TIP3   OH253208   5.941   2.984   4.666  0.0659 -0.0933 -0.5961
10598TIP3    H153209   5.972   3.073   4.685  0.2348  0.1026 -1.7017
10598TIP3    H253210   6.016   2.942   4.623 -0.3377 -0.4520 -0.9564
10599TIP3   OH253211   3.732   2.292   1.795 -0.0057 -0.0558  0.5508
10599TIP3    H153212   3.788   2.354   1.746  0.5034 -0.4503  0.6232
10599TIP3    H253213   3.706   2.228   1.729 -1.6496  0.9587  0.1596
10600TIP3   OH253214   5.704   2.616   2.293  0.3403 -0.1938  0.0503
10600TIP3    H153215   5.751   2.583   2.216 -2.1085 -0.7225 -1.3005
10600TIP3    H253216   5.654   2.542   2.326 -2.0800  1.0371 -0.5808
10601TIP3   OH253217   4.779   0.220   1.659  0.6921  0.3383  0.4749
10601TIP3    H153218   4.746   0.302   1.623  1.9292 -0.1844 -2.1084
10601TIP3    H253219   4.873   0.234   1.668  1.1344 -1.1438 -1.2448
10602TIP3   OH253220   0.526   6.320   6.326 -0.0370  0.3906  0.0046
10602TIP3    H153221   0.525   6.412   6.301  0.4361  0.4581  0.2122
10602TIP3    H253222   0.607   6.310   6.378 -0.9378  0.2573  1.4477
10603TIP3   OH253223   2.434   2.558   2.336  0.5718 -0.1968 -0.3197
10603TIP3    H153224   2.488   2.562   2.258  1.2752  1.3089  0.2053
10603TIP3    H253225   2.486   2.600   2.404 -1.2212  1.3544  0.2001
10604TIP3   OH253226   2.841   3.681  16.026  0.8181 -0.0246 -0.5999
10604TIP3    H153227   2.906   3.638  15.970  2.0831  1.7229 -0.5607
10604TIP3    H253228   2.865   3.655  16.115 -0.5016 -1.8922 -0.7457
10605TIP3   OH253229   6.433   4.930  14.602 -0.0003 -0.1581  0.2140
10605TIP3    H153230   6.422   4.957  14.693 -1.6208  1.2001 -0.3373
10605TIP3    H253231   6.435   5.012  14.552 -2.9626 -0.8584 -1.3176
10606TIP3   OH253232   6.362   0.735  16.984  0.1189 -0.6064 -0.0520
10606TIP3    H153233   6.418   0.658  16.982  0.1956 -0.5340 -0.8346
10606TIP3    H253234   6.273   0.700  16.975  0.2030 -0.5628 -1.2037
10607TIP3   OH253235   3.739   2.937  16.451  0.3414  0.5891 -0.0411
10607TIP3    H153236   3.676   2.900  16.513  0.9519  0.5479  0.5624
10607TIP3    H253237   3.800   2.866  16.434 -1.4416 -0.4169 -3.0229
10608TIP3   OH253238   1.900   3.057  12.048  0.1471  0.3852 -0.2614
10608TIP3    H153239   1.909   2.982  12.107 -0.8721  0.2334 -0.2866
10608TIP3    H253240   1.845   3.119  12.096 -0.0078  0.6067 -0.7209
10609TIP3   OH253241   5.255   3.132   0.363 -0.1963  0.1206 -0.6971
10609TIP3    H153242   5.344   3.125   0.327 -0.1794  0.9662 -0.8275
10609TIP3    H253243   5.204   3.173   0.293 -0.4650  0.5514 -0.2515
10610TIP3   OH253244   0.633   3.077   2.761  0.1872 -0.1725  0.6179
10610TIP3    H153245   0.627   2.982   2.771 -1.2181 -0.0475  1.2345
10610TIP3    H253246   0.612   3.093   2.669 -0.8137 -0.3941  0.7943
10611TIP3   OH253247   6.763   5.067   2.322  0.1852  0.0456  0.1682
10611TIP3    H153248   6.687   5.118   2.353  1.2180  1.3361  0.7011
10611TIP3    H253249   6.773   4.997   2.387  0.5564  0.9854  1.1610
10612TIP3   OH253250   4.695   3.246  12.648  0.2463  0.5278  0.3904
10612TIP3    H153251   4.686   3.209  12.736 -1.8286 -0.6103 -0.2577
10612TIP3    H253252   4.605   3.261  12.618  0.8567 -0.1603 -1.9853
10613TIP3   OH253253   5.812   3.955  16.930 -0.9969 -0.4930 -0.3841
10613TIP3    H153254   5.750   4.002  16.875 -1.5939 -1.9191 -0.9778
10613TIP3    H253255   5.767   3.943  17.014 -1.2129 -0.8304 -0.5488
10614TIP3   OH253256   6.129   3.500   3.049 -0.0438  0.4832 -0.4171
10614TIP3    H153257   6.042   3.461   3.039  0.3436 -0.5318  0.0519
10614TIP3    H253258   6.120   3.588   3.014 -1.1040  0.1733 -0.9587
10615TIP3   OH253259   2.891   4.559   2.426 -0.0136 -0.6311  0.3308
10615TIP3    H153260   2.852   4.509   2.498 -0.0034  0.1852  0.9190
10615TIP3    H253261   2.959   4.501   2.391 -0.9351 -1.5826  0.0818
10616TIP3   OH253262   6.588   0.762  15.191 -0.0643  0.1413  0.2601
10616TIP3    H153263   6.609   0.698  15.259  1.0088  0.5608  0.3519
10616TIP3    H253264   6.513   0.810  15.226  0.3960  0.2664  1.1043
10617TIP3   OH253265   2.314   2.739   1.808  0.4938 -0.1211  0.3457
10617TIP3    H153266   2.362   2.813   1.770  0.1344  0.1041  0.3260
10617TIP3    H253267   2.247   2.780   1.863 -0.4108 -0.4094 -0.5055
10618TIP3   OH253268   1.184   5.711   2.562  0.1470 -0.1105  0.2244
10618TIP3    H153269   1.237   5.781   2.600  0.6740  0.2262 -1.0759
10618TIP3    H253270   1.148   5.664   2.638  1.4914  0.2708  1.1317
10619TIP3   OH253271   0.893   4.428  13.121  0.3644 -0.5468 -0.5894
10619TIP3    H153272   0.838   4.396  13.049 -0.3967  0.8669 -0.6752
10619TIP3    H253273   0.835   4.430  13.197  0.6614 -0.3035 -0.3630
10620TIP3   OH253274   4.687   3.860  10.892 -0.4269  0.6733  0.2475
10620TIP3    H153275   4.728   3.889  10.811  1.5366  0.9627  1.2958
10620TIP3    H253276   4.606   3.818  10.864  0.2118  0.7406 -1.8520
10621TIP3   OH253277   0.590   5.248   0.766 -0.7791 -0.0919 -0.0209
10621TIP3    H153278   0.629   5.305   0.699 -0.9485 -0.0904 -0.1180
10621TIP3    H253279   0.549   5.177   0.716 -1.0148 -0.0237  0.0742
10622TIP3   OH253280   2.493   1.304   4.557 -0.0687  0.0127  0.4334
10622TIP3    H153281   2.576   1.259   4.573  0.4352  0.2859 -1.2371
10622TIP3    H253282   2.429   1.234   4.545  0.5931 -0.3105 -1.5666
10623TIP3   OH253283   0.096   2.028   3.885 -0.1606 -0.0894  0.3584
10623TIP3    H153284   0.118   1.956   3.944 -0.4260  1.2223  2.1026
10623TIP3    H253285   0.181   2.059   3.853 -0.0674 -1.7553 -1.2333
10624TIP3   OH253286   2.208   5.431   0.589  0.0195 -0.0653  0.2625
10624TIP3    H153287   2.220   5.406   0.497  0.3161  2.2088 -0.3751
10624TIP3    H253288   2.282   5.487   0.609  0.0016 -0.5780  1.9627
10625TIP3   OH253289   6.797   0.968  16.407 -0.4667  0.0049  0.2566
10625TIP3    H153290   6.820   1.052  16.366 -0.5931 -0.1672 -0.1676
10625TIP3    H253291   6.857   0.905  16.367  0.6981  0.1334  1.6960
10626TIP3   OH253292   4.153   3.991   2.664  0.0945 -0.0804  0.0672
10626TIP3    H153293   4.117   3.989   2.753 -1.6296 -0.4782 -0.5868
10626TIP3    H253294   4.170   3.899   2.643  0.5222  0.0144  0.0024
10627TIP3   OH253295   3.356   2.740  15.948 -0.0620 -0.5128 -0.0928
10627TIP3    H153296   3.360   2.676  15.878 -0.6276  0.2655 -0.8639
10627TIP3    H253297   3.321   2.692  16.023  0.8773 -1.4391 -0.2204
10628TIP3   OH253298   4.691   5.165  14.716  0.2872  0.3803 -0.0090
10628TIP3    H153299   4.609   5.206  14.687  0.7173  1.1595 -0.1445
10628TIP3    H253300   4.666   5.075  14.737 -0.2638  0.0535 -1.8459
10629TIP3   OH253301   3.286   1.640   1.018  0.2401  0.2221 -0.1605
10629TIP3    H153302   3.244   1.557   1.044 -0.2220  0.7859  0.9844
10629TIP3    H253303   3.351   1.615   0.952 -0.9137 -0.8584 -0.9258
10630TIP3   OH253304   6.414   0.214   5.098  0.0652 -0.6503 -0.2670
10630TIP3    H153305   6.320   0.224   5.111  0.4344  4.0999  0.5127
10630TIP3    H253306   6.453   0.243   5.181  2.1773  1.0047 -1.7236
10631TIP3   OH253307   4.571   4.171  13.558  0.1267 -0.1034 -0.4314
10631TIP3    H153308   4.526   4.101  13.511 -0.5983  0.7053 -0.9731
10631TIP3    H253309   4.622   4.216  13.491 -0.8709  1.0276 -0.4605
10632TIP3   OH253310   3.289   0.608  12.422  0.8530  0.2604 -0.1857
10632TIP3    H153311   3.349   0.668  12.378  0.4979  0.6309 -0.1694
10632TIP3    H253312   3.289   0.637  12.514 -0.4252  1.1788 -0.4379
10633TIP3   OH253313   2.699   1.081  13.299  0.4229 -0.5257  0.3570
10633TIP3    H153314   2.770   1.121  13.349 -0.8499 -0.7995  2.5005
10633TIP3    H253315   2.654   1.154  13.257  0.6483 -0.1287  0.7990
10634TIP3   OH253316   0.779   4.263  16.636  0.2855  0.3037  0.0987
10634TIP3    H153317   0.700   4.258  16.583  0.7657 -2.1839 -0.5100
10634TIP3    H253318   0.756   4.322  16.708 -1.1163  1.9702 -1.5859
10635TIP3   OH253319   1.162   3.679  11.882 -0.2424 -0.1196  0.6098
10635TIP3    H153320   1.161   3.771  11.856 -0.2380  0.0739  1.2773
10635TIP3    H253321   1.254   3.655  11.885 -0.2809 -0.5548 -0.9373
10636TIP3   OH253322   0.579   4.608   3.433 -0.4126  0.2934 -0.2993
10636TIP3    H153323   0.519   4.539   3.460 -1.3990  0.4820 -1.8593
10636TIP3    H253324   0.527   4.663   3.374  1.6568 -0.3975 -2.9652
10637TIP3   OH253325   0.851   4.060  10.586  0.9118  0.8577  0.5535
10637TIP3    H153326   0.852   4.135  10.527  0.1809  1.0921  0.8301
10637TIP3    H253327   0.833   3.985  10.529  2.2813  0.7854  0.1823
10638TIP3   OH253328   4.691   4.968   3.368  0.1255 -0.3098 -0.1076
10638TIP3    H153329   4.666   4.875   3.367 -0.6792 -0.1189 -1.6724
10638TIP3    H253330   4.780   4.968   3.331  0.7881 -0.5686  1.3838
10639TIP3   OH253331   4.370   2.826  14.550  0.2007  0.0311  0.2122
10639TIP3    H153332   4.349   2.809  14.458 -1.5277 -0.0873  0.6097
10639TIP3    H253333   4.465   2.813  14.555  0.0529 -2.1111 -1.1043
10640TIP3   OH253334   2.843   6.243   3.528  0.2834  0.0972 -0.4681
10640TIP3    H153335   2.879   6.253   3.440  0.4265 -0.6218 -0.4941
10640TIP3    H253336   2.894   6.305   3.581 -0.2469  1.0016 -1.0082
10641TIP3   OH253337   5.870   1.872   4.480  0.5970 -0.8215 -0.2102
10641TIP3    H153338   5.891   1.906   4.566 -0.4624 -0.6719  0.0028
10641TIP3    H253339   5.921   1.925   4.419 -1.7906  1.9692  0.0231
10642TIP3   OH253340   6.709   2.969   3.230  0.4110 -0.0204  0.6704
10642TIP3    H153341   6.796   2.939   3.203  1.4773  1.4464  2.3367
10642TIP3    H253342   6.700   2.938   3.320 -0.2962  0.8697  0.9119
10643TIP3   OH253343   0.698   0.762  15.464  0.5089 -0.2183 -0.0574
10643TIP3    H153344   0.751   0.774  15.543 -0.5793 -0.0908  0.6934
10643TIP3    H253345   0.693   0.668  15.452  0.4166 -0.2495  0.2194
10644TIP3   OH253346   2.937   5.492   1.028 -0.7143 -0.4764 -0.5713
10644TIP3    H153347   2.902   5.579   1.009 -0.5401 -0.1794  0.4235
10644TIP3    H253348   2.949   5.452   0.942  0.1355  0.8460 -1.0971
10645TIP3   OH253349   4.768   5.509  15.050 -0.9923 -0.4889 -0.0715
10645TIP3    H153350   4.699   5.447  15.073  0.0321 -1.0416  1.7132
10645TIP3    H253351   4.831   5.457  15.000 -1.0122 -0.4404 -0.1467
10646TIP3   OH253352   1.685   3.254  14.054  0.1034  0.1309 -0.6599
10646TIP3    H153353   1.666   3.340  14.018  1.1133  0.0473 -1.4176
10646TIP3    H253354   1.678   3.194  13.980 -1.9762 -0.6824  0.1103
10647TIP3   OH253355   5.743   2.026  10.738  0.4421  0.6955  0.1661
10647TIP3    H153356   5.717   2.056  10.825 -1.0978  0.5401 -0.2214
10647TIP3    H253357   5.666   2.038  10.684  1.4225  0.9427 -1.2413
10648TIP3   OH253358   3.030   5.378  13.734 -0.6868  0.2816  0.7831
10648TIP3    H153359   2.950   5.404  13.687  0.2112  0.0514 -0.9423
10648TIP3    H253360   2.998   5.339  13.815 -2.4533 -1.3121 -0.5798
10649TIP3   OH253361   0.926   4.753  11.856 -0.3935 -0.2601  0.0071
10649TIP3    H153362   0.838   4.723  11.880  0.2981 -0.7555  2.1124
10649TIP3    H253363   0.981   4.676  11.862  0.2812  0.1314 -0.9002
10650TIP3   OH253364   5.214   0.818  13.498 -0.9696 -0.0269 -0.1660
10650TIP3    H153365   5.295   0.803  13.547 -2.0229  0.7397  1.9363
10650TIP3    H253366   5.175   0.731  13.490 -0.4903 -0.2441 -0.1900
10651TIP3   OH253367   5.688   1.085   5.613  0.1537 -0.3406 -0.6378
10651TIP3    H153368   5.669   1.160   5.669 -1.6111 -0.8199 -0.5416
10651TIP3    H253369   5.739   1.122   5.540  0.7105  0.6416  0.2212
10652TIP3   OH253370   0.468   6.261   2.578  0.0918 -0.4461 -0.0264
10652TIP3    H153371   0.550   6.212   2.587  0.8654  0.9831  1.1188
10652TIP3    H253372   0.477   6.308   2.495  0.2406 -0.5959 -0.0967
10653TIP3   OH253373   6.329   1.802  14.896  0.0344  0.1240 -0.4510
10653TIP3    H153374   6.266   1.832  14.962 -0.6268  1.1205 -1.5068
10653TIP3    H253375   6.394   1.873  14.890 -1.3554  1.3267 -2.7195
10654TIP3   OH253376   0.192   4.359  13.041  0.5983  0.1325 -0.3179
10654TIP3    H153377   0.281   4.369  13.007  0.6892  0.1853 -0.0684
10654TIP3    H253378   0.165   4.448  13.065  0.8109  0.0057  0.4259
10655TIP3   OH253379   5.649   4.098   1.392 -0.6723  0.1772  0.5128
10655TIP3    H153380   5.723   4.157   1.377 -2.3745  1.8242 -2.5224
10655TIP3    H253381   5.572   4.155   1.386 -2.2831 -1.7863  1.4643
10656TIP3   OH253382   0.864   1.376  12.748 -0.4201 -0.2234  0.2730
10656TIP3    H153383   0.865   1.319  12.825 -0.7072  0.0042  0.4456
10656TIP3    H253384   0.889   1.462  12.782 -1.1736  0.0186  0.2257
10657TIP3   OH253385   1.715   3.550   4.128  0.1834 -0.1751  0.1436
10657TIP3    H153386   1.730   3.536   4.222 -1.1755 -0.8210  0.2913
10657TIP3    H253387   1.634   3.501   4.109  0.2491  0.2286 -1.2916
10658TIP3   OH253388   4.892   2.643  15.957  0.6715 -0.3442  0.5052
10658TIP3    H153389   4.886   2.583  16.031  3.1101  0.8099  1.7556
10658TIP3    H253390   4.842   2.720  15.984 -0.6676 -0.9242 -0.2160
10659TIP3   OH253391   4.115   0.929   3.446  0.3307  0.2319 -0.2992
10659TIP3    H153392   4.041   0.895   3.394  1.0715  1.1993 -2.0814
10659TIP3    H253393   4.075   0.986   3.510 -0.5376  0.1337 -0.7361
10660TIP3   OH253394   1.930   6.431  14.123 -0.4126  0.0957 -0.4877
10660TIP3    H153395   1.901   6.472  14.204  1.5637  0.3154  0.1753
10660TIP3    H253396   1.888   6.346  14.122  1.6091 -1.0830  2.2296
10661TIP3   OH253397   5.582   3.727  14.118  0.4091  0.0230 -0.1662
10661TIP3    H153398   5.580   3.810  14.071 -0.4807  0.5406  0.7353
10661TIP3    H253399   5.498   3.724  14.164  1.9909  0.5465  3.0154
10662TIP3   OH253400   1.826   2.872  14.586 -0.8039  0.0748  0.9469
10662TIP3    H153401   1.776   2.803  14.542 -0.0039  0.1196 -0.0485
10662TIP3    H253402   1.822   2.947  14.526 -0.0418  0.2678  1.1270
10663TIP3   OH253403   3.613   4.388  15.474 -0.0950 -1.0904  0.2885
10663TIP3    H153404   3.583   4.414  15.387 -1.3498 -1.2762  0.6528
10663TIP3    H253405   3.592   4.295  15.480 -0.5658 -0.9448  1.0125
10664TIP3   OH253406   1.177   0.271  13.361 -0.0768 -0.0763 -0.5015
10664TIP3    H153407   1.223   0.189  13.342 -1.1229 -0.7590 -0.2096
10664TIP3    H253408   1.223   0.307  13.437  1.7676  0.7567 -1.9393
10665TIP3   OH253409   2.753   3.304  11.398  0.2180 -0.4038  0.2804
10665TIP3    H153410   2.711   3.391  11.394 -0.0827 -0.5907 -1.2040
10665TIP3    H253411   2.846   3.322  11.385 -0.0267 -0.4023 -1.9096
10666TIP3   OH253412   6.807   1.745  15.513 -0.0099  0.4428 -0.2724
10666TIP3    H153413   6.822   1.836  15.488 -0.9455  0.4188 -0.9941
10666TIP3    H253414   6.787   1.748  15.607 -1.7004  1.1968 -0.6358
10667TIP3   OH253415   1.716   2.947  17.029 -0.6565 -0.0726 -0.0405
10667TIP3    H153416   1.767   3.026  17.009  0.5570 -0.6510  0.6992
10667TIP3    H253417   1.697   2.909  16.943  1.3521 -0.5801 -0.3123
10668TIP3   OH253418   5.950   5.746   5.567 -0.3354 -0.1143 -0.2283
10668TIP3    H153419   5.889   5.746   5.494 -2.7749 -0.9482  1.6819
10668TIP3    H253420   5.928   5.824   5.618 -0.9731 -1.2482  1.3185
10669TIP3   OH253421   6.270   4.433   3.754 -0.2182  0.3274  0.4934
10669TIP3    H153422   6.304   4.482   3.679  0.7925  0.4670  1.0202
10669TIP3    H253423   6.233   4.500   3.811 -0.5059  0.2781  0.3650
10670TIP3   OH253424   6.198   3.916  16.642 -0.5432 -0.6189  0.3027
10670TIP3    H153425   6.282   3.946  16.677  0.5132 -0.5055 -2.1364
10670TIP3    H253426   6.213   3.824  16.619 -0.5232 -0.1414 -1.7027
10671TIP3   OH253427   4.730   3.622  13.338 -0.5629 -0.2594  0.4501
10671TIP3    H153428   4.670   3.569  13.391 -0.4865 -0.8684 -0.0708
10671TIP3    H253429   4.769   3.683  13.401 -0.1387 -1.2671  1.1888
10672TIP3   OH253430   5.701   0.606  15.094 -0.2263  0.0520  0.2135
10672TIP3    H153431   5.710   0.693  15.055 -0.2381 -0.7226 -1.6224
10672TIP3    H253432   5.790   0.580  15.115 -0.2735  0.7230  1.3629
10673TIP3   OH253433   6.119   2.712   5.940 -0.1894 -0.0717 -0.2929
10673TIP3    H153434   6.103   2.787   5.997 -1.9847  0.2934 -1.2016
10673TIP3    H253435   6.148   2.643   6.000 -2.8981  0.0157  1.2809
10674TIP3   OH253436   2.472   2.018   1.810  0.1322 -0.2821 -0.2688
10674TIP3    H153437   2.565   1.999   1.825  0.5276  0.8363 -1.1691
10674TIP3    H253438   2.451   1.973   1.729 -0.1488 -0.6205 -0.0118
10675TIP3   OH253439   5.935   5.010   0.132  0.5604  0.3769  0.4486
10675TIP3    H153440   5.878   4.948   0.177  0.2729  1.2737  1.3548
10675TIP3    H253441   5.982   5.055   0.202  0.9616  1.0002 -0.2017
10676TIP3   OH253442   4.597   3.855  15.908 -0.2368 -0.2428 -0.2078
10676TIP3    H153443   4.506   3.833  15.889  0.4359 -1.7363 -2.0468
10676TIP3    H253444   4.625   3.791  15.972 -0.3658 -0.0288  0.0638
10677TIP3   OH253445   0.286   3.345  14.252  0.3256  0.1580  0.2758
10677TIP3    H153446   0.257   3.412  14.314 -0.8371  0.3308 -0.4232
10677TIP3    H253447   0.356   3.387  14.203 -0.8837  1.1851 -0.6659
10678TIP3   OH253448   4.936   5.910   5.715 -1.1607  0.3412 -0.0669
10678TIP3    H153449   4.989   5.860   5.652 -0.3120  1.2550 -0.1070
10678TIP3    H253450   4.979   5.894   5.799  0.5964  2.8222 -0.3891
10679TIP3   OH253451   2.386   0.621  15.382 -0.4391 -0.5910 -0.5129
10679TIP3    H153452   2.294   0.634  15.405 -0.2502 -1.2047  0.7140
10679TIP3    H253453   2.384   0.578  15.297 -1.3009 -0.9282 -0.3321
10680TIP3   OH253454   2.212   2.629  11.861 -0.2761  0.1509  0.0811
10680TIP3    H153455   2.269   2.704  11.842 -0.7354 -0.3106 -4.1320
10680TIP3    H253456   2.272   2.561  11.893  0.4984  1.5439  1.7180
10681TIP3   OH253457   2.556   0.893   5.295  0.0465 -0.2163  0.4009
10681TIP3    H153458   2.617   0.930   5.232 -0.8377  0.5972  0.0032
10681TIP3    H253459   2.556   0.799   5.277 -0.8838  0.1019 -1.4517
10682TIP3   OH253460   0.137   3.664  12.311 -0.3640  1.4126 -0.5493
10682TIP3    H153461   0.151   3.571  12.294  1.1332  1.8889 -2.2322
10682TIP3    H253462   0.044   3.678  12.290 -1.1595 -0.0359  1.6891
10683TIP3   OH253463   6.413   1.095  15.535 -0.0086 -0.4584  0.0018
10683TIP3    H153464   6.451   1.021  15.488 -1.3271 -0.2922 -1.4023
10683TIP3    H253465   6.322   1.070  15.549  0.0922 -0.0274  1.5407
10684TIP3   OH253466   0.340   3.218   2.162 -0.8424  0.3328  0.4024
10684TIP3    H153467   0.310   3.264   2.084  1.5304  0.0351 -0.7734
10684TIP3    H253468   0.269   3.228   2.225 -1.8519  2.5695 -0.9925
10685TIP3   OH253469   6.579   5.197  10.639  0.2204 -0.5692  0.2390
10685TIP3    H153470   6.609   5.185  10.549  0.2400  2.9671 -0.3632
10685TIP3    H253471   6.646   5.251  10.681 -1.8188  1.6663  0.9191
10686TIP3   OH253472   5.521   6.728  12.542  0.1401 -0.3343 -0.6819
10686TIP3    H153473   5.535   6.664  12.612  0.0632  0.2076 -0.1598
10686TIP3    H253474   5.469   6.797  12.583  0.1337  0.0095 -1.2642
10687TIP3   OH253475   3.536   3.393  14.780 -0.4342  0.0551 -0.3819
10687TIP3    H153476   3.497   3.468  14.826  0.0974  0.7207 -0.9855
10687TIP3    H253477   3.590   3.350  14.845  1.7846  2.0462 -0.7691
10688TIP3   OH253478   6.590   2.225   3.398 -0.1062  0.2413  0.6210
10688TIP3    H153479   6.589   2.142   3.351 -1.1812  0.3158  0.4986
10688TIP3    H253480   6.663   2.273   3.358 -0.7481  0.1518 -0.7348
10689TIP3   OH253481   4.825   2.827   2.631  0.0334  0.0737 -0.0289
10689TIP3    H153482   4.891   2.799   2.568 -1.0099 -1.4173 -0.5281
10689TIP3    H253483   4.826   2.760   2.699 -3.2607 -2.0795 -1.7823
10690TIP3   OH253484   1.729   1.437  13.735  0.2306  0.2602  0.1972
10690TIP3    H153485   1.714   1.393  13.652  1.4663  0.8862 -0.3776
10690TIP3    H253486   1.749   1.366  13.796 -1.5745 -0.2851  0.2153
10691TIP3   OH253487   1.128   3.087   4.691 -0.2172  0.2221  0.2433
10691TIP3    H153488   1.155   3.168   4.735 -1.3367  0.8032 -0.0932
10691TIP3    H253489   1.050   3.059   4.738 -1.3032  0.7317 -1.1659
10692TIP3   OH253490   3.451   3.925   0.610 -0.1366 -0.1151  0.4005
10692TIP3    H153491   3.502   3.849   0.581  0.7006  0.9552 -1.1006
10692TIP3    H253492   3.393   3.891   0.678 -1.2635 -2.5492 -1.6359
10693TIP3   OH253493   3.619   3.804   3.536 -0.4047 -0.2718 -0.3764
10693TIP3    H153494   3.611   3.718   3.578 -0.3365 -0.8072 -1.4301
10693TIP3    H253495   3.714   3.814   3.522  0.0712  1.6530  3.0831
10694TIP3   OH253496   1.409   1.551   2.708 -0.4857  0.2447 -0.1971
10694TIP3    H153497   1.468   1.477   2.719 -1.6772 -0.4330  2.6792
10694TIP3    H253498   1.325   1.512   2.683 -1.1834  0.5254  1.5668
10695TIP3   OH253499   1.708   4.485   1.937 -0.4266  0.2566  0.2774
10695TIP3    H153500   1.668   4.565   1.972  0.8951  1.0364  0.0445
10695TIP3    H253501   1.680   4.483   1.845  2.1566  2.2679 -0.6595
10696TIP3   OH253502   1.055   3.297   2.724 -0.1002 -0.1828  0.6848
10696TIP3    H153503   1.089   3.290   2.635 -2.6079 -0.8057 -0.3099
10696TIP3    H253504   1.129   3.271   2.780  1.3400 -0.3991 -1.2270
10697TIP3   OH253505   3.874   0.092  17.070  0.4748  0.0379 -0.0963
10697TIP3    H153506   3.800   0.030  17.074  1.6716 -1.3900  1.4495
10697TIP3    H253507   3.950   0.037  17.054  1.2601  1.4959 -1.6665
10698TIP3   OH253508   2.600   0.167  15.847 -0.5665 -0.0389 -0.2579
10698TIP3    H153509   2.641   0.194  15.929 -3.1417  0.0777  1.0672
10698TIP3    H253510   2.586   0.072  15.857 -3.0303  0.3322  0.5529
10699TIP3   OH253511   3.284   3.267   0.726 -0.6992  0.1858  0.3974
10699TIP3    H153512   3.216   3.254   0.792 -1.3808 -0.1718 -0.3644
10699TIP3    H253513   3.288   3.362   0.715 -0.5371  0.2537  0.9853
10700TIP3   OH253514   5.943   6.522  11.196 -0.0477 -0.0822  0.2225
10700TIP3    H153515   6.004   6.505  11.268  0.7042  0.1648 -0.3435
10700TIP3    H253516   5.951   6.616  11.180 -0.2898 -0.1190 -0.1085
10701TIP3   OH253517   4.244   3.527   2.870  0.5790  0.5369 -0.3096
10701TIP3    H153518   4.333   3.561   2.883  0.5341  0.2942  0.8191
10701TIP3    H253519   4.194   3.564   2.943  0.3454 -1.2800  0.5200
10702TIP3   OH253520   3.870   3.105  17.095 -0.2396 -0.2255 -0.2903
10702TIP3    H153521   3.939   3.094  17.160 -1.2676 -1.1986  0.6702
10702TIP3    H253522   3.859   3.200  17.087 -0.3737 -0.0962  1.2513
10703TIP3   OH253523   5.897   0.607   3.255  0.5858 -0.3793 -0.5237
10703TIP3    H153524   5.955   0.683   3.249 -0.0004  0.0897 -0.3131
10703TIP3    H253525   5.845   0.609   3.175  1.8623 -1.6539 -1.4417
10704TIP3   OH253526   0.406   5.817   1.639 -0.3482  0.0545 -0.0477
10704TIP3    H153527   0.404   5.898   1.690 -0.8681 -1.3663  2.3468
10704TIP3    H253528   0.331   5.766   1.672  0.3035 -1.6514 -1.0576
10705TIP3   OH253529   3.297   4.769   3.339 -0.1270 -0.0362 -0.7761
10705TIP3    H153530   3.262   4.778   3.250  0.3300  1.3035 -0.8439
10705TIP3    H253531   3.308   4.674   3.351 -0.6983 -0.2689 -1.9409
10706TIP3   OH253532   4.071   2.824   1.709  0.3683 -0.5291  0.3335
10706TIP3    H153533   4.157   2.825   1.752  1.6870  2.2629 -2.0788
10706TIP3    H253534   4.088   2.788   1.622 -0.7027  0.7672 -0.4503
10707TIP3   OH253535   6.051   5.901  16.709 -0.3039 -0.5136  0.0470
10707TIP3    H153536   6.122   5.965  16.708 -0.8812  0.1300  0.0894
10707TIP3    H253537   5.984   5.939  16.765 -0.7153 -1.0869 -0.0472
10708TIP3   OH253538   4.986   4.391  14.996 -0.2885  0.9382 -0.2035
10708TIP3    H153539   5.025   4.305  15.008 -1.5117  0.3685 -0.1509
10708TIP3    H253540   4.986   4.404  14.901  0.3023  1.0858 -0.1886
10709TIP3   OH253541   0.179   2.465  16.458 -0.1666  0.0650  0.1392
10709TIP3    H153542   0.207   2.552  16.429  1.0725 -0.4529 -0.3031
10709TIP3    H253543   0.171   2.415  16.377 -1.9304  0.0398  0.3055
10710TIP3   OH253544   0.698   3.676   0.475 -0.1901 -0.3547  0.2924
10710TIP3    H153545   0.737   3.764   0.482 -2.2571  0.5777  0.7755
10710TIP3    H253546   0.725   3.631   0.555 -0.0884  0.2445  0.5998
10711TIP3   OH253547   5.854   2.713   1.660  0.2129  0.2526 -0.4314
10711TIP3    H153548   5.913   2.757   1.722  1.2558 -3.7575  1.7180
10711TIP3    H253549   5.898   2.724   1.575  1.4970  1.5102  0.3405
10712TIP3   OH253550   4.202   0.234  13.364 -0.0319  0.1217 -0.3349
10712TIP3    H153551   4.286   0.222  13.408 -0.8211  0.7025  1.4243
10712TIP3    H253552   4.137   0.224  13.434 -1.2539  3.7556 -0.7653
10713TIP3   OH253553   5.886   3.270  16.935  0.2210  0.4117 -0.1433
10713TIP3    H153554   5.945   3.200  16.905  0.1749  0.6395 -0.7786
10713TIP3    H253555   5.802   3.251  16.893 -0.1198  0.1923  0.6121
10714TIP3   OH253556   1.565   6.109  16.792  0.5085  0.4093 -0.1174
10714TIP3    H153557   1.525   6.105  16.705 -2.1428 -1.0821  1.0397
10714TIP3    H253558   1.509   6.169  16.841  0.2725 -0.8822  1.2867
10715TIP3   OH253559   3.346   1.931   5.073 -0.6272  0.3304 -0.0484
10715TIP3    H153560   3.397   1.850   5.067 -0.9461  0.0391  0.9377
10715TIP3    H253561   3.299   1.923   5.156 -1.8059  0.8712 -0.6462
10716TIP3   OH253562   4.273   0.705  10.955  0.1559  0.4931  0.4555
10716TIP3    H153563   4.236   0.676  10.872  1.2821  2.9992 -1.0505
10716TIP3    H253564   4.199   0.706  11.015 -1.0077  0.0050 -0.9043
10717TIP3   OH253565   2.815   0.552  13.254  0.0404  0.2328 -0.2899
10717TIP3    H153566   2.782   0.641  13.267  0.8867  0.5079  0.0486
10717TIP3    H253567   2.797   0.533  13.162 -1.5422  0.1615  0.0156
10718TIP3   OH253568   6.327   6.600  14.652  0.5048  0.0488 -0.1204
10718TIP3    H153569   6.296   6.599  14.562  0.2753  2.6883 -0.1339
10718TIP3    H253570   6.257   6.558  14.702  0.5740 -1.3226 -1.0951
10719TIP3   OH253571   4.123   1.435  11.762  0.5242  0.3990 -1.0008
10719TIP3    H153572   4.155   1.346  11.778  1.0982  0.7255 -0.2336
10719TIP3    H253573   4.107   1.439  11.668 -1.1503 -1.0395 -0.8161
10720TIP3   OH253574   6.235   4.304   2.406  0.2012  0.6185 -0.2435
10720TIP3    H153575   6.328   4.289   2.422 -0.1000 -0.6275  0.5110
10720TIP3    H253576   6.225   4.399   2.401  1.3819  0.7906  0.4620
10721TIP3   OH253577   1.661   1.886  12.087  0.1479 -0.3583 -0.0360
10721TIP3    H153578   1.654   1.862  11.995 -2.1195  0.2587 -0.0782
10721TIP3    H253579   1.737   1.944  12.090  0.5683 -0.7908 -1.4105
10722TIP3   OH253580   1.105   3.810   5.322 -0.7351  0.3869 -0.2505
10722TIP3    H153581   1.010   3.816   5.326 -0.7783  0.3028 -0.9912
10722TIP3    H253582   1.122   3.738   5.262 -0.2001 -0.4179  0.8374
10723TIP3   OH253583   1.537   5.878   1.677 -0.0446 -0.3874  0.3698
10723TIP3    H153584   1.470   5.839   1.621 -0.5918 -1.2081  1.5719
10723TIP3    H253585   1.509   5.969   1.688 -0.2660 -0.3859 -0.1657
10724TIP3   OH253586   1.798   5.402  14.276  0.1144 -0.3122  0.0015
10724TIP3    H153587   1.862   5.331  14.274 -1.9146 -2.2644 -0.6309
10724TIP3    H253588   1.778   5.414  14.369  1.2199  0.1651  0.1824
10725TIP3   OH253589   6.706   1.404   5.207 -0.0462 -0.2285  0.1486
10725TIP3    H153590   6.698   1.482   5.262  0.8219 -0.2100  0.2550
10725TIP3    H253591   6.674   1.432   5.121  0.0110  0.1667  0.2537
10726TIP3   OH253592   6.687   5.530  16.302  0.3583  0.0438 -0.0927
10726TIP3    H153593   6.617   5.595  16.294 -2.9311 -2.9553  1.4931
10726TIP3    H253594   6.661   5.459  16.243  1.3714 -1.6464  1.3877
10727TIP3   OH253595   0.160   4.568   5.176  0.5764  0.2308 -0.1507
10727TIP3    H153596   0.244   4.607   5.200  1.1920  0.0276 -1.7953
10727TIP3    H253597   0.163   4.480   5.213  1.4660 -0.0645 -0.8673
10728TIP3   OH253598   4.877   4.571   0.531  0.3315  0.4915  0.4175
10728TIP3    H153599   4.960   4.542   0.493  0.7539 -0.0566  1.6948
10728TIP3    H253600   4.889   4.664   0.546  0.5513  0.5039  0.1788
10729TIP3   OH253601   2.014   3.698  11.415  0.6988 -0.1823 -0.1163
10729TIP3    H153602   2.006   3.756  11.340  0.5852 -0.7117 -0.5198
10729TIP3    H253603   1.982   3.613  11.384  1.0211 -0.5080  0.4116
10730TIP3   OH253604   6.580   0.911  12.157  0.2372 -0.5732 -0.1969
10730TIP3    H153605   6.531   0.974  12.209 -0.6888 -1.4394  0.0187
10730TIP3    H253606   6.569   0.940  12.066  0.7573  0.1979 -0.0169
10731TIP3   OH253607   3.483   6.717  14.288  0.4888 -0.2547 -0.3128
10731TIP3    H153608   3.523   6.643  14.333  1.9497  0.7735  0.1770
10731TIP3    H253609   3.425   6.756  14.353  0.7042 -0.2206 -0.1390
10732TIP3   OH253610   6.366   0.603  13.119 -0.2743 -0.3738  0.8248
10732TIP3    H153611   6.423   0.530  13.146 -0.3928 -0.6810  0.2484
10732TIP3    H253612   6.316   0.569  13.046  0.6232  0.7037 -0.3368
10733TIP3   OH253613   2.629   4.410   3.665 -0.2612  0.6835  0.9693
10733TIP3    H153614   2.702   4.463   3.632  0.2738  0.3366  1.5692
10733TIP3    H253615   2.570   4.402   3.591  1.3155 -0.7990 -0.1914
10734TIP3   OH253616   1.598   3.804  13.692 -0.3513  0.6011  0.5577
10734TIP3    H153617   1.551   3.806  13.776  2.7059 -2.1128  2.5628
10734TIP3    H253618   1.645   3.887  13.690 -3.7694  2.7150 -0.8064
10735TIP3   OH253619   2.228   6.631  16.851  0.1912  0.1657  0.4005
10735TIP3    H153620   2.229   6.723  16.878  0.2584 -0.0664  1.1946
10735TIP3    H253621   2.256   6.583  16.928  0.0534 -0.5391  0.0178
10736TIP3   OH253622   2.430   0.074   3.335  0.1952  0.1412 -0.2148
10736TIP3    H153623   2.367   0.130   3.288 -0.4911 -0.5256 -0.1118
10736TIP3    H253624   2.515   0.096   3.296 -0.3234 -0.2314 -1.6558
10737TIP3   OH253625   6.781   2.048   2.897 -0.1536  0.3720  0.6004
10737TIP3    H153626   6.794   2.011   2.810  0.4310  1.0357  0.3978
10737TIP3    H253627   6.715   1.991   2.938  0.6765 -0.8559  0.2879
10738TIP3   OH253628   5.847   4.036   2.391 -0.0587  0.3541  0.1849
10738TIP3    H153629   5.813   4.090   2.319  0.6486 -0.4125 -0.7451
10738TIP3    H253630   5.859   3.949   2.352 -1.7438 -0.6803  1.8007
10739TIP3   OH253631   4.091   5.175  16.505  0.7940 -0.0581 -0.4002
10739TIP3    H153632   4.114   5.097  16.454  1.3302  0.0163 -0.2780
10739TIP3    H253633   4.056   5.237  16.441 -0.4890 -0.7226 -0.3672
10740TIP3   OH253634   1.301   2.117   4.994 -0.2904 -0.4231 -0.3699
10740TIP3    H153635   1.282   2.081   5.081 -1.0575 -0.5406 -0.5795
10740TIP3    H253636   1.311   2.211   5.009  0.3435 -0.5386 -0.0374
10741TIP3   OH253637   1.815   2.183  15.913  0.0881 -0.5419 -0.0747
10741TIP3    H153638   1.756   2.108  15.910 -0.9869  0.2382  0.8249
10741TIP3    H253639   1.819   2.214  15.823 -2.4645  0.5607  0.1248
10742TIP3   OH253640   0.989   6.262  13.560  0.2454 -0.1096  0.2939
10742TIP3    H153641   0.937   6.337  13.589  1.0477  1.2332 -1.4932
10742TIP3    H253642   0.942   6.228  13.484  1.2120  0.2798 -0.5128
10743TIP3   OH253643   3.669   1.572  13.311  0.0797 -0.2374 -0.4568
10743TIP3    H153644   3.583   1.557  13.271  0.3190  0.2609 -1.1792
10743TIP3    H253645   3.685   1.665  13.299  0.6642 -0.2989 -0.1884
10744TIP3   OH253646   1.848   3.564  13.350 -0.2767 -0.3317 -0.4804
10744TIP3    H153647   1.761   3.592  13.324 -0.6933 -0.0146  1.1255
10744TIP3    H253648   1.884   3.638  13.398  0.3212 -0.9549  0.0716
10745TIP3   OH253649   3.390   4.757  14.017  0.3410 -0.0692  0.0313
10745TIP3    H153650   3.390   4.774  13.923 -0.1280  1.5004  0.2866
10745TIP3    H253651   3.457   4.690  14.030  0.8595  0.1656 -1.3346
10746TIP3   OH253652   3.249   3.424   5.491 -0.5925 -0.2258  0.0000
10746TIP3    H153653   3.300   3.347   5.513 -0.4642  0.1388  1.0504
10746TIP3    H253654   3.246   3.475   5.572  0.1009  1.3146 -0.8988
10747TIP3   OH253655   3.551   0.903   2.793  0.0942  0.1902  0.3773
10747TIP3    H153656   3.484   0.878   2.729  0.2158 -0.6411  0.5603
10747TIP3    H253657   3.527   0.855   2.872  1.1920 -0.5387  0.2935
10748TIP3   OH253658   2.922   2.336  13.848  0.6774 -0.3124 -0.1661
10748TIP3    H153659   2.951   2.427  13.860 -3.5696  1.2158  0.2527
10748TIP3    H253660   2.938   2.318  13.756  3.6693 -0.1230  0.1950
10749TIP3   OH253661   5.446   3.201  15.448 -0.0708  0.4071 -0.5626
10749TIP3    H153662   5.470   3.179  15.538 -1.8016 -0.1675 -0.1969
10749TIP3    H253663   5.486   3.132  15.395  0.5588  0.4774 -0.1850
10750TIP3   OH253664   2.521   4.796  16.266  0.0230 -0.6930 -0.5173
10750TIP3    H153665   2.585   4.738  16.307 -0.5455 -0.6295  0.4912
10750TIP3    H253666   2.471   4.833  16.339 -0.7145 -0.2170 -1.2393
10751TIP3   OH253667   0.319   4.863   3.406  0.6766 -0.8611 -0.4528
10751TIP3    H153668   0.281   4.813   3.478 -0.4540 -0.3478 -0.6733
10751TIP3    H253669   0.337   4.798   3.338  0.0202 -1.1009 -0.4068
10752TIP3   OH253670   0.859   5.500   2.795 -0.5805 -0.2265  0.1263
10752TIP3    H153671   0.791   5.560   2.762 -0.2030 -0.8048 -1.8130
10752TIP3    H253672   0.862   5.429   2.730  0.6979 -1.0871  1.0819
10753TIP3   OH253673   0.807   1.062   2.432 -0.1061  0.2739 -0.0505
10753TIP3    H153674   0.872   1.086   2.366  0.8169 -0.0812  0.7067
10753TIP3    H253675   0.737   1.126   2.421  0.4537  0.7844 -0.7557
10754TIP3   OH253676   0.907   0.193   4.106  0.2731 -0.4723 -0.2384
10754TIP3    H153677   0.941   0.177   4.018  0.0168  1.7735 -0.8187
10754TIP3    H253678   0.839   0.260   4.093  0.3713  0.0575  1.6793
10755TIP3   OH253679   4.163   3.722   4.181  0.1119  0.1150  0.4251
10755TIP3    H153680   4.161   3.632   4.148 -0.6075  0.5551 -0.8060
10755TIP3    H253681   4.085   3.730   4.236  0.5190 -0.1849  1.0609
10756TIP3   OH253682   3.157   6.226  13.714 -0.5968  0.7513  0.1588
10756TIP3    H153683   3.199   6.141  13.714 -0.4377  0.7150 -2.8394
10756TIP3    H253684   3.228   6.289  13.703 -0.9223  1.0561 -0.2636
10757TIP3   OH253685   1.746   2.163   6.732 -0.0366  0.3051 -0.2007
10757TIP3    H153686   1.675   2.218   6.699  0.8246  0.3725 -2.1213
10757TIP3    H253687   1.703   2.082   6.759 -0.9914  0.8417 -0.0767
10758TIP3   OH253688   5.443   0.771   3.364 -0.1864 -0.0403 -0.1688
10758TIP3    H153689   5.416   0.679   3.357  1.0031 -0.3665 -0.8364
10758TIP3    H253690   5.388   0.817   3.300 -0.0182 -0.4773 -0.6302
10759TIP3   OH253691   5.873   0.552  12.245  0.4489 -0.0926 -0.0488
10759TIP3    H153692   5.919   0.635  12.243  1.2895 -0.5312  0.4033
10759TIP3    H253693   5.802   0.565  12.308  0.0518  0.5338 -0.6160
10760TIP3   OH253694   1.829   3.764   5.488 -0.1567  0.0219  0.4543
10760TIP3    H153695   1.884   3.687   5.476 -1.1629 -0.8543  1.2178
10760TIP3    H253696   1.787   3.751   5.573 -0.4545  1.3568  0.5426
10761TIP3   OH253697   0.665   1.092  16.025 -0.2804  0.1153 -0.6091
10761TIP3    H153698   0.675   1.013  16.079  3.3038 -0.0867 -1.3306
10761TIP3    H253699   0.573   1.089  15.997 -0.8708 -2.6011  1.1409
10762TIP3   OH253700   3.456   4.813   0.824  0.0027 -0.1115 -0.4261
10762TIP3    H153701   3.383   4.758   0.795  0.8216  0.0889 -3.1694
10762TIP3    H253702   3.518   4.810   0.751  1.0417  2.7571  0.2279
10763TIP3   OH253703   0.690   6.048  13.645 -0.2755 -0.0131 -0.4922
10763TIP3    H153704   0.642   6.057  13.563 -0.6148  1.0121 -0.1994
10763TIP3    H253705   0.722   5.957  13.645 -1.2851 -0.3788 -1.1931
10764TIP3   OH253706   3.858   3.819  12.884  0.2951  0.2293  0.3232
10764TIP3    H153707   3.848   3.908  12.918 -1.3787 -0.2029  1.0519
10764TIP3    H253708   3.950   3.798  12.899  1.5493  2.8493 -2.4623
10765TIP3   OH253709   0.296   1.728   3.816 -0.1445 -0.5360 -0.2397
10765TIP3    H153710   0.323   1.766   3.900 -1.0104  0.1990 -0.2851
10765TIP3    H253711   0.331   1.639   3.819  1.0160 -0.0895  0.3141
10766TIP3   OH253712   1.563   2.629  16.267  0.1716  0.0384 -0.3077
10766TIP3    H153713   1.592   2.629  16.176 -2.4098 -1.3427 -1.2445
10766TIP3    H253714   1.482   2.681  16.267 -1.3620 -2.1629  0.5487
10767TIP3   OH253715   5.348   3.280   3.217 -0.4910 -0.4754  0.2058
10767TIP3    H153716   5.270   3.288   3.161 -1.4563 -1.1161  1.4113
10767TIP3    H253717   5.340   3.193   3.256  0.4984 -0.2901  0.8588
10768TIP3   OH253718   3.445   2.596   5.179 -0.0281  0.8702 -0.2581
10768TIP3    H153719   3.423   2.685   5.152  1.7270  1.5636  0.4803
10768TIP3    H253720   3.415   2.590   5.269  0.3609  0.9043 -0.1260
10769TIP3   OH253721   2.796   1.688   3.377  0.3527 -0.0989 -0.3760
10769TIP3    H153722   2.862   1.732   3.430  0.2886  0.6230 -0.8756
10769TIP3    H253723   2.815   1.595   3.386  1.2639  0.0902 -0.2902
10770TIP3   OH253724   4.139   0.381   5.389 -0.4937 -0.0381  0.3857
10770TIP3    H153725   4.145   0.290   5.359  1.4287  0.3608 -0.6163
10770TIP3    H253726   4.094   0.427   5.318 -0.5655 -0.0184  0.4438
10771TIP3   OH253727   0.683   2.749  10.720 -0.1691  0.8169 -0.0982
10771TIP3    H153728   0.632   2.813  10.768 -1.6770  0.3610 -1.0297
10771TIP3    H253729   0.721   2.798  10.647 -0.5747  0.8480 -0.2917
10772TIP3   OH253730   5.561   5.671  11.953 -0.2189  0.3525 -0.6702
10772TIP3    H153731   5.575   5.606  11.884 -1.7479  0.2914 -0.9659
10772TIP3    H253732   5.604   5.750  11.922  2.2445 -0.6260 -0.0235
10773TIP3   OH253733   0.312   1.727  11.746 -0.2771 -0.4085 -0.0590
10773TIP3    H153734   0.269   1.789  11.805  0.6184 -0.8660  1.1199
10773TIP3    H253735   0.391   1.773  11.717 -0.2048 -0.5535 -0.0937
10774TIP3   OH253736   3.747   1.019   2.615  0.2661  0.0462 -0.3302
10774TIP3    H153737   3.703   0.968   2.684  0.0965 -0.0407 -0.5006
10774TIP3    H253738   3.779   1.097   2.659  1.1334 -0.5250  0.0841
10775TIP3   OH253739   5.659   6.365   0.332  0.2021 -0.6123  0.3306
10775TIP3    H153740   5.662   6.288   0.389  1.1610 -0.6165  0.2861
10775TIP3    H253741   5.748   6.401   0.335  0.2488 -0.5744 -1.1111
10776TIP3   OH253742   2.059   2.736   4.230  0.6677 -0.2745 -0.1746
10776TIP3    H153743   2.116   2.697   4.296  0.7595 -1.7530 -1.0602
10776TIP3    H253744   2.068   2.678   4.154  0.8606  1.5816 -1.6280
10777TIP3   OH253745   4.339   4.670   3.117 -0.7207  0.3704 -0.1793
10777TIP3    H153746   4.251   4.633   3.110 -0.7206  0.0151  1.2758
10777TIP3    H253747   4.387   4.607   3.171  0.2193  0.9141 -0.3647
10778TIP3   OH253748   2.844   6.144   2.924 -0.0905 -0.6072  0.0409
10778TIP3    H153749   2.842   6.064   2.976 -1.7300  0.9427  2.5761
10778TIP3    H253750   2.766   6.193   2.950  0.6525  1.6966 -1.6477
10779TIP3   OH253751   0.709   6.297  12.249  0.2051 -0.8891  0.5021
10779TIP3    H153752   0.637   6.343  12.207  1.3789 -0.2046 -0.8696
10779TIP3    H253753   0.780   6.300  12.185  1.3005 -1.9620  1.6028
10780TIP3   OH253754   2.831   4.588   3.611 -0.2209  0.0440  0.4431
10780TIP3    H153755   2.926   4.596   3.602 -0.0422 -1.0144  1.3104
10780TIP3    H253756   2.814   4.607   3.703 -0.8315 -0.0104  0.3404
10781TIP3   OH253757   0.157   5.071   3.270 -0.0694  0.2733 -0.5397
10781TIP3    H153758   0.182   5.160   3.294 -3.5498  1.0249  0.9434
10781TIP3    H253759   0.220   5.015   3.315 -0.3633  1.9555  2.1460
10782TIP3   OH253760   6.214   6.183  11.781 -0.3890 -0.2169 -0.3249
10782TIP3    H153761   6.238   6.273  11.758 -0.8378 -0.4933 -1.9845
10782TIP3    H253762   6.119   6.186  11.795 -0.3564 -0.3760 -0.0495
10783TIP3   OH253763   0.875   0.235  16.565 -0.1324 -0.1919  0.5637
10783TIP3    H153764   0.909   0.321  16.590  1.4184 -0.7194  0.4157
10783TIP3    H253765   0.887   0.181  16.644  0.2645 -0.6310  0.2094
10784TIP3   OH253766   2.031   6.184  12.652  0.8680 -0.0650  0.1464
10784TIP3    H153767   1.974   6.108  12.658  2.4332 -1.1557  2.3935
10784TIP3    H253768   1.991   6.250  12.710  0.4366  0.2349 -0.4729
10785TIP3   OH253769   3.119   3.884  13.559 -0.5093 -0.9004  0.0303
10785TIP3    H153770   3.139   3.802  13.606 -0.1377 -0.3750  0.8025
10785TIP3    H253771   3.098   3.947  13.628  0.6867  0.0680 -0.4559
10786TIP3   OH253772   4.287   4.711  15.739 -0.2273  0.3349  0.0943
10786TIP3    H153773   4.272   4.803  15.714  1.7190  0.4118 -1.0568
10786TIP3    H253774   4.338   4.717  15.820  0.8940  0.3418 -0.5876
10787TIP3   OH253775   0.879   4.911   1.883  0.0395 -0.7137 -0.5832
10787TIP3    H153776   0.877   4.966   1.961 -0.5116  1.0634 -1.7742
10787TIP3    H253777   0.788   4.892   1.863  0.0734 -0.0741 -1.4627
10788TIP3   OH253778   1.074   1.254  10.272  0.2086 -0.0696 -0.4653
10788TIP3    H153779   1.020   1.285  10.344 -0.7875  1.9707 -1.9802
10788TIP3    H253780   1.098   1.164  10.296 -1.5987 -0.0906  1.5192
10789TIP3   OH253781   1.311   0.384  11.166 -0.7823 -0.6093  0.2773
10789TIP3    H153782   1.322   0.398  11.072  0.0912 -1.0381  0.3011
10789TIP3    H253783   1.274   0.296  11.174 -1.9814 -0.1112  0.2955
10790TIP3   OH253784   6.583   6.224   3.892 -0.2170 -0.0088 -0.0474
10790TIP3    H153785   6.519   6.224   3.964  0.5388  1.4345  0.6658
10790TIP3    H253786   6.555   6.295   3.835  1.2993  1.3869  0.8444
10791TIP3   OH253787   1.936   2.516   3.844  0.3772 -0.5841 -0.0254
10791TIP3    H153788   1.931   2.452   3.915 -1.1322 -0.5109 -0.0401
10791TIP3    H253789   1.850   2.557   3.843  0.5116 -0.2955 -1.6392
10792TIP3   OH253790   4.104   5.439  16.590  0.0982  0.7063  0.1044
10792TIP3    H153791   4.098   5.344  16.595  1.5180  0.5770 -0.2052
10792TIP3    H253792   4.145   5.456  16.505  0.6223  1.5586  0.5171
10793TIP3   OH253793   4.243   2.470  15.304  0.1202 -0.1978 -0.1558
10793TIP3    H153794   4.210   2.381  15.297 -2.5438  0.7839 -4.2200
10793TIP3    H253795   4.335   2.464  15.280  0.5727 -1.9989  1.7692
10794TIP3   OH253796   2.301   2.921  11.674 -0.9534 -0.5498 -0.0512
10794TIP3    H153797   2.342   3.000  11.638  0.7033 -1.5063 -0.4057
10794TIP3    H253798   2.272   2.947  11.761 -2.0172  0.8979 -0.7917
10795TIP3   OH253799   4.614   1.908  16.797  0.2432 -0.0549 -0.3709
10795TIP3    H153800   4.622   1.936  16.888 -0.3486 -0.1130 -0.2961
10795TIP3    H253801   4.650   1.819  16.796 -0.9101 -0.5446  0.0723
10796TIP3   OH253802   5.491   0.271  15.443  0.0212 -0.0686 -0.0037
10796TIP3    H153803   5.578   0.285  15.406  0.0262  0.2487  0.1231
10796TIP3    H253804   5.508   0.245  15.534  0.0143 -0.9982 -0.2639
10797TIP3   OH253805   6.801   6.518   4.376 -0.4848 -0.1394  0.4358
10797TIP3    H153806   6.786   6.425   4.388  0.6122 -0.3765  0.0588
10797TIP3    H253807   6.784   6.557   4.462  2.6894 -1.1795  1.6474
10798TIP3   OH253808   2.146   1.106   4.124  0.1270 -0.2256  0.7128
10798TIP3    H153809   2.102   1.127   4.042  0.1882 -0.6470  0.5745
10798TIP3    H253810   2.236   1.136   4.112  0.2585 -0.7156  0.4506
10799TIP3   OH253811   3.944   1.509  13.968 -0.2512  0.2602  0.3066
10799TIP3    H153812   3.944   1.512  14.064  0.2507 -1.2997  0.3863
10799TIP3    H253813   3.851   1.504  13.945 -0.4069  1.2763  0.6694
10800TIP3   OH253814   0.629   5.488  11.618 -0.0842 -0.2727  0.0847
10800TIP3    H153815   0.539   5.460  11.633  0.3661 -1.8092  0.1359
10800TIP3    H253816   0.675   5.408  11.592  1.3800  0.3694  0.5789
10801TIP3   OH253817   6.427   5.387   4.496 -0.0553 -0.1170 -0.3950
10801TIP3    H153818   6.393   5.395   4.407  0.3426  0.2633 -0.5144
10801TIP3    H253819   6.408   5.297   4.521 -0.0264 -0.2727 -0.9210
10802TIP3   OH253820   4.341   4.450   2.605 -0.0681  0.0550 -0.1548
10802TIP3    H153821   4.302   4.477   2.688  1.2086  2.2144 -0.1747
10802TIP3    H253822   4.384   4.529   2.571 -0.1471 -0.8725 -2.6620
10803TIP3   OH253823   6.479   3.342  10.369 -0.0465  0.6135 -0.5394
10803TIP3    H153824   6.440   3.426  10.345  0.7805  1.5983  1.3213
10803TIP3    H253825   6.407   3.292  10.406 -0.5488  0.4621 -1.6718
10804TIP3   OH253826   4.997   5.764   2.686 -0.1460  0.5543 -0.3651
10804TIP3    H153827   4.922   5.706   2.693  0.6750 -0.8075 -2.0592
10804TIP3    H253828   4.964   5.841   2.638 -0.3157 -0.4378 -1.9220
10805TIP3   OH253829   5.352   4.460   2.136 -0.1793  0.5183  0.1920
10805TIP3    H153830   5.353   4.555   2.125  1.3404  0.4010 -1.0236
10805TIP3    H253831   5.274   4.431   2.088 -1.1155  1.1993  1.2713
10806TIP3   OH253832   5.912   0.499   0.190 -0.1864  0.3629 -0.0461
10806TIP3    H153833   5.869   0.585   0.180  1.7686  1.5024  0.7618
10806TIP3    H253834   5.998   0.510   0.150  0.3747 -0.9969  0.7128
10807TIP3   OH253835   0.924   0.873  12.855 -0.4891  1.1692 -0.0001
10807TIP3    H153836   0.946   0.855  12.946  0.8898  0.7201 -0.3922
10807TIP3    H253837   0.829   0.880  12.854 -0.7554 -1.4433  1.0201
10808TIP3   OH253838   4.914   4.046  13.548  0.3474  0.0145 -0.4198
10808TIP3    H153839   4.893   3.958  13.516  1.0930  0.0750 -1.1129
10808TIP3    H253840   5.006   4.059  13.523  0.4538  0.7143  0.3123
10809TIP3   OH253841   1.563   3.004  11.376 -0.4343 -0.2912  0.4633
10809TIP3    H153842   1.590   2.915  11.399 -0.1681 -0.7733 -1.5420
10809TIP3    H253843   1.540   2.999  11.284 -2.0748  1.3581  0.7135
10810TIP3   OH253844   3.667   2.694   1.658  0.2641 -0.0109 -0.0924
10810TIP3    H153845   3.718   2.748   1.598  0.8239  0.8024  1.0682
10810TIP3    H253846   3.722   2.687   1.737 -0.4784 -0.9648  0.3615
10811TIP3   OH253847   5.091   4.399   5.926  0.2830  0.1668  0.1471
10811TIP3    H153848   5.033   4.362   5.992 -0.2486  0.4033 -0.1728
10811TIP3    H253849   5.168   4.343   5.927 -0.6861 -1.2391 -0.6437
10812TIP3   OH253850   1.745   3.350  14.952  0.2006 -0.2088 -0.3644
10812TIP3    H153851   1.704   3.436  14.964  0.9588  0.1440 -0.2227
10812TIP3    H253852   1.784   3.353  14.865 -0.7154 -0.8266 -0.8159
10813TIP3   OH253853   1.562   4.416  12.343 -0.1540  0.0200  0.6864
10813TIP3    H153854   1.613   4.475  12.398  2.4486 -0.7022 -0.8130
10813TIP3    H253855   1.546   4.340  12.398 -0.0122  0.4271  1.3063
10814TIP3   OH253856   0.693   3.352   4.643  0.0084  0.1583  0.5999
10814TIP3    H153857   0.759   3.391   4.699  1.8459 -1.8943 -0.0119
10814TIP3    H253858   0.699   3.401   4.561  0.6225  0.1157  0.6195
10815TIP3   OH253859   1.844   2.134   6.497 -0.4463 -0.3073 -0.4397
10815TIP3    H153860   1.831   2.179   6.581 -1.5891  0.6352 -1.0826
10815TIP3    H253861   1.859   2.043   6.520 -1.6264 -0.2278  0.7811
10816TIP3   OH253862   0.568   0.108  10.429  0.4901  0.1524 -0.5520
10816TIP3    H153863   0.620   0.133  10.506 -0.2474  0.7477 -0.2349
10816TIP3    H253864   0.501   0.176  10.421 -1.0460 -1.2184 -0.1732
10817TIP3   OH253865   2.311   0.785   5.031 -0.0928  0.1009  0.0066
10817TIP3    H153866   2.260   0.862   5.055 -0.6374 -0.0122 -0.7361
10817TIP3    H253867   2.245   0.718   5.013  0.3240 -0.1219 -0.7304
10818TIP3   OH253868   1.158   6.575   2.848 -0.8435  0.0546  0.0667
10818TIP3    H153869   1.220   6.503   2.852  1.9390  2.1319 -1.5746
10818TIP3    H253870   1.155   6.609   2.937  1.2595  0.4887  0.0237
10819TIP3   OH253871   0.017   4.025  10.392  0.4220 -0.5930  0.0104
10819TIP3    H153872   0.006   3.936  10.360  0.0579 -0.6464  0.2762
10819TIP3    H253873   0.112   4.037  10.397  0.4854 -1.4266  1.2275
10820TIP3   OH253874   3.822   6.211  12.268  0.3167  0.4568 -0.5250
10820TIP3    H153875   3.742   6.248  12.230 -0.3058  0.7401  0.9640
10820TIP3    H253876   3.798   6.193  12.359  2.2833  1.5885  0.2695
10821TIP3   OH253877   2.925   5.680   4.157 -0.0864 -0.1316  0.3822
10821TIP3    H153878   2.899   5.634   4.077 -0.1339  2.0848 -0.9627
10821TIP3    H253879   2.885   5.629   4.228  0.5785 -2.5948 -0.9025
10822TIP3   OH253880   3.220   1.495   1.519 -0.1214 -0.2139  0.1749
10822TIP3    H153881   3.213   1.498   1.614  0.2781 -1.2037  0.2493
10822TIP3    H253882   3.261   1.578   1.495  0.8509 -0.4424  0.9752
10823TIP3   OH253883   5.087   5.274   1.467 -0.1126  0.1640 -0.0244
10823TIP3    H153884   5.040   5.343   1.419 -2.7410 -0.5816  1.3100
10823TIP3    H253885   5.071   5.293   1.559  0.1679 -1.5288  0.4097
10824TIP3   OH253886   6.297   0.679   3.522 -0.7768  0.0311  0.1642
10824TIP3    H153887   6.318   0.752   3.464  0.0053  0.1690  0.5965
10824TIP3    H253888   6.378   0.627   3.524 -0.6243  0.2828  1.4800
10825TIP3   OH253889   2.824   4.603  14.559  0.4112  0.5871 -0.0559
10825TIP3    H153890   2.876   4.656  14.619 -0.6546 -0.0853  1.5352
10825TIP3    H253891   2.876   4.523  14.546  0.3808  0.4739  0.4860
10826TIP3   OH253892   6.460   2.642  16.934  0.4622 -0.3496 -0.1470
10826TIP3    H153893   6.549   2.675  16.952  0.3147 -0.2434  0.4218
10826TIP3    H253894   6.462   2.616  16.842  1.7116 -2.2470  0.3385
10827TIP3   OH253895   2.354   0.226   0.210 -0.0026 -0.1776 -0.0046
10827TIP3    H153896   2.317   0.314   0.222  0.0423 -0.2310  0.5373
10827TIP3    H253897   2.283   0.175   0.172 -0.4447 -0.2364  0.8672
10828TIP3   OH253898   1.598   2.037  15.114 -0.6172  0.3304 -0.0029
10828TIP3    H153899   1.606   1.985  15.195  1.7123 -0.6591 -0.7835
10828TIP3    H253900   1.580   1.973  15.046 -0.1517  0.8400 -0.6211
10829TIP3   OH253901   1.351   5.288   0.945 -0.2219  0.2784  0.2373
10829TIP3    H153902   1.302   5.355   0.993  0.4050  1.8489 -1.2167
10829TIP3    H253903   1.326   5.301   0.854  0.2322 -1.2298 -0.1291
10830TIP3   OH253904   1.566   4.777   1.068 -0.0162 -0.0655  0.0328
10830TIP3    H153905   1.631   4.767   0.998 -0.9233 -0.3448 -0.7839
10830TIP3    H253906   1.573   4.869   1.093  1.0110 -0.1903  0.2907
10831TIP3   OH253907   4.332   6.096  16.897  0.2547 -0.4639 -0.2203
10831TIP3    H153908   4.408   6.069  16.949  1.9174  0.5709 -2.0220
10831TIP3    H253909   4.329   6.034  16.825  1.4805  1.4369 -1.9987
10832TIP3   OH253910   2.432   0.580   3.804  0.2034  0.5831  0.0600
10832TIP3    H153911   2.456   0.487   3.801  2.4040  0.9726  2.3733
10832TIP3    H253912   2.479   0.620   3.731  2.1743  0.3752  1.1470
10833TIP3   OH253913   1.291   3.912  11.745 -0.0520 -0.0487  0.1755
10833TIP3    H153914   1.367   3.926  11.688 -0.5155 -0.0062 -0.4414
10833TIP3    H253915   1.227   3.977  11.715 -1.1882 -1.5818 -0.8471
10834TIP3   OH253916   1.174   0.908   5.336 -0.0997  0.0558 -0.8385
10834TIP3    H153917   1.139   0.886   5.422 -0.2306  1.3042 -0.5527
10834TIP3    H253918   1.103   0.886   5.276 -0.6248  0.6771 -0.4590
10835TIP3   OH253919   4.908   0.073   0.194  0.1795 -0.4163  0.0247
10835TIP3    H153920   4.990   0.067   0.243  0.3725 -0.0182 -0.2401
10835TIP3    H253921   4.841   0.088   0.262  0.2508 -1.2183  0.2842
10836TIP3   OH253922   0.321   3.021  15.799  0.0056 -0.1680  0.4157
10836TIP3    H153923   0.304   3.001  15.707  0.1305  0.9533  0.1404
10836TIP3    H253924   0.416   3.019  15.808 -0.0396 -2.1000  0.9660
10837TIP3   OH253925   3.691   2.752  15.871  0.2962  0.2911 -0.2006
10837TIP3    H153926   3.762   2.718  15.925  0.9060 -0.8314 -1.6243
10837TIP3    H253927   3.714   2.725  15.782 -2.5156 -1.2098 -0.5803
10838TIP3   OH253928   0.572   0.780   2.098  0.5701 -0.2553 -0.4596
10838TIP3    H153929   0.574   0.741   2.010 -0.3131 -0.6544 -0.3182
10838TIP3    H253930   0.485   0.819   2.104 -0.4374 -2.5048  1.1714
10839TIP3   OH253931   0.369   6.509  13.989  0.6293 -0.0815 -0.1521
10839TIP3    H153932   0.396   6.428  14.034  0.0117 -0.5462 -0.5991
10839TIP3    H253933   0.448   6.538  13.944  1.5038  0.8307  1.8285
10840TIP3   OH253934   0.030   4.047   5.336  1.0025 -0.5519  0.0266
10840TIP3    H153935  -0.024   3.974   5.366  1.9077 -1.3427 -0.2217
10840TIP3    H253936   0.080   4.010   5.263  0.9492  0.5223 -0.5628
10841TIP3   OH253937   4.843   1.358   2.362  0.0353  0.0676 -0.4072
10841TIP3    H153938   4.768   1.300   2.354 -0.2512  0.1381  1.3608
10841TIP3    H253939   4.807   1.442   2.390  0.7591  0.0666  0.6000
10842TIP3   OH253940   0.210   1.219  16.663  0.3742 -0.5135  0.0907
10842TIP3    H153941   0.195   1.259  16.749 -1.5169 -2.3595  0.7029
10842TIP3    H253942   0.280   1.156  16.678  0.4272 -0.4445  0.1374
10843TIP3   OH253943   5.318   4.757   4.891 -0.1289 -0.5164 -0.4558
10843TIP3    H153944   5.380   4.694   4.854  0.0811 -0.6165  0.0593
10843TIP3    H253945   5.344   4.765   4.983 -0.2107  0.2541 -0.4958
10844TIP3   OH253946   2.676   0.945  16.070 -0.3513 -0.5819  0.3386
10844TIP3    H153947   2.715   0.982  15.990  0.2857  0.2676  1.0264
10844TIP3    H253948   2.719   0.860  16.080 -1.1213 -1.1185 -0.7259
10845TIP3   OH253949   0.375   0.009   0.812  0.1708 -0.0322  0.0080
10845TIP3    H153950   0.333   0.058   0.883  1.1036 -0.3462  0.7958
10845TIP3    H253951   0.402   0.076   0.750  1.4787  0.5080  1.1017
10846TIP3   OH253952   3.783   4.066   4.146  0.0233  0.2629 -0.4570
10846TIP3    H153953   3.718   3.996   4.156 -1.9345  1.8552 -1.2246
10846TIP3    H253954   3.753   4.134   4.207  2.8241 -0.1230  1.5340
10847TIP3   OH253955   1.918   0.076  12.220  0.7295 -0.2597 -0.0177
10847TIP3    H153956   1.941   0.007  12.159 -0.3084 -0.3401 -0.3443
10847TIP3    H253957   1.914   0.032  12.305 -0.7409 -0.8114 -0.3400
10848TIP3   OH253958   5.587   0.137   3.120  0.3991 -0.2088 -0.9282
10848TIP3    H153959   5.558   0.070   3.182  0.6770 -1.3202 -1.9667
10848TIP3    H253960   5.672   0.105   3.089  1.1038  1.2358 -0.5638
10849TIP3   OH253961   0.355   0.515  15.850  0.8945  0.7073  0.3716
10849TIP3    H153962   0.299   0.470  15.913 -0.5275  2.4823  0.4503
10849TIP3    H253963   0.431   0.543  15.900  0.4615  0.8356  0.9596
10850TIP3   OH253964   5.053   0.445   1.146  0.1897 -0.0370  0.3237
10850TIP3    H153965   5.049   0.350   1.138  0.0472 -0.0253  0.2483
10850TIP3    H253966   5.063   0.461   1.240 -1.2732 -0.0866  0.5119
10851TIP3   OH253967   1.867   6.006  12.460  0.1583 -0.0625 -0.3247
10851TIP3    H153968   1.875   5.975  12.550 -1.2584 -0.4479 -0.3068
10851TIP3    H253969   1.773   6.009  12.444  0.2840  2.4624 -0.9593
10852TIP3   OH253970   5.773   5.594   0.875 -0.3060  0.8825  0.3616
10852TIP3    H153971   5.866   5.582   0.853  0.2667  1.5376  2.2531
10852TIP3    H253972   5.744   5.507   0.905  0.6131  1.3571  2.8148
10853TIP3   OH253973   2.739   3.214   3.889  0.3411 -0.3531 -0.4129
10853TIP3    H153974   2.647   3.209   3.912  0.5592 -2.3215  0.2179
10853TIP3    H253975   2.762   3.126   3.861  2.3444 -0.2775  0.7514
10854TIP3   OH253976   4.044   5.824   3.345 -0.3787  0.4410  0.0701
10854TIP3    H153977   3.950   5.843   3.351 -0.4114  0.6221 -0.8017
10854TIP3    H253978   4.076   5.886   3.279  0.0065 -0.7975 -0.9502
10855TIP3   OH253979   1.768   3.210   1.368 -0.5025 -0.0971  0.1122
10855TIP3    H153980   1.801   3.300   1.368 -0.4826 -0.0757  1.4609
10855TIP3    H253981   1.835   3.160   1.323  0.2596  0.3333  0.7355
10856TIP3   OH253982   4.265   0.513  16.560 -0.3553 -0.4433 -0.0917
10856TIP3    H153983   4.318   0.470  16.626 -1.2936 -1.4440  0.0335
10856TIP3    H253984   4.245   0.599  16.597 -0.8339 -0.9728  0.9043
10857TIP3   OH253985   5.817   2.746  16.678  0.8166 -0.4873 -0.1671
10857TIP3    H153986   5.863   2.667  16.649  1.3832 -0.2262 -0.0079
10857TIP3    H253987   5.875   2.817  16.651  0.2077 -0.1101 -0.5073
10858TIP3   OH253988   4.654   3.422   2.092 -0.4216 -0.4023 -0.2779
10858TIP3    H153989   4.608   3.394   2.014 -0.8918 -0.1189 -0.1029
10858TIP3    H253990   4.684   3.340   2.133  1.1879 -0.5140 -1.5516
10859TIP3   OH253991   2.534   4.482   3.137  0.0225  0.2020  0.6146
10859TIP3    H153992   2.618   4.444   3.164 -0.6141 -1.6759  0.1020
10859TIP3    H253993   2.469   4.437   3.190 -0.9167 -0.7157 -1.2336
10860TIP3   OH253994   0.819   0.404   3.250 -0.6210 -0.3143  0.1738
10860TIP3    H153995   0.888   0.338   3.256  0.6452  0.9516  0.1732
10860TIP3    H253996   0.855   0.472   3.194 -2.1374  0.1154 -0.3424
10861TIP3   OH253997   5.045   0.519   5.324  0.2682  0.2791 -0.0542
10861TIP3    H153998   5.059   0.554   5.412  2.2629 -0.3972 -0.0472
10861TIP3    H253999   4.952   0.531   5.308 -0.6539 -1.6676  3.0690
10862TIP3   OH254000   0.587   1.793   2.885  0.1871 -0.3657 -0.2114
10862TIP3    H154001   0.561   1.838   2.965  0.2927 -0.8425  0.0969
10862TIP3    H254002   0.667   1.837   2.856  0.0902 -0.1255 -0.1152
10863TIP3   OH254003   1.316   3.240  11.818 -0.0143  0.0368 -0.4690
10863TIP3    H154004   1.273   3.306  11.764 -1.5260 -2.1251 -2.0821
10863TIP3    H254005   1.386   3.205  11.762  1.3283  0.7769  0.6758
10864TIP3   OH254006   4.091   1.151   0.986  0.2534 -0.1201 -0.4936
10864TIP3    H154007   4.145   1.228   0.973 -1.0915  0.8578 -0.4437
10864TIP3    H254008   4.008   1.185   1.019 -0.3766 -1.5860 -0.4968
10865TIP3   OH254009   0.997   3.017   4.949 -0.3037 -0.6253  0.5693
10865TIP3    H154010   1.075   3.053   4.990 -0.8538  0.1415  0.9794
10865TIP3    H254011   0.985   2.931   4.988  1.3637 -1.5561 -0.8323
10866TIP3   OH254012   4.965   3.041  11.168  0.0282  0.0948 -0.4477
10866TIP3    H154013   5.018   2.998  11.235 -0.7597 -1.2037 -0.6223
10866TIP3    H254014   5.008   3.019  11.086 -0.4216 -0.4627 -0.5439
10867TIP3   OH254015   3.417   0.660  10.996 -0.3419  0.3626  0.2898
10867TIP3    H154016   3.494   0.706  11.030  1.1839 -0.7097 -1.5197
10867TIP3    H254017   3.431   0.568  11.020 -0.9375  0.1209 -0.2582
10868TIP3   OH254018   5.719   2.241   0.958  0.2064  0.4170  0.0298
10868TIP3    H154019   5.743   2.174   0.894 -0.7689 -0.6325  0.7157
10868TIP3    H254020   5.633   2.272   0.929  0.3111  0.8150  0.1414
10869TIP3   OH254021   2.530   4.483  13.471  0.4568 -0.2366 -0.3205
10869TIP3    H154022   2.607   4.480  13.414 -0.0029 -1.1134 -0.9268
10869TIP3    H254023   2.475   4.411  13.440  0.7584 -1.5909  2.0733
10870TIP3   OH254024   2.496   0.783  12.874 -0.1666 -0.0529  0.4050
10870TIP3    H154025   2.517   0.690  12.871 -0.3797 -0.0954  0.2626
10870TIP3    H254026   2.427   0.790  12.940  0.3947  0.1095  0.9942
10871TIP3   OH254027   3.062   5.737  15.668  0.0109  0.5311  1.0847
10871TIP3    H154028   3.027   5.823  15.645  0.6144  0.7368  0.9196
10871TIP3    H254029   3.045   5.683  15.591  1.3744  1.0269  0.4055
10872TIP3   OH254030   2.555   4.490   1.789 -0.1117 -0.0364 -0.1321
10872TIP3    H154031   2.618   4.561   1.778 -1.5619  1.3248 -0.0543
10872TIP3    H254032   2.608   4.414   1.813  1.5288  0.9158 -0.5975
10873TIP3   OH254033   1.162   0.837  16.193  0.3612 -0.6168 -0.1748
10873TIP3    H154034   1.189   0.748  16.216 -0.0714 -0.2909  1.7229
10873TIP3    H254035   1.244   0.884  16.178  0.7183 -0.7447  1.2272
10874TIP3   OH254036   4.433   6.549   2.251  0.0329 -0.3305 -0.4889
10874TIP3    H154037   4.477   6.473   2.288 -0.3021  0.2025  1.0907
10874TIP3    H254038   4.481   6.624   2.287  0.7847  0.2432 -2.5401
10875TIP3   OH254039   2.608   3.778  10.734  0.2987 -0.2058  0.2427
10875TIP3    H154040   2.603   3.791  10.829  1.4462 -1.3594  0.4875
10875TIP3    H254041   2.642   3.860  10.700  0.4276  0.0225  0.9004
10876TIP3   OH254042   5.017   5.038  13.447  0.2066 -0.3458  0.2386
10876TIP3    H154043   5.030   4.949  13.415 -1.1572  0.0981 -1.6794
10876TIP3    H254044   5.062   5.094  13.384  1.0668  0.3743  1.4343
10877TIP3   OH254045   1.435   1.780   2.165  0.1526  0.6152  0.1946
10877TIP3    H154046   1.473   1.695   2.185 -1.1223 -0.1180 -0.3652
10877TIP3    H254047   1.383   1.765   2.085  0.3490  2.0438 -0.2336
10878TIP3   OH254048   1.693   4.695   4.476  0.5276  0.5077 -0.3953
10878TIP3    H154049   1.747   4.677   4.553 -0.9813  0.1839  0.6255
10878TIP3    H254050   1.698   4.616   4.423  1.0587  0.4931 -0.3291
10879TIP3   OH254051   0.303   4.884  10.823  0.5437 -0.0805 -0.1892
10879TIP3    H154052   0.280   4.869  10.731  1.4714  1.4607 -0.7155
10879TIP3    H254053   0.396   4.905  10.821  0.7228 -0.6465  1.2035
10880TIP3   OH254054   1.207   5.180  13.220  0.7234  0.2806 -0.2580
10880TIP3    H154055   1.200   5.086  13.208 -0.4831  0.2880  0.2576
10880TIP3    H254056   1.158   5.198  13.301  0.6060  1.3969 -0.5578
10881TIP3   OH254057   2.542   5.044   2.230  0.7281  0.2229 -0.4993
10881TIP3    H154058   2.529   5.136   2.205  0.4071  0.4114  0.3047
10881TIP3    H254059   2.594   5.049   2.311 -1.4964 -0.1469  1.0482
10882TIP3   OH254060   2.614   3.742  14.703  0.1163 -0.1231  0.6981
10882TIP3    H154061   2.666   3.811  14.661 -0.3883 -0.1122  0.0876
10882TIP3    H254062   2.638   3.662  14.656 -2.0240  0.2071 -1.0950
10883TIP3   OH254063   3.854   2.084   3.899  0.1785  0.3660  0.3688
10883TIP3    H154064   3.784   2.143   3.869  0.8456  1.0236  0.0839
10883TIP3    H254065   3.826   2.056   3.986 -0.1096  1.1789  0.5462
10884TIP3   OH254066   2.096   3.008  17.025 -0.1999  0.4385  0.4144
10884TIP3    H154067   2.101   3.040  16.935  1.9251 -0.1225  0.2780
10884TIP3    H254068   2.066   3.083  17.076 -0.1037  1.1601 -0.5671
10885TIP3   OH254069   2.431   3.963   1.309  0.6965 -0.0598  0.3051
10885TIP3    H154070   2.387   4.039   1.270  1.3573  0.5237  0.6626
10885TIP3    H254071   2.366   3.894   1.306 -0.0925  0.6569  0.3939
10886TIP3   OH254072   5.052   2.003   5.522  0.0875  0.3297 -0.0988
10886TIP3    H154073   5.137   2.046   5.524  1.8172 -2.8578  0.4453
10886TIP3    H254074   5.002   2.046   5.592  1.6277  1.4949  0.3434
10887TIP3   OH254075   2.897   2.701   0.529 -0.7568  0.1790  0.0229
10887TIP3    H154076   2.844   2.667   0.458  1.0903  0.4540 -1.5741
10887TIP3    H254077   2.958   2.630   0.549 -0.6667  0.4402  0.7048
10888TIP3   OH254078   3.781   4.335   2.245  0.0174  0.1985  0.9176
10888TIP3    H154079   3.709   4.279   2.275  0.9606 -1.1446  0.7678
10888TIP3    H254080   3.750   4.424   2.260 -3.6796  0.0153 -3.4302
10889TIP3   OH254081   1.299   5.270  15.933 -0.2507 -0.4100  0.0970
10889TIP3    H154082   1.289   5.269  16.028  0.7570  1.2120  0.2536
10889TIP3    H254083   1.324   5.360  15.912  2.4457 -1.3696 -1.3721
10890TIP3   OH254084   2.031   0.536   6.156  0.1282  0.3237  0.0461
10890TIP3    H154085   1.948   0.543   6.203 -0.0202 -2.4408  0.3744
10890TIP3    H254086   2.093   0.501   6.220  0.9606  0.2471 -0.7754
10891TIP3   OH254087   3.006   3.816   3.212 -0.0962 -0.0833 -0.2437
10891TIP3    H154088   2.919   3.792   3.179 -0.6695 -1.8897  2.2560
10891TIP3    H254089   2.988   3.881   3.280  0.8600  1.9591 -1.8321
10892TIP3   OH254090   3.296   1.938   2.497 -0.6994 -0.1131 -0.0573
10892TIP3    H154091   3.339   2.016   2.463  0.0605  0.4120  1.9827
10892TIP3    H254092   3.257   1.897   2.420 -0.7967  2.0570 -1.2419
10893TIP3   OH254093   1.782   0.142  12.652  0.0410  0.2130 -0.1738
10893TIP3    H154094   1.820   0.203  12.716 -1.6307 -0.5376  1.6434
10893TIP3    H254095   1.851   0.076  12.638  0.5033  0.4845  0.7479
10894TIP3   OH254096   0.080   6.322  14.397 -0.1051 -0.1196 -0.4032
10894TIP3    H154097   0.155   6.327  14.338  0.3237 -0.6296  0.0779
10894TIP3    H254098   0.084   6.403  14.448 -0.0411 -0.0175 -0.5736
10895TIP3   OH254099   4.638   2.055   1.171  0.0566 -0.1167 -0.1461
10895TIP3    H154100   4.641   2.139   1.216  2.6370  0.1721 -0.6893
10895TIP3    H254101   4.583   2.071   1.094  1.8498  1.6227 -1.1572
10896TIP3   OH254102   6.188   4.130  15.302  0.2250  0.2410  0.4816
10896TIP3    H154103   6.281   4.130  15.324 -0.1602  0.1400  2.2811
10896TIP3    H254104   6.153   4.053  15.348 -0.8258  0.5677  0.2444
10897TIP3   OH254105   2.148   4.469  14.880  1.0046 -0.3432 -0.1654
10897TIP3    H154106   2.237   4.477  14.845  0.8485  0.0422 -0.4731
10897TIP3    H254107   2.148   4.384  14.924  1.6386 -0.1789  0.1674
10898TIP3   OH254108   1.451   0.398   4.094 -0.1007 -0.5055  0.0225
10898TIP3    H154109   1.459   0.490   4.066  0.9107 -0.3055  0.9052
10898TIP3    H254110   1.369   0.395   4.142 -0.1253 -0.0517  0.0142
10899TIP3   OH254111   1.194   0.958   1.412  0.7490  0.0748  0.2882
10899TIP3    H154112   1.195   1.030   1.349  0.0609 -1.5202 -1.6472
10899TIP3    H254113   1.107   0.962   1.451  0.3146 -0.3055 -0.6038
10900TIP3   OH254114   6.018   0.728  12.911  0.3368 -0.4668  0.0956
10900TIP3    H154115   5.927   0.722  12.940  0.4956  0.6980  0.8994
10900TIP3    H254116   6.037   0.821  12.911  0.6408 -0.4236 -2.9700
10901TIP3   OH254117   0.540   2.215  12.202 -0.0408  0.2119 -0.2346
10901TIP3    H154118   0.514   2.186  12.289  0.4122  2.6509  0.7967
10901TIP3    H254119   0.457   2.233  12.157 -0.2933 -1.6723 -0.5814
10902TIP3   OH254120   4.169   2.575  11.645  0.0883  0.3527 -0.0487
10902TIP3    H154121   4.220   2.495  11.649 -1.5326 -0.7159 -0.0677
10902TIP3    H254122   4.194   2.616  11.562  0.5420 -0.3932 -0.2825
10903TIP3   OH254123   3.343   3.281  15.007 -0.7514  0.5511  0.2339
10903TIP3    H154124   3.336   3.186  14.999  0.8391  0.4784 -0.9129
10903TIP3    H254125   3.374   3.295  15.096 -1.9450  0.0664  0.7357
10904TIP3   OH254126   2.716   0.654   1.614  0.5145 -0.3911 -0.3783
10904TIP3    H154127   2.802   0.694   1.622  1.0402 -1.3425 -1.0403
10904TIP3    H254128   2.655   0.727   1.616  1.2828  0.2595  0.6933
10905TIP3   OH254129   1.239   1.139  16.965 -0.0794 -0.1616  0.5208
10905TIP3    H154130   1.244   1.141  16.870 -2.3981  0.2038  0.3623
10905TIP3    H254131   1.327   1.163  16.994  1.1108 -1.7687 -1.4973
10906TIP3   OH254132   1.966   2.597   5.000  0.1633  0.2334  0.1322
10906TIP3    H154133   1.999   2.545   5.072 -1.2460 -0.1920  0.4961
10906TIP3    H254134   2.013   2.565   4.923  2.2875  1.2554  0.9375
10907TIP3   OH254135   1.448   1.297  14.565  0.1824  0.2043 -0.6239
10907TIP3    H154136   1.416   1.301  14.655 -0.1143  0.7966 -0.7487
10907TIP3    H254137   1.535   1.337  14.569  0.2254  0.1037 -0.5725
10908TIP3   OH254138   4.785   4.586   2.154  0.1230 -0.3529 -0.5566
10908TIP3    H154139   4.795   4.591   2.249  1.9948 -1.7549 -0.6130
10908TIP3    H254140   4.699   4.623   2.136 -0.5354 -0.6552  1.7474
10909TIP3   OH254141   2.994   6.746  13.235 -0.3082  0.1128 -0.3872
10909TIP3    H154142   3.053   6.803  13.284  1.8430 -1.0830 -1.4320
10909TIP3    H254143   2.963   6.683  13.300  1.5470 -0.7090 -0.2249
10910TIP3   OH254144   6.279   1.920  15.816 -0.1154 -0.0241  0.1523
10910TIP3    H154145   6.307   2.011  15.809  0.7153 -0.3437 -1.2967
10910TIP3    H254146   6.184   1.922  15.805 -0.0837  0.6641 -0.0140
10911TIP3   OH254147   4.066   5.097   4.109 -0.2856 -0.3303 -0.2353
10911TIP3    H154148   4.019   5.062   4.034 -2.2632 -0.5069  0.9995
10911TIP3    H254149   3.998   5.126   4.169  1.1974 -0.2908  1.5474
10912TIP3   OH254150   6.099   1.329  10.697  0.3684  0.2592 -0.0627
10912TIP3    H154151   6.133   1.356  10.611  1.6852  1.0734  0.6714
10912TIP3    H254152   6.167   1.357  10.759 -0.4415 -0.5310  1.2250
10913TIP3   OH254153   6.314   5.073  13.535 -0.5105 -0.2195  0.1858
10913TIP3    H154154   6.225   5.093  13.505 -1.3027 -1.4613  1.5507
10913TIP3    H254155   6.311   4.980  13.559  0.9029 -0.0588  1.1297
10914TIP3   OH254156   0.885   6.519  13.317 -0.3222 -0.2640  0.6790
10914TIP3    H154157   0.836   6.543  13.239  0.6908  1.1292  0.4460
10914TIP3    H254158   0.906   6.426  13.304 -0.2886 -0.0940 -0.6357
10915TIP3   OH254159   0.141   5.066  14.302 -0.1889  0.0840 -0.3651
10915TIP3    H154160   0.115   5.139  14.245 -2.7941  0.2819  0.9131
10915TIP3    H254161   0.120   5.096  14.390  0.2066 -1.6219  0.3441
10916TIP3   OH254162   6.218   2.377   0.292  0.0752 -0.1098 -0.2482
10916TIP3    H154163   6.242   2.315   0.360  0.5576  2.1502  1.7892
10916TIP3    H254164   6.301   2.415   0.264 -0.3630  2.2049  1.2692
10917TIP3   OH254165   1.334   0.599   4.330  0.1915 -0.6760 -0.2616
10917TIP3    H154166   1.250   0.603   4.285  0.4815  1.4699 -0.6822
10917TIP3    H254167   1.317   0.636   4.417  0.6387 -0.4761 -0.2569
10918TIP3   OH254168   0.772   5.804   3.709 -0.1031 -0.2870  0.0523
10918TIP3    H154169   0.695   5.822   3.655  0.3058  1.5145  0.0119
10918TIP3    H254170   0.748   5.837   3.796  0.8774  1.0005 -0.1434
10919TIP3   OH254171   2.437   0.526  16.058  0.3853 -1.1216 -0.1109
10919TIP3    H154172   2.526   0.519  16.022  0.1613  0.3973 -1.0578
10919TIP3    H254173   2.429   0.617  16.085 -0.6219 -1.4435  0.7235
10920TIP3   OH254174   0.848   3.538   2.386 -0.0827 -0.2653  0.3168
10920TIP3    H154175   0.933   3.580   2.399 -0.5952  0.5696  1.1096
10920TIP3    H254176   0.788   3.610   2.365 -0.9050 -0.6287  1.3226
10921TIP3   OH254177   4.174   5.129   3.235  0.2819 -0.7262  0.4592
10921TIP3    H154178   4.268   5.117   3.218  0.4446 -0.3594  1.0869
10921TIP3    H254179   4.151   5.209   3.188 -0.5969 -2.7430 -2.9391
10922TIP3   OH254180   2.512   5.139  11.602 -0.2330 -0.1036  0.3637
10922TIP3    H154181   2.598   5.100  11.591 -0.3325  0.0932 -1.3229
10922TIP3    H254182   2.470   5.085  11.670  0.1923 -1.9931 -0.7846
10923TIP3   OH254183   0.952   2.232   5.853 -0.4226  0.5258 -0.0342
10923TIP3    H154184   0.997   2.314   5.872  0.0501  0.2303  0.1415
10923TIP3    H254185   1.016   2.181   5.803 -0.1600 -0.3308  1.1506
10924TIP3   OH254186   3.647   3.269   3.480 -0.4875  0.3272  0.3244
10924TIP3    H154187   3.598   3.348   3.500 -0.2937  0.7434 -0.7841
10924TIP3    H254188   3.673   3.279   3.388  2.9153  0.8461  1.1934
10925TIP3   OH254189   1.312   4.520  16.674 -0.5415  0.5479  0.3240
10925TIP3    H154190   1.377   4.569  16.624 -1.2549 -0.2184 -1.4649
10925TIP3    H254191   1.233   4.522  16.619 -1.7841  0.7158  2.0241
10926TIP3   OH254192   5.389   0.806  13.883  0.8080  0.4732 -0.0968
10926TIP3    H154193   5.444   0.768  13.951 -0.7863  0.3254  1.1634
10926TIP3    H254194   5.319   0.742  13.870  0.1588  1.2759 -0.6445
10927TIP3   OH254195   2.873   0.804  11.066 -0.2801  0.8238 -0.5059
10927TIP3    H154196   2.888   0.851  10.984  1.4880  1.7129  0.2904
10927TIP3    H254197   2.955   0.757  11.082 -0.8316  0.1675  0.4484
10928TIP3   OH254198   1.494   6.585   0.348  0.1568 -0.5889  0.2859
10928TIP3    H154199   1.499   6.519   0.417  0.4142  0.6510  1.5020
10928TIP3    H254200   1.478   6.667   0.395  2.5363  0.6499 -0.9107
10929TIP3   OH254201   5.295   0.830  16.673 -0.1583 -0.2760  0.0224
10929TIP3    H154202   5.350   0.760  16.709 -1.1380 -0.8313  0.5143
10929TIP3    H254203   5.338   0.856  16.592  2.1957  1.0953  1.6223
10930TIP3   OH254204   5.436   6.301  12.089 -0.2359 -0.3299  0.0452
10930TIP3    H154205   5.458   6.315  11.997  0.1057 -2.0254 -0.1778
10930TIP3    H254206   5.343   6.282  12.088 -0.4469  0.6581  0.1933
10931TIP3   OH254207   5.329   0.894  12.953  0.0340 -0.3758 -0.4468
10931TIP3    H154208   5.335   0.809  12.997 -0.3603 -0.2115 -0.0697
10931TIP3    H254209   5.242   0.927  12.976  1.2072  1.4177  1.7232
10932TIP3   OH254210   0.183   5.083  11.197  0.3884  0.8493 -0.0680
10932TIP3    H154211   0.226   5.009  11.155 -0.2586  0.2575  0.2951
10932TIP3    H254212   0.210   5.077  11.289  0.9109  1.4916 -0.1702
10933TIP3   OH254213   0.034   4.864   2.497  0.7366 -0.2227 -0.0767
10933TIP3    H154214   0.114   4.811   2.502  2.4003  2.1504  0.4286
10933TIP3    H254215   0.032   4.911   2.580 -0.1314  1.1891 -0.8631
10934TIP3   OH254216   4.433   6.649  16.520 -0.3161 -0.4569  0.1800
10934TIP3    H154217   4.349   6.605  16.509  0.0972 -1.5216  1.1395
10934TIP3    H254218   4.459   6.631  16.610  0.6917  0.3092  0.0633
10935TIP3   OH254219   6.351   5.035  15.658  0.5672 -0.0851  0.1335
10935TIP3    H154220   6.327   4.943  15.647  1.0836 -0.3662  1.2704
10935TIP3    H254221   6.269   5.078  15.684  0.4210 -0.3059  0.0413
10936TIP3   OH254222   3.453   2.688   4.018  0.1458  0.2494  0.1789
10936TIP3    H154223   3.498   2.772   4.030  0.1264 -0.0010  2.3880
10936TIP3    H254224   3.362   2.712   4.003  0.2108  0.6239  0.3619
10937TIP3   OH254225   1.934   0.430  12.123  0.0980  0.0688 -0.1597
10937TIP3    H154226   2.009   0.396  12.074  1.3219  1.5186  0.6389
10937TIP3    H254227   1.967   0.444  12.212 -1.3684 -0.0680  0.4502
10938TIP3   OH254228   4.959   2.327  16.955 -0.3385 -0.1431  0.2879
10938TIP3    H154229   5.006   2.289  16.882  0.5150  0.2876  0.6037
10938TIP3    H254230   4.914   2.403  16.918 -3.1379 -2.0887 -0.6543
10939TIP3   OH254231   3.871   3.551   1.371  0.2545 -0.2820  0.3690
10939TIP3    H154232   3.805   3.580   1.309  0.9525 -0.5511 -0.5171
10939TIP3    H254233   3.948   3.604   1.351  0.1220  0.5280  1.8565
10940TIP3   OH254234   4.408   1.562  16.109  0.7201 -0.0763  0.2878
10940TIP3    H154235   4.470   1.496  16.080  0.2823 -0.0718 -0.6712
10940TIP3    H254236   4.459   1.643  16.116  0.7362  0.0342 -0.9565
10941TIP3   OH254237   5.106   2.269  11.702  0.1480  0.7991 -0.3486
10941TIP3    H154238   5.169   2.203  11.672  0.4552 -0.2832  2.3295
10941TIP3    H254239   5.024   2.221  11.711 -0.5466  1.6782 -1.7093
10942TIP3   OH254240   0.948   4.307   0.398  0.2893 -0.0788 -0.1522
10942TIP3    H154241   0.990   4.247   0.337  0.8563 -0.4119  0.5402
10942TIP3    H254242   0.862   4.269   0.416  0.8810 -1.0420  0.7569
10943TIP3   OH254243   0.608   5.971  15.125 -0.3008 -0.1002 -0.3191
10943TIP3    H154244   0.682   6.030  15.109  0.4221  0.1856  3.3588
10943TIP3    H254245   0.533   6.029  15.140 -0.0642 -0.1371  1.1434
10944TIP3   OH254246   4.290   6.598   6.128  1.1566 -0.3560 -0.2002
10944TIP3    H154247   4.206   6.644   6.125  1.4416  0.3041  1.0619
10944TIP3    H254248   4.354   6.666   6.150  1.7847 -1.1194  0.3884
10945TIP3   OH254249   3.073   5.867  12.368  0.2361 -0.2440 -0.1965
10945TIP3    H154250   3.132   5.803  12.327  1.0992 -0.7189  1.7029
10945TIP3    H254251   3.005   5.882  12.301  1.9771 -0.3501 -2.0955
10946TIP3   OH254252   3.691   6.092   1.050  0.0044 -0.0898  0.2996
10946TIP3    H154253   3.756   6.078   1.118  0.4641 -2.1325 -0.4825
10946TIP3    H254254   3.738   6.136   0.979  0.1052 -0.0628  0.3837
10947TIP3   OH254255   5.572   2.123   4.355  0.0620 -0.1913  0.1575
10947TIP3    H154256   5.548   2.155   4.442 -2.0525 -0.4309 -0.2950
10947TIP3    H254257   5.541   2.033   4.353  5.3208 -2.4085  1.1802
10948TIP3   OH254258   2.965   6.076  13.068 -0.1349  0.3394  0.4887
10948TIP3    H154259   2.937   6.083  13.159  1.2776 -0.7729  1.0484
10948TIP3    H254260   3.046   6.026  13.072 -0.6446 -0.7237 -1.4975
10949TIP3   OH254261   1.478   4.950  13.538 -0.7720 -0.4795 -0.4751
10949TIP3    H154262   1.423   4.911  13.606 -0.0364 -1.4731 -0.4315
10949TIP3    H254263   1.445   5.040  13.529 -2.4462 -1.0497 -0.4916
10950TIP3   OH254264   2.918   0.920  11.663  0.0553 -0.6160 -0.3292
10950TIP3    H154265   2.890   0.857  11.730  0.0605 -0.8387 -0.5328
10950TIP3    H254266   3.003   0.952  11.694  0.3869 -1.2436 -0.5730
10951TIP3   OH254267   1.486   5.790   5.132 -0.5502 -0.3989 -0.1961
10951TIP3    H154268   1.422   5.720   5.148 -1.8764  0.7982 -0.0605
10951TIP3    H254269   1.466   5.821   5.044  0.4509 -0.6060 -0.5069
10952TIP3   OH254270   5.047   4.105   2.058 -0.1512  0.1143  0.2420
10952TIP3    H154271   5.025   4.185   2.011 -0.5351 -0.0240  0.1748
10952TIP3    H254272   5.046   4.037   1.991  2.7283  0.4116 -0.2003
10953TIP3   OH254273   4.867   3.394   0.893 -0.4701  0.4089  0.7711
10953TIP3    H154274   4.840   3.414   0.983 -0.3510  1.9240  0.4878
10953TIP3    H254275   4.856   3.299   0.886 -2.5014  0.5268  1.7275
10954TIP3   OH254276   5.132   4.893   1.074  0.6037 -0.1090 -0.5432
10954TIP3    H154277   5.105   4.899   0.982  1.1706  1.9681 -0.6133
10954TIP3    H254278   5.225   4.871   1.070  0.6418  0.0383 -0.4743
10955TIP3   OH254279   0.682   3.951  11.530 -0.2951 -0.0520 -0.2005
10955TIP3    H154280   0.748   3.883  11.541 -0.0658  0.0110 -1.1102
10955TIP3    H254281   0.712   4.023  11.585  0.7948  0.2536 -1.1543
10956TIP3   OH254282   4.636   3.761  15.026  0.4832 -0.4679 -0.4375
10956TIP3    H154283   4.624   3.673  14.989  0.8095  0.0779 -1.9104
10956TIP3    H254284   4.669   3.813  14.953 -0.0521  0.9763  0.3115
10957TIP3   OH254285   3.615   3.821   4.168  0.3882  0.2576  0.4020
10957TIP3    H154286   3.620   3.773   4.086  0.1638 -1.5426  1.3764
10957TIP3    H254287   3.522   3.839   4.181  0.2170 -0.9480  1.0249
10958TIP3   OH254288   1.759   0.199   3.207 -0.1257  0.5019  0.2501
10958TIP3    H154289   1.781   0.211   3.300 -2.2143  0.8359  0.7665
10958TIP3    H254290   1.832   0.150   3.171 -0.2850 -1.7516  2.6696
10959TIP3   OH254291   5.597   5.752  16.885 -0.1760  0.2538 -0.3433
10959TIP3    H154292   5.693   5.754  16.892 -0.2299 -0.2767  0.6616
10959TIP3    H254293   5.578   5.810  16.811  0.9387  0.0879 -0.7874
10960TIP3   OH254294   0.848   4.284  16.166  0.3817 -0.3250  0.2403
10960TIP3    H154295   0.897   4.323  16.094  0.4592 -0.6528  0.1128
10960TIP3    H254296   0.764   4.330  16.167  0.8393  0.5180  0.7222
10961TIP3   OH254297   6.132   5.399  13.614 -0.0043  0.1853 -0.0465
10961TIP3    H154298   6.221   5.422  13.587  0.1985  1.4611  1.5340
10961TIP3    H254299   6.076   5.432  13.543  0.7877 -1.2923 -1.4198
10962TIP3   OH254300   6.609   5.813   2.872  0.4770 -0.0051  0.4840
10962TIP3    H154301   6.578   5.836   2.784 -0.6124  0.4537  0.9737
10962TIP3    H254302   6.616   5.897   2.918  2.1033 -0.1223  0.5284
10963TIP3   OH254303   0.655   2.448  15.967  0.5366 -0.4162 -0.4023
10963TIP3    H154304   0.704   2.529  15.973 -0.6912  0.3889 -0.9063
10963TIP3    H254305   0.674   2.415  15.879  0.1278 -0.0543 -0.6332
10964TIP3   OH254306   1.380   4.732  13.701 -0.0412  0.5319  0.0457
10964TIP3    H154307   1.458   4.739  13.756 -0.4109 -2.8360  1.1980
10964TIP3    H254308   1.309   4.764  13.758 -0.0830 -0.6274  0.6656
10965TIP3   OH254309   0.213   6.319   0.698 -0.5373  0.3744 -0.1523
10965TIP3    H154310   0.195   6.258   0.769 -0.8742  0.7891  0.1160
10965TIP3    H254311   0.303   6.348   0.713 -0.7384  0.7472  0.3098
10966TIP3   OH254312   1.754   0.536   1.877  0.1718  0.3093  0.2908
10966TIP3    H154313   1.840   0.555   1.913  0.5086 -0.9850  0.2159
10966TIP3    H254314   1.699   0.608   1.907  1.2957  1.2335  0.2278
10967TIP3   OH254315   3.312   1.280   3.983  0.8063  0.7594  0.7904
10967TIP3    H154316   3.384   1.260   4.042  1.4386 -0.6490 -0.3767
10967TIP3    H254317   3.233   1.251   4.029  1.2477  0.0566  1.1164
10968TIP3   OH254318   2.588   6.161  13.748 -0.4884 -0.6511 -0.1352
10968TIP3    H154319   2.601   6.068  13.728 -0.3892 -0.7811  0.5008
10968TIP3    H254320   2.676   6.198  13.749 -0.4322 -0.7768  0.6303
10969TIP3   OH254321   3.646   0.844   0.189 -0.1779  0.0364  0.6591
10969TIP3    H154322   3.652   0.886   0.103  0.1348  0.7499  1.0192
10969TIP3    H254323   3.584   0.773   0.176 -1.3609  1.1115  0.2241
10970TIP3   OH254324   6.193   1.184  13.272  0.0388 -0.0484 -0.2227
10970TIP3    H154325   6.253   1.259  13.269 -0.6665  0.4976 -1.3988
10970TIP3    H254326   6.198   1.153  13.362  0.7501  1.0819  0.1467
10971TIP3   OH254327   2.952   6.231  11.390  0.1625  0.3292 -0.2202
10971TIP3    H154328   3.019   6.249  11.323 -0.3322  1.9117 -0.3470
10971TIP3    H254329   2.941   6.136  11.389  2.3253  0.0363 -0.2592
10972TIP3   OH254330   2.775   2.332   6.122  0.1658 -0.1248 -0.2867
10972TIP3    H154331   2.744   2.341   6.031  0.8971  2.2002 -0.3793
10972TIP3    H254332   2.743   2.411   6.166  1.1845 -0.4408  1.0733
10973TIP3   OH254333   0.428   0.476  14.956 -0.3020  1.0434  0.1532
10973TIP3    H154334   0.385   0.394  14.931 -0.2994  1.2390 -0.4896
10973TIP3    H254335   0.412   0.482  15.051 -0.0355  0.1459  0.2691
10974TIP3   OH254336   5.505   1.136   3.152 -0.6996  0.0804  0.3064
10974TIP3    H154337   5.538   1.100   3.070 -0.1938 -1.5751  1.1982
10974TIP3    H254338   5.557   1.215   3.166  0.3750 -0.5201 -0.1436
10975TIP3   OH254339   3.690   0.399   1.948  0.5569  0.5309  0.2736
10975TIP3    H154340   3.743   0.440   1.879  1.7573  1.7905  1.8586
10975TIP3    H254341   3.601   0.429   1.930  0.2738 -1.5338 -2.3847
10976TIP3   OH254342   1.978   2.996   2.246  0.5329 -0.3644 -0.3325
10976TIP3    H154343   2.035   3.034   2.313 -0.9087 -0.4978  1.0050
10976TIP3    H254344   1.927   3.069   2.214  1.5481 -0.2068 -1.6880
10977TIP3   OH254345   2.049   0.732  13.136  0.6856 -0.2500 -0.3381
10977TIP3    H154346   1.974   0.781  13.102  0.9055 -0.3903 -1.0344
10977TIP3    H254347   2.015   0.689  13.214  0.7021  1.6683  0.7849
10978TIP3   OH254348   4.204   2.320   4.359  0.2358  0.0237 -0.1720
10978TIP3    H154349   4.258   2.344   4.434 -0.7568 -0.9285  0.8892
10978TIP3    H254350   4.215   2.225   4.351 -1.9654 -0.3389  0.6506
10979TIP3   OH254351   3.919   2.172  13.970 -0.3033 -0.2536  0.2094
10979TIP3    H154352   3.860   2.238  14.006  0.8154  0.1142  1.4459
10979TIP3    H254353   3.958   2.131  14.046  0.6664 -0.8242 -0.5750
10980TIP3   OH254354   4.682   1.727   4.077 -0.1422  0.4778  0.3319
10980TIP3    H154355   4.620   1.661   4.046 -1.0873  2.1426 -1.6134
10980TIP3    H254356   4.768   1.688   4.061 -0.6723 -0.1950 -1.0846
10981TIP3   OH254357   3.575   5.188   0.348  0.3534 -0.7177  0.0954
10981TIP3    H154358   3.527   5.123   0.400 -1.0634  0.6765  0.6331
10981TIP3    H254359   3.563   5.270   0.397 -0.6984  0.5815 -2.2089
10982TIP3   OH254360   2.206   3.614   4.242  0.0171  0.0423  0.3474
10982TIP3    H154361   2.223   3.691   4.188  1.0380  0.6175  1.4485
10982TIP3    H254362   2.293   3.578   4.259 -0.4917 -2.1996 -1.2868
10983TIP3   OH254363   2.383   2.436   3.463  0.0807 -0.8949  0.1332
10983TIP3    H154364   2.433   2.515   3.481  2.4206 -2.0876 -0.6981
10983TIP3    H254365   2.342   2.414   3.547 -1.5014  1.6813  0.1457
10984TIP3   OH254366   0.440   5.729   2.273 -0.3166 -0.3234  0.2710
10984TIP3    H154367   0.434   5.802   2.211  2.6016 -0.5584 -0.4112
10984TIP3    H254368   0.462   5.770   2.356  0.5002 -0.3589  0.0740
10985TIP3   OH254369   4.166   3.357   6.035  0.0990 -0.1890  0.9287
10985TIP3    H154370   4.241   3.312   6.073  0.8014  0.0557 -0.1163
10985TIP3    H254371   4.205   3.422   5.976 -0.9223  0.5523  1.0531
10986TIP3   OH254372   6.642   4.081  10.953  1.0490 -0.5660  0.8724
10986TIP3    H154373   6.723   4.050  10.914  0.7354 -0.5571  0.1833
10986TIP3    H254374   6.645   4.176  10.942  1.2684 -0.4970  1.4998
10987TIP3   OH254375   2.175   2.880  16.529 -0.3051 -0.1033 -0.3104
10987TIP3    H154376   2.238   2.889  16.458 -0.0331  2.5239  0.1454
10987TIP3    H254377   2.092   2.861  16.485 -0.1042  1.2792 -1.3723
10988TIP3   OH254378   2.942   0.857  10.800  0.0547  0.6829 -0.0785
10988TIP3    H154379   2.986   0.936  10.831  1.4781  0.3476 -1.1609
10988TIP3    H254380   2.896   0.884  10.721 -1.6413  0.9959  0.9620
10989TIP3   OH254381   3.010   0.741  15.789 -0.9703  0.7015  0.2498
10989TIP3    H154382   3.027   0.752  15.696 -1.8252  0.1245  0.0130
10989TIP3    H254383   2.916   0.721  15.794 -0.4590 -1.8992  0.9949
10990TIP3   OH254384   4.741   5.239  12.240 -0.3960  0.2726  0.1985
10990TIP3    H154385   4.704   5.151  12.245 -0.6596  0.3990  0.5142
10990TIP3    H254386   4.744   5.259  12.146  2.7809 -1.3774 -0.1977
10991TIP3   OH254387   2.876   1.573   1.127 -0.4585  0.0838  0.4050
10991TIP3    H154388   2.966   1.543   1.138 -0.3997 -0.1015 -0.4399
10991TIP3    H254389   2.824   1.492   1.127 -0.4667  0.0752 -0.3999
10992TIP3   OH254390   3.687   1.485  15.151  0.3776  0.6930 -0.1381
10992TIP3    H154391   3.634   1.469  15.073  0.6471 -0.3418 -0.1251
10992TIP3    H254392   3.752   1.415  15.150 -0.9672 -0.6754  2.2026
10993TIP3   OH254393   5.958   3.202  16.054  0.0141  0.2720 -0.3312
10993TIP3    H154394   6.015   3.246  15.991  1.3125  0.8392  1.1744
10993TIP3    H254395   5.877   3.253  16.053  0.9318  1.8063  0.2564
10994TIP3   OH254396   1.837   5.114   3.438 -0.8903  0.1853  0.4271
10994TIP3    H154397   1.766   5.178   3.446 -0.9057  0.2414 -0.1154
10994TIP3    H254398   1.910   5.152   3.486 -1.3593 -0.0795  1.3849
10995TIP3   OH254399   6.363   5.597   0.589  0.1344 -0.2712  0.6567
10995TIP3    H154400   6.408   5.584   0.672  1.1590 -0.5093  0.0801
10995TIP3    H254401   6.400   5.531   0.531 -0.4528 -0.0039 -0.0403
10996TIP3   OH254402   3.126   5.582   2.042  0.1975  0.6051 -0.5708
10996TIP3    H154403   3.133   5.574   1.947 -2.7150 -1.1709 -0.7653
10996TIP3    H254404   3.032   5.594   2.058  0.6820  1.5996  2.0728
10997TIP3   OH254405   4.288   2.742  12.269  0.5494  0.0953  0.2136
10997TIP3    H154406   4.313   2.758  12.178  0.4617 -1.6959 -0.1663
10997TIP3    H254407   4.275   2.647  12.274  1.1936  0.0555  2.2532
10998TIP3   OH254408   5.391   0.421   5.097 -0.2222 -0.1032  0.0310
10998TIP3    H154409   5.307   0.406   5.054 -0.5952  0.7106  0.4538
10998TIP3    H254410   5.370   0.474   5.173  0.6776  0.0965  0.1525
10999TIP3   OH254411   6.190   5.571   2.024  0.2147 -0.1318 -0.0439
10999TIP3    H154412   6.116   5.626   2.052  0.9807  0.3617  1.0878
10999TIP3    H254413   6.207   5.599   1.934 -0.1244  0.7090  0.1378
11000TIP3   OH254414   1.414   0.025   2.853 -0.1175 -0.3428 -0.1703
11000TIP3    H154415   1.322   0.047   2.868 -0.7739 -2.2763 -1.0108
11000TIP3    H254416   1.463   0.094   2.898 -1.9553 -0.0385  1.4872
11001TIP3   OH254417   1.469   4.464   1.314 -0.2673  0.0575  0.6458
11001TIP3    H154418   1.538   4.401   1.294 -0.6226  0.4002 -2.0157
11001TIP3    H254419   1.510   4.550   1.302 -0.0540  0.4218  3.3098
11002TIP3   OH254420   1.737   0.765   5.978  0.2271  0.3622 -0.0395
11002TIP3    H154421   1.788   0.813   6.043 -0.1248 -1.0684  1.3617
11002TIP3    H254422   1.803   0.724   5.921  0.8212 -1.9413  2.0903
11003TIP3   OH254423   6.435   6.657   2.329  0.0372 -0.1799  0.3789
11003TIP3    H154424   6.450   6.749   2.305  0.1614  0.2683  2.0182
11003TIP3    H254425   6.343   6.642   2.308  0.3170 -0.0700 -1.0209
11004TIP3   OH254426   4.345   3.037   5.908 -0.0545  0.2889 -0.2813
11004TIP3    H154427   4.277   3.052   5.843 -1.0822 -3.6405 -0.3723
11004TIP3    H254428   4.311   2.967   5.964  3.2897 -0.9099  0.5479
11005TIP3   OH254429   4.544   5.009   2.279  0.1035  0.4039 -0.0277
11005TIP3    H154430   4.532   5.085   2.337  1.2227  0.0684  0.6606
11005TIP3    H254431   4.634   4.982   2.293 -0.1163 -0.7272 -0.6821
11006TIP3   OH254432   2.682   1.035  11.040 -0.1781  0.5845 -0.0542
11006TIP3    H154433   2.672   1.068  10.951  0.3244  1.7437  0.3051
11006TIP3    H254434   2.754   0.972  11.035  0.0463  0.8714 -0.4116
11007TIP3   OH254435   3.214   3.448   0.148 -0.2701  0.0160 -0.7402
11007TIP3    H154436   3.230   3.429   0.240 -1.1122 -1.4439 -0.8542
11007TIP3    H254437   3.118   3.444   0.138 -0.2776  1.3016 -1.4617
11008TIP3   OH254438   3.191   5.140  13.669  0.0132  0.1570 -0.2903
11008TIP3    H154439   3.225   5.133  13.579 -0.8531  0.8130 -0.6861
11008TIP3    H254440   3.119   5.203  13.662 -0.1435  0.1190  0.8503
11009TIP3   OH254441   1.293   2.834  15.471 -0.0931  0.1059 -0.1526
11009TIP3    H154442   1.377   2.851  15.430  0.2460  0.0381  0.4955
11009TIP3    H254443   1.241   2.913  15.453  0.4220  0.5358  0.2107
11010TIP3   OH254444   3.423   3.709  15.724  0.0590 -1.1084  0.2385
11010TIP3    H154445   3.359   3.763  15.677  0.9974 -1.2418 -1.2335
11010TIP3    H254446   3.486   3.772  15.760  1.4907 -1.1750 -1.9827
11011TIP3   OH254447   3.778   2.572   5.454  0.3951  0.0138  0.0559
11011TIP3    H154448   3.776   2.477   5.467  1.0934 -0.3066 -1.8607
11011TIP3    H254449   3.759   2.583   5.361  1.1024  1.7129  0.0934
11012TIP3   OH254450   4.712   0.450  15.465  0.3284  0.2808 -0.2573
11012TIP3    H154451   4.617   0.446  15.474  0.3817 -0.5372  0.0253
11012TIP3    H254452   4.746   0.427  15.552  0.7857 -0.1490 -0.5449
11013TIP3   OH254453   2.954   0.279   3.160 -0.3632 -0.6928  0.1518
11013TIP3    H154454   3.015   0.320   3.221 -1.0409 -1.9897  1.7539
11013TIP3    H254455   2.998   0.199   3.131 -0.5099 -0.6456 -0.2120
11014TIP3   OH254456   6.098   2.797   5.067 -0.0503  0.6750  0.5802
11014TIP3    H154457   6.020   2.846   5.092 -1.2800 -0.6430 -0.4962
11014TIP3    H254458   6.073   2.750   4.987  1.6717 -0.2046  0.5034
11015TIP3   OH254459   3.409   4.948  14.888  0.1788 -0.0184 -0.4118
11015TIP3    H154460   3.475   4.937  14.820  0.4956 -0.7657  0.0077
11015TIP3    H254461   3.409   5.042  14.907 -0.8314  0.4266 -2.3335
11016TIP3   OH254462   5.108   6.161   0.683 -0.1868  0.0474 -0.1220
11016TIP3    H154463   5.129   6.069   0.698 -1.0912 -0.1263  0.1071
11016TIP3    H254464   5.188   6.197   0.644  0.1025 -0.8734 -0.4097
11017TIP3   OH254465   5.450   6.772  12.935  0.0124 -0.3336  0.0200
11017TIP3    H154466   5.373   6.718  12.918  0.8060 -1.0280 -1.5881
11017TIP3    H254467   5.461   6.824  12.855  0.0820  1.2343  0.9930
11018TIP3   OH254468   2.583   6.704  13.668  0.0908  0.1600 -0.0896
11018TIP3    H154469   2.541   6.623  13.640  1.6338 -0.5444 -0.4658
11018TIP3    H254470   2.608   6.747  13.587  0.1922  0.5312  0.1358
11019TIP3   OH254471   4.604   5.495   4.732 -0.2140 -0.1904  0.1294
11019TIP3    H154472   4.655   5.512   4.653  0.9833  1.5513  1.1875
11019TIP3    H254473   4.669   5.492   4.802 -1.4870  1.7108  1.4890
11020TIP3   OH254474   1.602   4.187   2.273  0.0147  0.0208 -0.1956
11020TIP3    H154475   1.625   4.157   2.185  0.6299  1.7653 -0.6789
11020TIP3    H254476   1.513   4.155   2.287 -0.7230  1.0702 -2.1360
11021TIP3   OH254477   5.073   6.690   4.058 -0.1434  0.1504  0.1734
11021TIP3    H154478   5.143   6.707   3.995  1.1131  0.6046  1.6193
11021TIP3    H254479   5.078   6.596   4.075 -1.6668 -0.3298 -1.6660
11022TIP3   OH254480   0.624   4.563  12.229  0.2966 -0.3720  0.1277
11022TIP3    H154481   0.704   4.540  12.182  0.1363  1.4755 -1.1220
11022TIP3    H254482   0.654   4.589  12.316  0.8390 -1.4879  0.2939
11023TIP3   OH254483   0.928   4.923  13.832  0.0642 -0.1692  0.3885
11023TIP3    H154484   0.939   5.013  13.802  1.8325  0.1437  1.8083
11023TIP3    H254485   0.852   4.926  13.890 -0.2611  0.2647 -0.0557
11024TIP3   OH254486   5.175   3.635   5.421  0.2811  0.3437  0.4888
11024TIP3    H154487   5.085   3.663   5.437  0.0025 -0.3982  0.2988
11024TIP3    H254488   5.225   3.716   5.418 -0.1705  0.6960  1.8132
11025TIP3   OH254489   2.261   3.689   2.589 -0.6768 -0.2981 -0.0209
11025TIP3    H154490   2.303   3.761   2.635 -0.4276 -0.4459 -0.0137
11025TIP3    H254491   2.325   3.618   2.592 -0.7205 -0.3593 -0.4549
11026TIP3   OH254492   2.545   2.750   4.728  0.3775  0.1148  0.4251
11026TIP3    H154493   2.612   2.797   4.777  0.7574  1.5636 -1.3600
11026TIP3    H254494   2.500   2.819   4.678 -0.6248 -1.1572 -0.4841
11027TIP3   OH254495   5.408   1.102   4.601 -0.2705 -0.1024  0.1044
11027TIP3    H154496   5.339   1.042   4.626 -2.5619  1.3743 -2.1499
11027TIP3    H254497   5.474   1.047   4.559 -1.0066 -1.3295  0.5132
11028TIP3   OH254498   0.371   1.033  10.834  0.0082 -0.4679 -0.1489
11028TIP3    H154499   0.412   1.050  10.748 -1.7817 -0.3699 -1.0264
11028TIP3    H254500   0.295   1.091  10.835 -0.5159 -1.1583  1.1354
11029TIP3   OH254501   1.291   1.993   3.911 -0.3947 -0.0870 -0.0062
11029TIP3    H154502   1.270   1.939   3.835 -0.6078  0.8456 -0.6241
11029TIP3    H254503   1.211   2.042   3.929  0.1268  0.8564 -0.1714
11030TIP3   OH254504   4.066   0.718  12.204 -0.0924 -0.0761  0.3773
11030TIP3    H154505   4.056   0.736  12.111  0.5365 -1.7562 -0.0575
11030TIP3    H254506   3.988   0.757  12.244 -0.2464  0.8913 -0.8041
11031TIP3   OH254507   6.744   2.205   4.284 -0.4355 -0.7585  0.0602
11031TIP3    H154508   6.670   2.238   4.336 -1.1106 -0.6690 -0.9383
11031TIP3    H254509   6.820   2.254   4.318 -0.9124 -0.4654  0.7377
11032TIP3   OH254510   1.939   0.361  13.928  0.5069  0.7416 -0.4466
11032TIP3    H154511   1.863   0.319  13.887  0.1013  2.2878 -1.3710
11032TIP3    H254512   1.901   0.422  13.991  1.0218  0.7376 -0.1291
11033TIP3   OH254513   2.736   6.326   2.522 -0.6710 -0.2190  0.6104
11033TIP3    H154514   2.760   6.244   2.564 -1.1456  0.3349  2.0310
11033TIP3    H254515   2.764   6.394   2.583 -1.0306  0.6451 -0.1512
11034TIP3   OH254516   1.215   3.160  12.828 -0.4988 -0.1397  0.0385
11034TIP3    H154517   1.162   3.224  12.876  0.5416  0.4876  0.3958
11034TIP3    H254518   1.232   3.203  12.744  2.1817  1.1711  1.1350
11035TIP3   OH254519   6.056   4.460   0.504 -0.2637  0.1082  0.1958
11035TIP3    H154520   6.090   4.547   0.525 -0.1075  0.7970 -2.4475
11035TIP3    H254521   6.127   4.400   0.526  0.5229  0.9174 -0.0562
11036TIP3   OH254522   3.415   2.072  14.645  0.2762 -0.2796  0.1037
11036TIP3    H154523   3.496   2.054  14.597  0.2277 -1.2322  0.3498
11036TIP3    H254524   3.345   2.054  14.582  0.1759 -2.5326  0.7595
11037TIP3   OH254525   3.763   3.359  12.935 -0.0737  0.2633 -0.4246
11037TIP3    H154526   3.739   3.295  13.001  0.2822  2.1646  1.6719
11037TIP3    H254527   3.685   3.367  12.880 -0.3919 -1.3271 -0.2495
11038TIP3   OH254528   4.966   6.057   5.321  0.2789  0.1121 -0.3302
11038TIP3    H154529   4.950   5.963   5.330  0.9511  0.0843  0.6235
11038TIP3    H254530   4.925   6.079   5.237 -1.1278 -0.7423  0.0985
11039TIP3   OH254531   3.264   2.705  11.653  0.0522  0.2048  0.0724
11039TIP3    H154532   3.196   2.661  11.704  0.2201 -0.4365 -0.2501
11039TIP3    H254533   3.346   2.684  11.697  0.2178 -0.4950 -0.5412
11040TIP3   OH254534   1.439   0.052   2.594 -0.2083  0.7600 -0.1620
11040TIP3    H154535   1.443   0.143   2.566 -0.5497  0.7306 -0.3233
11040TIP3    H254536   1.419   0.055   2.687  0.8210  0.8591  0.0653
11041TIP3   OH254537   6.310   1.490   0.291  0.1897  0.3166  0.2712
11041TIP3    H154538   6.380   1.541   0.250  0.5663 -1.2545 -1.1221
11041TIP3    H254539   6.333   1.399   0.273 -1.9636 -0.2521  0.2215
11042TIP3   OH254540   1.953   3.125  14.874 -0.4335 -0.4883  0.1273
11042TIP3    H154541   2.027   3.152  14.928  2.6845 -1.3163 -3.3000
11042TIP3    H254542   1.957   3.030  14.873 -0.2843 -0.4979 -1.5417
11043TIP3   OH254543   1.167   3.678  16.975 -0.0878  0.3621  0.0921
11043TIP3    H154544   1.191   3.768  16.954 -1.4208  0.8769  0.7060
11043TIP3    H254545   1.231   3.625  16.927  2.5737  1.6437  2.0050
11044TIP3   OH254546   3.646   0.609  14.130  0.5373  0.5217 -0.2360
11044TIP3    H154547   3.581   0.626  14.198  0.3532  0.2482 -0.3388
11044TIP3    H254548   3.600   0.553  14.067 -0.2439  3.0783 -2.0849
11045TIP3   OH254549   4.654   6.799   3.060 -0.0027  0.1700  0.5304
11045TIP3    H154550   4.662   6.868   2.994 -0.2409 -0.6645 -0.4065
11045TIP3    H254551   4.627   6.721   3.010 -1.5101 -0.1687  1.7946
11046TIP3   OH254552   3.042   5.408  12.021  0.0413  0.1899  0.3870
11046TIP3    H154553   3.012   5.427  11.932 -0.5198  0.9525  0.7256
11046TIP3    H254554   3.137   5.403  12.014 -0.0785 -1.3337 -0.5390
11047TIP3   OH254555   3.720   2.641   3.724 -0.2905 -0.2541  0.1500
11047TIP3    H154556   3.758   2.617   3.639 -0.0912 -0.5709  0.3267
11047TIP3    H254557   3.720   2.559   3.774  1.8470  0.3924  1.3280
11048TIP3   OH254558   0.634   6.521   5.367  0.4926 -0.3165 -0.3131
11048TIP3    H154559   0.590   6.560   5.292 -0.5392 -1.1088 -0.1385
11048TIP3    H254560   0.637   6.591   5.432 -1.0905 -0.4194 -0.1031
11049TIP3   OH254561   4.150   2.127   2.304 -0.4827  0.0608  0.0063
11049TIP3    H154562   4.168   2.070   2.379 -0.3721 -1.3745 -1.0670
11049TIP3    H254563   4.088   2.077   2.251 -0.8278  1.1978 -0.6982
11050TIP3   OH254564   2.919   1.588   5.028  0.0223  0.0045 -0.1048
11050TIP3    H154565   2.836   1.612   4.987 -0.1849  0.2641  0.4614
11050TIP3    H254566   2.905   1.604   5.121  1.7918  3.3923 -0.2537
11051TIP3   OH254567   0.078   4.978   0.354  0.2941  0.8286 -0.3119
11051TIP3    H154568  -0.013   4.985   0.381  0.7342  1.2016  1.1510
11051TIP3    H254569   0.094   5.058   0.304 -0.0838  0.9163 -0.2965
11052TIP3   OH254570   5.639   0.647   4.424 -0.6229 -0.1440 -0.1300
11052TIP3    H154571   5.614   0.607   4.508 -1.2473 -1.6548 -0.9946
11052TIP3    H254572   5.695   0.582   4.382 -1.2537  0.0846 -1.3798
11053TIP3   OH254573   0.585   3.272   3.197  0.3825  0.0728  0.0935
11053TIP3    H154574   0.620   3.361   3.194  0.4043  0.0447 -2.1445
11053TIP3    H254575   0.549   3.257   3.109 -0.3074 -1.8589  0.6492
11054TIP3   OH254576   4.369   3.527   1.661  0.5203  0.2242 -0.2133
11054TIP3    H154577   4.413   3.573   1.732  2.7066 -0.1516 -1.2540
11054TIP3    H254578   4.305   3.471   1.705  1.1510  0.7025  1.3764
11055TIP3   OH254579   2.255   4.975   5.085  0.3979 -0.0963 -0.4273
11055TIP3    H154580   2.166   4.993   5.055  0.1640 -0.2153  0.1795
11055TIP3    H254581   2.255   4.881   5.105  1.0767 -0.4107 -1.8004
11056TIP3   OH254582   0.017   4.848   4.405  0.7008  0.3078 -0.3935
11056TIP3    H154583   0.006   4.792   4.482  1.2757  0.4815 -0.1878
11056TIP3    H254584   0.054   4.789   4.339 -1.6021 -0.3704 -1.1967
11057TIP3   OH254585   5.238   1.653  13.470 -0.1421  1.2731  0.7340
11057TIP3    H154586   5.329   1.628  13.486  0.5326  2.7028 -0.5890
11057TIP3    H254587   5.201   1.667  13.557  0.0514 -1.9364  1.4515
11058TIP3   OH254588   0.193   3.884   3.108 -0.1268 -0.1822 -0.2510
11058TIP3    H154589   0.277   3.917   3.139 -0.1746  0.5242 -0.8542
11058TIP3    H254590   0.137   3.884   3.187  0.1557  0.2669 -0.0449
11059TIP3   OH254591   4.401   2.243   2.330 -0.2412  0.0499 -0.0711
11059TIP3    H154592   4.317   2.200   2.317  0.0235 -0.5856  0.2521
11059TIP3    H254593   4.379   2.328   2.369 -0.6573 -0.8341  1.7185
11060TIP3   OH254594   1.484   4.530  12.965  0.0990  0.6105 -0.2156
11060TIP3    H154595   1.529   4.476  13.029  0.9889 -0.8614 -1.9722
11060TIP3    H254596   1.417   4.577  13.015 -0.7559 -2.1330  1.4388
11061TIP3   OH254597   6.735   6.351   5.227  0.0761  0.1783  0.8794
11061TIP3    H154598   6.737   6.309   5.141 -1.1490  0.4697  0.6945
11061TIP3    H254599   6.649   6.392   5.232 -0.2498 -0.6251  2.6221
11062TIP3   OH254600   2.617   4.784  16.842  0.6135  0.1761 -0.7820
11062TIP3    H154601   2.703   4.743  16.837  0.5658  0.1378 -1.4227
11062TIP3    H254602   2.609   4.833  16.759  0.2472  0.6258 -0.4874
11063TIP3   OH254603   5.004   4.797   2.724 -0.1160  0.0712 -0.0673
11063TIP3    H154604   4.923   4.844   2.704  0.7466  1.6834  0.0791
11063TIP3    H254605   4.975   4.708   2.745 -1.8080  0.5204 -0.3428
11064TIP3   OH254606   3.121   0.950  15.969 -0.0018  0.0441  0.3013
11064TIP3    H154607   3.102   0.889  16.040 -0.4774 -1.4799 -1.0748
11064TIP3    H254608   3.088   0.906  15.890  1.3577  1.2474 -0.9922
11065TIP3   OH254609   0.489   1.955   3.106 -0.1002 -0.2650  0.4849
11065TIP3    H154610   0.495   1.949   3.201 -0.3640 -0.2165  0.5069
11065TIP3    H254611   0.395   1.959   3.089 -0.0375  1.4721  0.3356
11066TIP3   OH254612   3.731   4.282   0.945  0.0817 -0.0587  0.1958
11066TIP3    H154613   3.774   4.307   0.864  1.5704 -0.5740  0.8054
11066TIP3    H254614   3.637   4.288   0.925  0.3826  1.9004 -0.9156
11067TIP3   OH254615   5.255   4.713  16.304 -0.1602  0.5879  0.0358
11067TIP3    H154616   5.282   4.637  16.356  1.0637  0.2995 -0.9940
11067TIP3    H254617   5.161   4.720  16.321 -0.4461 -1.5618 -0.3402
11068TIP3   OH254618   3.469   6.513   1.074  0.0032 -0.5797 -0.1614
11068TIP3    H154619   3.472   6.439   1.013  0.0322 -0.2238 -0.6017
11068TIP3    H254620   3.470   6.590   1.017  2.1244 -0.1755  0.3419
11069TIP3   OH254621   4.097   4.219   3.648  0.0740 -0.1403 -0.1933
11069TIP3    H154622   4.159   4.162   3.601  1.4393  0.0161  1.3183
11069TIP3    H254623   4.152   4.272   3.706 -1.2095  2.2582 -1.0079
11070TIP3   OH254624   0.113   5.193  16.111  0.1333 -0.0860  0.5394
11070TIP3    H154625   0.041   5.246  16.078  1.2765  1.2644  0.1633
11070TIP3    H254626   0.164   5.169  16.034  0.7745  0.0060  0.9234
11071TIP3   OH254627   2.475   0.253  13.236 -0.2489  0.5371 -0.3452
11071TIP3    H154628   2.563   0.217  13.249 -1.2442 -1.8398  0.5641
11071TIP3    H254629   2.482   0.344  13.264  2.1521  0.7388 -1.3698
11072TIP3   OH254630   1.230   2.329  16.736 -0.1486  0.3446  0.4337
11072TIP3    H154631   1.271   2.242  16.738  0.1324  0.4721  0.2638
11072TIP3    H254632   1.159   2.323  16.799 -0.9936 -0.4501 -0.5445
11073TIP3   OH254633   0.006   3.434   1.985  0.2978  0.1671 -0.3030
11073TIP3    H154634  -0.090   3.437   1.976  0.2054  1.0113  0.8350
11073TIP3    H254635   0.032   3.525   1.997  1.4376  0.1459 -2.1484
11074TIP3   OH254636   6.048   0.163  14.093  0.1204 -0.0717 -0.0618
11074TIP3    H154637   6.108   0.104  14.137  0.2192 -0.8233 -1.1675
11074TIP3    H254638   5.962   0.120  14.098  0.1843 -0.3095 -0.8307
11075TIP3   OH254639   0.242   5.543  15.571  0.4112  0.2284  0.0457
11075TIP3    H154640   0.175   5.513  15.510  1.3079  0.6169 -1.1764
11075TIP3    H254641   0.307   5.586  15.516  0.6944  1.6346  1.4141
11076TIP3   OH254642   6.483   4.786  13.833 -0.0639 -0.1573 -0.4693
11076TIP3    H154643   6.472   4.880  13.845 -0.4018 -0.2994  0.4163
11076TIP3    H254644   6.570   4.777  13.793 -0.0905  0.5373 -0.6878
11077TIP3   OH254645   3.676   5.086  14.761 -0.0240 -0.0318 -0.2462
11077TIP3    H154646   3.629   5.168  14.745  0.5342  0.2847 -0.3032
11077TIP3    H254647   3.742   5.083  14.691 -0.9574 -1.2460 -1.1164
11078TIP3   OH254648   0.059   4.397   5.861  0.6973  0.3441 -0.3893
11078TIP3    H154649   0.064   4.350   5.944  1.7810  0.5447 -0.3366
11078TIP3    H254650   0.059   4.489   5.885  0.1544  0.4028 -0.5818
11079TIP3   OH254651   1.132   2.155  13.232 -0.3951  0.1203  0.1878
11079TIP3    H154652   1.089   2.233  13.267  0.5526  0.5517  0.4304
11079TIP3    H254653   1.169   2.111  13.308 -1.5281 -0.9653  0.1385
11080TIP3   OH254654   4.634   4.555  15.775  0.0267 -0.3446 -0.1912
11080TIP3    H154655   4.568   4.622  15.792 -1.0721 -1.5329  0.3988
11080TIP3    H254656   4.663   4.527  15.861  0.0606 -1.0096 -0.4139
11081TIP3   OH254657   3.652   1.569   2.615  0.3825  0.4438  0.6522
11081TIP3    H154658   3.740   1.585   2.647  0.8299 -0.9289  0.1956
11081TIP3    H254659   3.660   1.574   2.519 -0.2118  1.0789  0.6220
11082TIP3   OH254660   0.766   6.417  13.579  0.0097  0.0459 -0.3652
11082TIP3    H154661   0.776   6.428  13.484 -0.5119 -1.1609 -0.5848
11082TIP3    H254662   0.687   6.363  13.588  1.0778 -1.4319  0.6521
11083TIP3   OH254663   4.982   4.658   1.467  0.4007 -0.0375  0.0847
11083TIP3    H154664   5.077   4.658   1.480  0.2789  1.8548  1.4509
11083TIP3    H254665   4.954   4.569   1.491  1.5480  0.1425  2.4193
11084TIP3   OH254666   2.732   2.406  11.766  0.5071 -0.3518  0.5031
11084TIP3    H154667   2.738   2.494  11.804 -2.0616  0.1817 -0.0840
11084TIP3    H254668   2.786   2.352  11.823 -0.5865  0.9905  3.0211
11085TIP3   OH254669   1.544   6.721   3.220 -0.1824  0.3588  0.2827
11085TIP3    H154670   1.479   6.780   3.181 -1.6368 -1.2504  0.1536
11085TIP3    H254671   1.575   6.668   3.146 -2.3626 -2.1683  1.0071
11086TIP3   OH254672   5.317   4.429  13.284 -0.3366 -0.1441  0.6648
11086TIP3    H154673   5.347   4.360  13.343  0.5166 -0.6045 -0.2746
11086TIP3    H254674   5.253   4.386  13.227  1.4626 -0.6579 -1.0615
11087TIP3   OH254675   1.847   3.322   5.219  0.4158 -0.2871  0.1823
11087TIP3    H154676   1.788   3.310   5.293  0.3650 -0.7718  0.0658
11087TIP3    H254677   1.915   3.256   5.231  0.8646  0.1769  0.2431
11088TIP3   OH254678   3.676   6.026  11.707  0.0359  0.2506  0.5337
11088TIP3    H154679   3.596   6.015  11.656 -0.1939 -2.4993  1.3225
11088TIP3    H254680   3.703   5.936  11.729  2.0695  1.1896  2.2135
11089TIP3   OH254681   3.926   4.510  11.452  0.4836  0.3474  0.1426
11089TIP3    H154682   3.929   4.448  11.379  0.1067 -0.9568  1.1814
11089TIP3    H254683   3.835   4.540  11.455  0.3531 -0.0657  0.4316
11090TIP3   OH254684   1.717   1.940   1.129 -0.1119 -0.1508 -0.1314
11090TIP3    H154685   1.643   1.977   1.177 -2.6914 -2.9308 -1.5982
11090TIP3    H254686   1.713   1.981   1.043  1.1345  0.8526  0.2535
11091TIP3   OH254687   2.139   6.737   4.840  0.1697 -0.4180 -0.2864
11091TIP3    H154688   2.074   6.693   4.895 -0.9179  0.5350 -0.7457
11091TIP3    H254689   2.220   6.732   4.890 -0.1442 -2.0229  0.1141
11092TIP3   OH254690   6.086   0.570   4.646 -0.0293 -0.3575 -0.1885
11092TIP3    H154691   6.068   0.510   4.574 -0.9205  0.7669 -0.9486
11092TIP3    H254692   6.013   0.559   4.707  0.3129 -0.7354  0.1608
11093TIP3   OH254693   5.525   1.466   5.374 -0.6149 -0.4926  0.3770
11093TIP3    H154694   5.463   1.530   5.338 -0.3519 -0.4319  0.0279
11093TIP3    H254695   5.472   1.411   5.431 -1.2506 -1.1902 -0.8252
11094TIP3   OH254696   3.770   4.159   1.196 -0.2927  0.1975  0.3084
11094TIP3    H154697   3.769   4.238   1.250 -1.3631  1.2105 -1.1069
11094TIP3    H254698   3.763   4.192   1.106 -0.9256 -1.5157 -0.3046
11095TIP3   OH254699   0.042   4.438  15.961  0.0945 -0.1239  0.2288
11095TIP3    H154700   0.057   4.450  15.867  0.6694 -1.4030  0.1384
11095TIP3    H254701   0.017   4.525  15.992  1.1201  0.5987 -0.8722
11096TIP3   OH254702   3.191   5.568   1.775  0.0090  0.5379  0.4179
11096TIP3    H154703   3.272   5.520   1.789 -0.6145 -0.5942  0.2889
11096TIP3    H254704   3.208   5.625   1.701  0.4798 -0.2043 -0.0552
11097TIP3   OH254705   2.115   4.878   4.054  0.7838  0.4725 -0.1447
11097TIP3    H154706   2.036   4.932   4.055  0.2008 -0.1995 -2.7414
11097TIP3    H254707   2.083   4.789   4.041  1.9282  0.2332 -1.6422
11098TIP3   OH254708   6.022   6.238  16.485 -0.0330  0.2389 -0.5746
11098TIP3    H154709   5.972   6.234  16.566  0.0140 -1.0258 -0.5846
11098TIP3    H254710   6.104   6.192  16.506  0.2251  0.4258 -1.1626
11099TIP3   OH254711   1.078   5.846  17.011 -0.0002  0.3648 -0.0943
11099TIP3    H154712   1.021   5.829  16.936  0.2708  2.0725 -0.7195
11099TIP3    H254713   1.080   5.762  17.058 -2.2387 -0.0239 -0.5677
11100TIP3   OH254714   0.941   3.412   4.834  0.1312 -0.1352 -0.0655
11100TIP3    H154715   0.876   3.482   4.836  0.3912  0.1168 -0.2158
11100TIP3    H254716   1.025   3.458   4.826  0.3014 -0.4652 -0.2122
11101TIP3   OH254717   5.394   4.730   5.575  0.5832 -0.1293  0.4566
11101TIP3    H154718   5.485   4.705   5.566  0.1723 -1.7101  0.4440
11101TIP3    H254719   5.353   4.659   5.624 -0.5575  0.7510  0.8373
11102TIP3   OH254720   5.381   5.032  12.419  0.0257 -0.1837  0.0212
11102TIP3    H154721   5.434   5.039  12.339 -2.1389  0.9106 -1.4170
11102TIP3    H254722   5.425   5.088  12.482  0.0702  1.5160 -1.4505
11103TIP3   OH254723   3.540   4.515  15.211  0.0035 -0.8863  0.5885
11103TIP3    H154724   3.490   4.561  15.278 -1.4308 -1.5127 -0.0167
11103TIP3    H254725   3.560   4.583  15.145 -0.2541 -0.6875  0.7164
11104TIP3   OH254726   4.415   2.394  13.642  0.1841  0.0804 -0.3823
11104TIP3    H154727   4.330   2.420  13.676  0.3692 -1.4322  1.4026
11104TIP3    H254728   4.396   2.336  13.569 -0.2658  1.1848 -1.1621
11105TIP3   OH254729   1.047   4.489   0.581  0.5165 -0.7353  0.9836
11105TIP3    H154730   0.986   4.562   0.588  0.0741 -1.2475  2.9605
11105TIP3    H254731   1.006   4.428   0.519 -1.2196 -1.2462  2.5536
11106TIP3   OH254732   2.821   3.854  12.043 -0.3594 -0.1791  0.2185
11106TIP3    H154733   2.895   3.817  11.994  1.2287  1.3715  1.3362
11106TIP3    H254734   2.815   3.944  12.013 -0.5412  0.2677  1.5662
11107TIP3   OH254735   6.110   2.106  15.656  0.7647  0.4011  0.5038
11107TIP3    H154736   6.149   2.148  15.733  1.3357  1.1464 -0.1691
11107TIP3    H254737   6.096   2.178  15.595 -0.7223 -0.0113  0.3190
11108TIP3   OH254738   0.209   2.658   1.469 -0.0004 -0.3481  0.4236
11108TIP3    H154739   0.229   2.612   1.551 -1.3397 -0.2353  0.8324
11108TIP3    H254740   0.249   2.744   1.480 -0.1400 -0.3457  0.9576
11109TIP3   OH254741   0.181   4.956   2.185 -0.3385 -0.5373 -0.5077
11109TIP3    H154742   0.221   5.005   2.113  1.4341 -0.7869  0.2470
11109TIP3    H254743   0.096   4.997   2.198 -1.5195 -1.5863 -3.8757
11110TIP3   OH254744   1.419   4.966   2.377  0.1377 -0.3716  0.2780
11110TIP3    H154745   1.324   4.964   2.372  0.1525 -1.4610  0.2192
11110TIP3    H254746   1.439   5.037   2.437 -0.6991  0.0307  0.0886
11111TIP3   OH254747   4.819   0.843  11.687 -0.1720  0.4958  0.8121
11111TIP3    H154748   4.811   0.934  11.659 -0.3125  0.2205 -0.0784
11111TIP3    H254749   4.757   0.796  11.632 -0.2178 -0.1190  1.3795
11112TIP3   OH254750   6.576   0.006  16.440 -0.4111  0.1041 -0.4527
11112TIP3    H154751   6.607   0.011  16.349 -0.2232 -0.6070 -0.4351
11112TIP3    H254752   6.611   0.084  16.481 -1.5402  1.0912 -1.3027
11113TIP3   OH254753   4.056   2.642   6.334  0.1596 -0.2776  0.2993
11113TIP3    H154754   3.990   2.637   6.404 -0.0139  0.0310  0.1623
11113TIP3    H254755   4.137   2.614   6.376  0.6671  2.5064  1.4355
11114TIP3   OH254756   1.757   5.905   2.950  0.3600 -0.7217  0.0837
11114TIP3    H154757   1.798   5.941   3.029  0.2700  0.5371 -0.4363
11114TIP3    H254758   1.667   5.887   2.976  0.0312  0.6964 -0.0112
11115TIP3   OH254759   1.833   2.213  12.087 -0.1583 -0.7654  0.2444
11115TIP3    H154760   1.865   2.295  12.051 -0.9715 -0.3537  0.4506
11115TIP3    H254761   1.854   2.148  12.020  2.0411 -0.7142  0.7910
11116TIP3   OH254762   2.396   5.610  12.525  0.5305 -0.4267 -0.6624
11116TIP3    H154763   2.372   5.699  12.550 -1.2323 -1.1974  0.5747
11116TIP3    H254764   2.476   5.592  12.574  0.6108  0.2797 -0.5235
11117TIP3   OH254765   4.148   5.351   4.967  0.1784  0.6663 -0.0631
11117TIP3    H154766   4.077   5.287   4.967  0.0548  0.8018  0.4060
11117TIP3    H254767   4.193   5.337   4.884  0.2707 -0.1666  0.1180
11118TIP3   OH254768   0.534   0.582   2.937 -0.0854 -0.1872  0.1462
11118TIP3    H154769   0.612   0.527   2.938  0.8307  0.9999  2.4887
11118TIP3    H254770   0.463   0.524   2.908  1.7950 -0.9559 -3.4988
11119TIP3   OH254771   6.133   3.351   1.899  0.2443 -0.1378 -0.3231
11119TIP3    H154772   6.205   3.310   1.852  0.0288 -0.6239 -0.2373
11119TIP3    H254773   6.175   3.417   1.955  0.6490 -0.5901 -0.0903
11120TIP3   OH254774   0.930   5.193  15.676  0.0740 -0.4167  0.0884
11120TIP3    H154775   1.017   5.209  15.712  0.0304  1.4503 -0.5083
11120TIP3    H254776   0.886   5.139  15.741  1.2283 -0.2515  1.0297
11121TIP3   OH254777   3.937   0.399  15.733  0.1906  0.2198 -0.1114
11121TIP3    H154778   3.922   0.467  15.799 -0.6085  0.1188 -0.1783
11121TIP3    H254779   3.888   0.429  15.657  1.7216  0.7196 -0.9382
11122TIP3   OH254780   4.740   5.527  15.497  0.4042 -0.1970 -0.1010
11122TIP3    H154781   4.815   5.587  15.490  0.1638  0.0753 -0.4088
11122TIP3    H254782   4.669   5.574  15.454  0.5114 -1.1970 -1.4382
11123TIP3   OH254783   3.255   1.107  14.727  0.4747  0.0842  0.6589
11123TIP3    H154784   3.316   1.156  14.782  0.1222  0.4656  0.7146
11123TIP3    H254785   3.170   1.148  14.743 -0.2237 -1.8187  2.2776
11124TIP3   OH254786   0.830   1.790   2.493 -0.2524  0.0271  0.1447
11124TIP3    H154787   0.848   1.738   2.571 -0.5870 -1.4909 -0.7512
11124TIP3    H254788   0.855   1.879   2.517  1.1884 -0.6837  1.4447
11125TIP3   OH254789   5.255   3.821   1.395  0.0678  0.7647  0.3100
11125TIP3    H154790   5.168   3.784   1.407  0.2977  0.4354  1.0511
11125TIP3    H254791   5.244   3.886   1.326 -0.0272 -1.7384 -2.1850
11126TIP3   OH254792   4.620   2.992   2.496  0.4405 -0.4919 -0.2553
11126TIP3    H154793   4.580   3.065   2.544  3.5263  1.2293 -0.0540
11126TIP3    H254794   4.653   2.934   2.563  1.0289 -0.2732 -0.3536
11127TIP3   OH254795   4.865   1.707  15.565  0.2297 -0.2858 -0.5142
11127TIP3    H154796   4.804   1.634  15.554 -0.7072  0.0526  1.7858
11127TIP3    H254797   4.921   1.680  15.638  1.8350  0.0921 -1.5575
11128TIP3   OH254798   1.007   3.532  13.628 -0.3072 -0.0654 -0.1363
11128TIP3    H154799   1.078   3.594  13.608  1.5739 -2.2967 -0.8815
11128TIP3    H254800   0.985   3.549  13.719  1.1829  0.7435  0.0985
11129TIP3   OH254801   4.990   5.603   3.333  0.3023 -0.3354  0.5053
11129TIP3    H154802   5.018   5.632   3.420 -1.7478  2.2697  0.4289
11129TIP3    H254803   4.999   5.681   3.279 -1.8386 -0.8957 -0.7516
11130TIP3   OH254804   6.442   3.378   1.623  0.1382  0.1670  0.0776
11130TIP3    H154805   6.533   3.405   1.616  0.3372 -0.5673 -0.1728
11130TIP3    H254806   6.401   3.449   1.674  0.8227  0.5335  0.1397
11131TIP3   OH254807   1.939   4.183   3.922 -0.1895  0.1416 -0.4077
11131TIP3    H154808   1.883   4.148   3.852 -0.6331  2.1779 -1.1491
11131TIP3    H254809   1.912   4.275   3.930 -0.8738 -0.2599  3.2001
11132TIP3   OH254810   6.088   3.477  10.477 -0.3016  0.0978  0.7230
11132TIP3    H154811   6.055   3.555  10.432  0.5466  1.5338  2.4879
11132TIP3    H254812   6.091   3.502  10.569  0.5458 -1.8454  1.2569
11133TIP3   OH254813   1.000   6.547  16.943 -0.0562 -0.0446  0.1348
11133TIP3    H154814   1.009   6.557  17.038  1.5536 -1.6469  0.1886
11133TIP3    H254815   1.044   6.624  16.907  0.2723  0.0211  0.6627
11134TIP3   OH254816   5.043   4.482  12.053 -0.1326 -0.8949 -0.1641
11134TIP3    H154817   5.006   4.434  12.126  0.1400 -0.0473  0.5437
11134TIP3    H254818   5.072   4.565  12.090  0.3265 -0.5865 -1.1627
11135TIP3   OH254819   2.794   5.585  13.979 -0.5464  0.0157  0.3951
11135TIP3    H154820   2.732   5.645  14.020  0.2237  1.6664 -0.7346
11135TIP3    H254821   2.741   5.529  13.923 -1.0260  1.6141 -0.8026
11136TIP3   OH254822   1.843   0.946   1.827  0.4282 -0.1681 -0.0176
11136TIP3    H154823   1.756   0.954   1.868 -0.5140 -3.5159 -1.0162
11136TIP3    H254824   1.890   0.884   1.883  1.2859 -0.2153 -0.7685
11137TIP3   OH254825   4.696   1.772  13.320  0.0650 -0.1631 -0.2274
11137TIP3    H154826   4.703   1.789  13.226  0.8695 -0.1095 -0.1648
11137TIP3    H254827   4.733   1.850  13.361  0.5739 -0.5839  0.1196
11138TIP3   OH254828   6.017   4.379   0.243 -0.0656 -0.5162 -0.0668
11138TIP3    H154829   6.002   4.417   0.330 -1.4211 -2.4098  0.5999
11138TIP3    H254830   6.111   4.384   0.230  0.2270 -0.6723  1.7551
11139TIP3   OH254831   3.841   0.477   1.708  0.8870  0.2640 -0.3295
11139TIP3    H154832   3.849   0.423   1.629 -2.0017  0.4733 -0.8742
11139TIP3    H254833   3.891   0.556   1.688  1.9801 -0.5810 -1.0633
11140TIP3   OH254834   4.782   6.554  15.249 -0.2731 -0.2932  0.3028
11140TIP3    H154835   4.820   6.530  15.165  2.9835  0.2292  1.4926
11140TIP3    H254836   4.761   6.647  15.240  1.5007  0.1632  0.4633
11141TIP3   OH254837   1.270   1.911   0.518 -0.2914 -0.1764  0.1094
11141TIP3    H154838   1.301   1.995   0.486  1.6138 -0.2479  1.6138
11141TIP3    H254839   1.222   1.874   0.444  0.5909  1.3217 -1.2800
11142TIP3   OH254840   5.245   0.252  11.067 -0.1237 -0.6241 -0.6205
11142TIP3    H154841   5.269   0.297  11.147 -2.9515 -0.3009  0.1503
11142TIP3    H254842   5.247   0.320  10.999 -0.9408 -0.0995 -0.1416
11143TIP3   OH254843   5.028   2.367  11.217 -0.1506  0.1626 -0.4011
11143TIP3    H154844   5.004   2.454  11.247 -1.0552  0.8849 -2.9885
11143TIP3    H254845   5.119   2.374  11.190 -0.3621  0.4395 -1.0466
11144TIP3   OH254846   6.272   3.616   1.965 -0.0883 -0.3953 -0.2457
11144TIP3    H154847   6.290   3.669   2.042 -0.3043 -0.9446  0.1899
11144TIP3    H254848   6.185   3.643   1.937 -0.1832 -0.4889 -0.0444
11145TIP3   OH254849   3.074   3.419   1.843 -0.3043 -0.4081 -0.5146
11145TIP3    H154850   3.142   3.474   1.804  1.3000 -1.9579 -0.0568
11145TIP3    H254851   2.996   3.437   1.791  1.4872 -1.7848 -4.0692
11146TIP3   OH254852   2.228   3.639   5.914 -0.1391 -0.8408 -0.0642
11146TIP3    H154853   2.195   3.669   5.999 -2.1882  0.7126 -1.2975
11146TIP3    H254854   2.171   3.566   5.891 -0.6943 -0.1838 -0.8183
11147TIP3   OH254855   3.697   6.131  16.483 -0.5739 -0.6370 -0.7616
11147TIP3    H154856   3.726   6.188  16.412 -1.7185 -2.6145 -2.9253
11147TIP3    H254857   3.773   6.078  16.504  0.1052  0.6966  0.3688
11148TIP3   OH254858   1.902   6.622  12.805  0.1203  0.3215  0.2020
11148TIP3    H154859   1.985   6.663  12.780 -0.4957  1.4136 -0.1372
11148TIP3    H254860   1.893   6.642  12.898  0.1165  0.4252  0.1793
11149TIP3   OH254861   4.579   0.900  12.770  0.0420  0.5398  0.4786
11149TIP3    H154862   4.595   0.815  12.729 -1.1632  1.1108 -1.2846
11149TIP3    H254863   4.666   0.930  12.797  0.6169 -0.7434  0.1217
11150TIP3   OH254864   3.840   1.229  16.343  0.5029 -0.1561  0.3269
11150TIP3    H154865   3.895   1.307  16.343 -0.8644  0.8602  1.4566
11150TIP3    H254866   3.758   1.257  16.302  0.2315 -1.1972  0.1226
11151TIP3   OH254867   0.272   4.855  11.089  0.0116  0.2218 -0.0708
11151TIP3    H154868   0.279   4.867  10.994 -1.0595  0.7865 -0.0950
11151TIP3    H254869   0.345   4.797  11.111 -0.3340 -0.7699 -1.3966
11152TIP3   OH254870   6.139   2.889   3.777 -0.1181 -0.0150  0.5103
11152TIP3    H154871   6.132   2.857   3.867  2.0079  1.0079  1.0961
11152TIP3    H254872   6.102   2.818   3.724 -1.6717 -0.5213  2.1580
11153TIP3   OH254873   0.695   0.613   4.787  0.0662  0.0387  0.6633
11153TIP3    H154874   0.751   0.540   4.813  0.4428  0.1669  0.2284
11153TIP3    H254875   0.704   0.677   4.857  1.1054  0.4019  0.2153
11154TIP3   OH254876   2.828   4.867  16.488  0.2219 -0.4291  0.0726
11154TIP3    H154877   2.857   4.913  16.409 -0.5966  2.1334  1.1564
11154TIP3    H254878   2.794   4.784  16.456  1.1629 -0.0465 -2.1020
11155TIP3   OH254879   4.211   4.033  16.724  0.3027  0.0962 -0.3850
11155TIP3    H154880   4.124   4.058  16.692  0.3285  0.6870 -0.0228
11155TIP3    H254881   4.213   4.064  16.815  0.9898  0.3550 -0.4771
11156TIP3   OH254882   5.023   1.221   5.634 -0.2739 -0.1816  0.0732
11156TIP3    H154883   4.998   1.293   5.693 -1.0216 -2.1288  2.2798
11156TIP3    H254884   4.943   1.198   5.589 -0.4751 -0.7630  0.7067
11157TIP3   OH254885   0.926   2.371   4.300  0.3280  0.1637 -0.2925
11157TIP3    H154886   0.872   2.442   4.268 -2.0878 -1.9359 -1.1739
11157TIP3    H254887   0.871   2.325   4.363  0.2170 -3.1581 -2.5776
11158TIP3   OH254888   6.145   1.221   2.496 -0.3934  0.2946 -0.3233
11158TIP3    H154889   6.149   1.189   2.406 -1.7630 -0.3188 -0.1988
11158TIP3    H254890   6.103   1.306   2.489  1.5100  1.2719 -0.4567
11159TIP3   OH254891   5.294   3.227   0.023 -0.1369 -0.3573  0.1283
11159TIP3    H154892   5.387   3.250   0.029 -0.2496  0.1126  0.0727
11159TIP3    H254893   5.260   3.244   0.111 -0.6680  1.6686 -0.4116
11160TIP3   OH254894   2.282   3.290  13.175 -0.2119  0.1797 -0.3807
11160TIP3    H154895   2.196   3.323  13.199  0.0131  1.5721 -1.3910
11160TIP3    H254896   2.313   3.243  13.253 -1.4563  0.5141  0.3259
11161TIP3   OH254897   6.517   4.156  16.031  0.1950  0.1088  0.0586
11161TIP3    H154898   6.547   4.211  15.959  0.5477  0.7788  0.7091
11161TIP3    H254899   6.431   4.192  16.054  0.5759  0.6299  0.7135
11162TIP3   OH254900   2.096   3.018  13.679  0.1287  0.3387  1.0117
11162TIP3    H154901   2.140   2.936  13.656  1.1028  0.9978  0.4856
11162TIP3    H254902   2.062   3.051  13.597 -1.4656 -0.1941  1.4199
11163TIP3   OH254903   1.251   6.570   3.404 -0.1003  0.1104  0.6060
11163TIP3    H154904   1.342   6.544   3.418 -0.0563 -0.1259 -0.0842
11163TIP3    H254905   1.199   6.499   3.442 -0.0266  0.9492  2.3579
11164TIP3   OH254906   5.404   0.383  13.187  0.2631 -0.2655  0.3874
11164TIP3    H154907   5.440   0.298  13.158 -1.0748 -0.8635  0.4228
11164TIP3    H254908   5.412   0.381  13.283  0.7228 -0.1121  0.3564
11165TIP3   OH254909   6.529   2.395   2.702  0.1534 -0.0631  0.3121
11165TIP3    H154910   6.479   2.378   2.622 -0.5678 -1.1326  0.9575
11165TIP3    H254911   6.511   2.486   2.723  0.5428  0.2975 -0.8721
11166TIP3   OH254912   2.933   0.848  11.944  0.1918 -0.3006 -0.5302
11166TIP3    H154913   2.890   0.775  11.900 -1.2480  1.1246 -1.6316
11166TIP3    H254914   3.017   0.813  11.973 -0.1535 -2.1812 -1.6269
11167TIP3   OH254915   5.603   4.702  11.375  0.4889 -0.0331  0.1790
11167TIP3    H154916   5.543   4.775  11.364  2.1916  1.4494  0.2221
11167TIP3    H254917   5.550   4.632  11.413 -1.1242  1.2618  0.4094
11168TIP3   OH254918   0.424   4.933   3.052 -0.5140  0.1848  0.0119
11168TIP3    H154919   0.394   4.913   3.140 -0.2021  0.0429  0.0862
11168TIP3    H254920   0.397   5.024   3.038 -0.5447  0.2154  0.2590
11169TIP3   OH254921   6.452   2.293   4.756  0.4070  0.2361  0.2093
11169TIP3    H154922   6.412   2.242   4.826 -1.6661  0.4861 -0.7242
11169TIP3    H254923   6.510   2.231   4.711  2.2288  0.2319  2.4297
11170TIP3   OH254924   0.627   4.384   2.674  0.1257  0.4158 -0.2298
11170TIP3    H154925   0.702   4.414   2.726 -0.1994  0.4786  0.1996
11170TIP3    H254926   0.621   4.290   2.693  1.0218  0.0797 -1.4237
11171TIP3   OH254927   5.164   2.585   1.274 -0.4616 -0.4919  0.4053
11171TIP3    H154928   5.074   2.552   1.269 -0.7938  0.1903  1.4919
11171TIP3    H254929   5.182   2.590   1.368  0.5065 -0.0773  0.2022
11172TIP3   OH254930   5.421   2.762   3.250  0.0127  0.2528 -0.2331
11172TIP3    H154931   5.350   2.699   3.239  0.5784 -0.6284  0.9111
11172TIP3    H254932   5.485   2.738   3.183 -0.0012 -0.0788 -0.1308
11173TIP3   OH254933   6.415   0.059   1.031 -0.5184 -0.4830  1.2030
11173TIP3    H154934   6.347   0.036   0.968  1.3985 -1.0811 -0.7917
11173TIP3    H254935   6.437  -0.024   1.073  0.0576 -0.6092  0.6701
11174TIP3   OH254936   5.107   5.090  13.851  0.0754 -0.6636 -0.7255
11174TIP3    H154937   5.053   5.051  13.920  0.8411  0.2836  0.4477
11174TIP3    H254938   5.059   5.072  13.771 -0.2316 -2.9141 -0.1256
11175TIP3   OH254939   0.542   5.038   4.647 -0.1888 -0.5028 -0.3659
11175TIP3    H154940   0.516   5.044   4.739  1.6994  0.9327  0.1255
11175TIP3    H254941   0.516   4.949   4.621 -0.5953 -1.0049  1.6014
11176TIP3   OH254942   2.436   4.720  14.460  0.1634  0.6092 -0.2942
11176TIP3    H154943   2.424   4.634  14.500 -0.2682  1.0896  0.6393
11176TIP3    H254944   2.351   4.741  14.420  1.0647 -0.6613 -3.1895
11177TIP3   OH254945   0.131   5.378  12.920  0.2487 -0.1294 -0.1728
11177TIP3    H154946   0.149   5.319  12.848 -0.3885  0.8892 -1.2159
11177TIP3    H254947   0.054   5.427  12.892  0.1917  0.5425  1.0566
11178TIP3   OH254948   6.569   4.757   1.478  0.5099 -0.3399 -0.0181
11178TIP3    H154949   6.546   4.672   1.441  1.1079 -0.2809 -0.5465
11178TIP3    H254950   6.527   4.758   1.564 -0.7876 -0.5318 -0.6306
11179TIP3   OH254951   2.975   0.320  11.067 -0.0096  0.2990  0.0268
11179TIP3    H154952   2.934   0.346  10.985  1.2196  0.0095 -0.7099
11179TIP3    H254953   2.934   0.375  11.133 -1.2969  0.2694 -0.7109
11180TIP3   OH254954   4.776   0.746  11.343  0.3941 -0.1658 -0.1408
11180TIP3    H154955   4.737   0.789  11.267 -1.8539  0.0421  1.0133
11180TIP3    H254956   4.704   0.742  11.407  2.1740 -0.2864  1.9845
11181TIP3   OH254957   1.947   5.327  11.008 -0.1056  0.2785  0.0335
11181TIP3    H154958   1.953   5.392  11.078  1.7436 -1.0181  1.1314
11181TIP3    H254959   1.987   5.371  10.932  1.6375  0.2869  0.9096
11182TIP3   OH254960   0.177   0.814   1.430  0.0261  0.0933  0.6048
11182TIP3    H154961   0.260   0.849   1.461 -0.6087 -0.6642  3.4486
11182TIP3    H254962   0.124   0.891   1.409  0.7153  0.6371  0.8622
11183TIP3   OH254963   3.899   1.899  11.863 -0.4994  0.4752 -0.6875
11183TIP3    H154964   3.843   1.956  11.916 -0.9626 -0.7181  0.1499
11183TIP3    H254965   3.924   1.953  11.788 -0.4461  1.9647  0.3598
11184TIP3   OH254966   5.784   3.236  12.381  0.1658  0.8007  0.1554
11184TIP3    H154967   5.858   3.228  12.441  1.2935  0.1238 -1.2762
11184TIP3    H254968   5.731   3.159  12.399  1.9231 -0.8925 -1.5358
11185TIP3   OH254969   0.967   4.952  16.288  0.1817 -0.2238  0.5461
11185TIP3    H154970   0.900   5.014  16.317  0.5742 -0.0467  1.1044
11185TIP3    H254971   1.024   4.942  16.364  0.3548 -0.9600  0.3280
11186TIP3   OH254972   2.911   2.408   5.440  0.4134  0.2770 -0.6516
11186TIP3    H154973   2.929   2.479   5.502  1.0228  0.3241 -0.8767
11186TIP3    H254974   2.829   2.435   5.397  0.3299  0.5576 -0.3268
11187TIP3   OH254975   0.497   0.899  13.282 -0.1225  0.6306 -0.2315
11187TIP3    H154976   0.504   0.959  13.357  2.2333  0.6131 -0.3381
11187TIP3    H254977   0.485   0.813  13.322  2.2884  0.4492  0.3011
11188TIP3   OH254978   5.593   6.393   3.918  0.1058  1.0843 -0.3281
11188TIP3    H154979   5.661   6.420   3.857  0.7374  0.1492 -0.0504
11188TIP3    H254980   5.557   6.312   3.880  0.7553  0.2828  0.6929
11189TIP3   OH254981   6.557   6.049  15.072 -0.1240  0.0188 -0.4802
11189TIP3    H154982   6.636   5.995  15.074  0.7453  1.2282  1.8197
11189TIP3    H254983   6.587   6.135  15.042 -0.5934  0.4353  0.2128
11190TIP3   OH254984   4.672   0.974   1.377 -0.5330 -0.5184  0.1671
11190TIP3    H154985   4.717   1.058   1.383 -0.4679 -0.6551  1.8605
11190TIP3    H254986   4.633   0.974   1.289  0.9514  0.5064 -0.5271
11191TIP3   OH254987   6.317   0.174   2.059  0.1722  0.0811  0.0959
11191TIP3    H154988   6.262   0.096   2.059 -1.2186  1.0299  0.1129
11191TIP3    H254989   6.344   0.183   2.151  0.9907 -0.7965 -0.0419
11192TIP3   OH254990   0.201   5.993  11.344 -0.0500  0.5218 -0.3469
11192TIP3    H154991   0.112   5.968  11.320  0.1000  0.2036 -0.5765
11192TIP3    H254992   0.252   5.912  11.335  0.8700  1.3130 -3.1291
11193TIP3   OH254993   2.080   3.260   4.558 -0.0848 -0.5688 -0.1326
11193TIP3    H154994   2.105   3.189   4.499 -1.1639 -0.3097 -0.9551
11193TIP3    H254995   1.998   3.230   4.597  0.3032 -0.4635  0.7738
11194TIP3   OH254996   2.073   6.336   2.825 -0.2454  0.4832 -0.1284
11194TIP3    H154997   2.162   6.369   2.815 -0.4401  0.6747 -1.3250
11194TIP3    H254998   2.075   6.249   2.785 -0.0967 -0.4375  1.7256
11195TIP3   OH254999   1.352   4.941   2.640 -0.8460 -0.4531  0.2260
11195TIP3    H155000   1.417   4.880   2.675 -1.1156 -1.1662 -0.4883
11195TIP3    H255001   1.273   4.924   2.691 -1.2233 -1.4561 -0.6481
11196TIP3   OH255002   2.906   5.714  13.164  0.0753  0.4887 -0.2179
11196TIP3    H155003   2.833   5.656  13.185  0.2934  0.3820  0.2754
11196TIP3    H255004   2.864   5.795  13.134 -0.3324  1.1922  2.0504
11197TIP3   OH255005   5.027   2.891  11.388  0.3020  0.1127  0.7058
11197TIP3    H155006   5.111   2.870  11.428  1.0161 -1.2284 -1.3532
11197TIP3    H255007   4.991   2.807  11.361  0.2637  0.9418 -2.1108
11198TIP3   OH255008   5.768   4.894   3.171  0.0142 -0.3751 -0.6709
11198TIP3    H155009   5.716   4.814   3.178 -1.6805  0.7401  0.0569
11198TIP3    H255010   5.747   4.944   3.250  2.1760  0.1642 -0.3828
11199TIP3   OH255011   1.288   0.581  16.990  0.5664  0.0070  0.7421
11199TIP3    H155012   1.299   0.617  16.902  1.0934 -1.2467  0.2760
11199TIP3    H255013   1.227   0.508  16.979 -0.2700  0.5457  1.6233
11200TIP3   OH255014   6.730   1.761  13.396  0.2840 -0.0481 -1.0917
11200TIP3    H155015   6.725   1.775  13.302  0.7512 -1.0373 -1.2782
11200TIP3    H255016   6.663   1.694  13.414  0.7081 -0.4198 -0.8547
11201TIP3   OH255017   0.375   5.492   0.216 -0.1164  0.7082 -0.7232
11201TIP3    H155018   0.301   5.496   0.278  0.8464 -2.3458  0.8243
11201TIP3    H255019   0.359   5.413   0.165  0.9913  1.2346 -1.9429
11202TIP3   OH255020   3.727   2.207   3.121 -0.0350 -0.2010 -0.0807
11202TIP3    H155021   3.632   2.199   3.114 -0.0695  0.3309 -0.3094
11202TIP3    H255022   3.755   2.130   3.171 -0.1720 -2.3935 -3.0894
11203TIP3   OH255023   5.710   3.993   5.575 -0.1154  0.0396 -0.0586
11203TIP3    H155024   5.729   4.086   5.560 -0.1741  0.0673  0.0386
11203TIP3    H255025   5.790   3.948   5.548 -0.3763  0.0507 -0.8780
11204TIP3   OH255026   0.884   1.707   0.636 -0.4414  0.0349  0.3398
11204TIP3    H155027   0.953   1.644   0.617  0.6547  1.4292 -0.4231
11204TIP3    H255028   0.803   1.655   0.632  0.4172 -1.3082 -0.3159
11205TIP3   OH255029   6.683   2.300  12.036  0.2652 -0.5897 -0.3547
11205TIP3    H155030   6.692   2.220  12.088  0.9890  0.0846  0.5953
11205TIP3    H255031   6.706   2.273  11.947  0.6192 -1.4099 -0.0271
11206TIP3   OH255032   1.659   4.195  14.557  0.0038  0.1805  0.0406
11206TIP3    H155033   1.733   4.136  14.569 -0.4336 -0.5175 -0.5650
11206TIP3    H255034   1.589   4.158  14.611 -0.2717  0.1392 -0.3368
11207TIP3   OH255035   2.949   2.136  11.227 -0.2533 -0.1346  0.5016
11207TIP3    H155036   2.902   2.188  11.292  1.8422 -1.5562  3.4055
11207TIP3    H255037   3.007   2.199  11.184 -0.2260  0.5428  1.4858
11208TIP3   OH255038   2.475   3.741  13.605  0.0355  0.5764  0.6144
11208TIP3    H155039   2.489   3.647  13.596 -0.3556  0.6910 -2.4906
11208TIP3    H255040   2.385   3.749  13.636 -0.7164 -0.1556 -1.1921
11209TIP3   OH255041   2.957   0.162   0.685  0.1087 -0.4879  0.6757
11209TIP3    H155042   3.001   0.077   0.682 -2.4181 -1.9626  1.8587
11209TIP3    H255043   2.882   0.153   0.625 -0.6674  0.6049  1.4366
11210TIP3   OH255044   2.530   3.418  10.916  0.4904 -0.5717  0.2416
11210TIP3    H155045   2.561   3.504  10.943  1.2699 -0.8373  0.2101
11210TIP3    H255046   2.495   3.379  10.996  1.4798 -0.7946  0.5702
11211TIP3   OH255047   6.014   3.224   4.240  0.3746  0.1493  0.0773
11211TIP3    H155048   5.941   3.176   4.202  0.4982  0.6320 -0.8001
11211TIP3    H255049   5.980   3.312   4.254  0.6626  0.2681  0.0438
11212TIP3   OH255050   1.891   3.641   3.059  0.1861  0.3525  0.6318
11212TIP3    H155051   1.891   3.669   2.968  0.6446  3.3622  1.4475
11212TIP3    H255052   1.949   3.703   3.103 -1.0767 -0.1730  3.1984
11213TIP3   OH255053   3.428   1.712   1.268  0.1205 -0.1701  0.5115
11213TIP3    H155054   3.424   1.693   1.175  2.9387  0.1560  0.2079
11213TIP3    H255055   3.450   1.806   1.272  0.4132 -0.2666  1.4677
11214TIP3   OH255056   6.003   1.876   4.080 -0.9120  0.1663  0.7868
11214TIP3    H155057   5.991   1.783   4.098  1.1160 -0.2842  0.0681
11214TIP3    H255058   6.026   1.915   4.164 -2.1142  0.1100  1.1578
11215TIP3   OH255059   3.379   4.389   1.582 -0.7051 -0.1687 -0.6021
11215TIP3    H155060   3.336   4.345   1.509 -1.8830  3.0262 -2.0462
11215TIP3    H255061   3.314   4.387   1.653  0.7271 -3.9531  0.8411
11216TIP3   OH255062   5.460   5.723   2.388 -0.3151  0.1982  0.1720
11216TIP3    H155063   5.455   5.811   2.426 -1.5330  0.4492 -0.5321
11216TIP3    H255064   5.384   5.716   2.332 -0.3368 -1.3806  0.3377
11217TIP3   OH255065   0.686   0.434  16.398  0.2776 -0.1646 -0.4103
11217TIP3    H155066   0.647   0.353  16.429  2.5247 -1.0676  0.2164
11217TIP3    H255067   0.739   0.465  16.471 -1.1073  2.3478 -0.3407
11218TIP3   OH255068   3.677   5.177  12.158 -0.7464 -0.2464  0.2028
11218TIP3    H155069   3.680   5.105  12.095 -0.2865 -0.0472 -0.0075
11218TIP3    H255070   3.659   5.255  12.105 -0.8893 -0.1533  0.3857
11219TIP3   OH255071   4.939   1.057   3.660 -0.0822  0.4913  0.0693
11219TIP3    H155072   4.967   1.128   3.602  1.0482 -1.0364 -1.3459
11219TIP3    H255073   5.020   1.011   3.681 -0.7839 -0.3357  1.0355
11220TIP3   OH255074   3.997   3.532   0.815 -0.0734  0.3890 -0.1361
11220TIP3    H155075   4.018   3.453   0.865 -0.7737  1.0894  1.3082
11220TIP3    H255076   4.022   3.510   0.725 -0.1171 -1.4191  0.2560
11221TIP3   OH255077   5.788   3.094  13.298 -1.0399  0.2285 -0.5941
11221TIP3    H155078   5.707   3.097  13.349  0.5334  1.1284  2.0933
11221TIP3    H255079   5.809   3.186  13.280 -0.5570  0.0176 -1.1312
11222TIP3   OH255080   6.258   5.705   3.004 -0.0555 -0.0376 -0.0356
11222TIP3    H155081   6.223   5.758   3.076 -0.3129 -1.4702  0.9418
11222TIP3    H255082   6.349   5.688   3.029  0.1524  0.3062 -0.5605
11223TIP3   OH255083   5.334   4.210   5.388  0.6375 -0.3734  0.2565
11223TIP3    H155084   5.241   4.190   5.375  0.1939  0.5317  1.7741
11223TIP3    H255085   5.380   4.144   5.336 -0.8434 -1.2321 -0.0303
11224TIP3   OH255086   3.843   0.396  13.997 -0.4568 -0.0074  0.2451
11224TIP3    H155087   3.818   0.304  13.999 -0.2331 -0.0837  2.5914
11224TIP3    H255088   3.819   0.429  14.084  1.1585  1.6885  0.1066
11225TIP3   OH255089   4.853   1.823   3.062  0.5392 -0.4972 -0.3047
11225TIP3    H155090   4.937   1.869   3.064 -0.5321  1.6296 -1.3040
11225TIP3    H255091   4.804   1.859   3.136 -0.3329 -0.0224 -1.1083
11226TIP3   OH255092   1.691   3.813   6.120 -0.0201 -0.3293 -0.4190
11226TIP3    H155093   1.692   3.730   6.168  0.8501 -0.5032 -0.7315
11226TIP3    H255094   1.708   3.879   6.187 -0.6953 -0.3880 -0.1729
11227TIP3   OH255095   1.000   3.328   1.659  0.3042  0.0675  0.4557
11227TIP3    H155096   0.982   3.246   1.705  3.0785 -1.7490 -1.3718
11227TIP3    H255097   1.095   3.329   1.647  0.1498  2.5465 -1.4229
11228TIP3   OH255098   4.328   5.033  16.583  0.3235  0.2231 -0.0092
11228TIP3    H155099   4.244   5.079  16.583  0.5067  0.6012  1.0858
11228TIP3    H255100   4.362   5.044  16.494 -1.5706 -1.4524 -1.0240
11229TIP3   OH255101   2.450   4.607  12.745  0.1696 -0.3408 -0.2279
11229TIP3    H155102   2.425   4.700  12.739  1.1056 -0.0098  0.6858
11229TIP3    H255103   2.500   4.591  12.665 -1.0455 -0.4060 -0.9903
11230TIP3   OH255104   0.191   4.058  10.668  0.5210  0.2231  0.2433
11230TIP3    H155105   0.234   3.974  10.653  0.0532  0.0705 -0.2905
11230TIP3    H255106   0.197   4.103  10.584 -0.7106  0.0306  0.0349
11231TIP3   OH255107   4.430   0.247  11.901 -0.3405  0.3698  0.1790
11231TIP3    H155108   4.407   0.306  11.829  2.8109  1.7957  0.1437
11231TIP3    H255109   4.515   0.279  11.932  1.1757 -3.5789  0.8016
11232TIP3   OH255110   2.078   1.612  14.519 -0.3504  0.2978 -0.3873
11232TIP3    H155111   1.986   1.612  14.546 -0.3604 -1.3546 -0.3427
11232TIP3    H255112   2.075   1.607  14.424 -0.2894  0.6743 -0.4126
11233TIP3   OH255113   4.586   2.509  11.679  0.6751  0.0091 -0.6776
11233TIP3    H155114   4.507   2.459  11.659  0.0178  1.6901 -2.7290
11233TIP3    H255115   4.657   2.460  11.638  0.3366 -0.2565 -0.9504
11234TIP3   OH255116   3.863   4.670  14.457  0.2401 -0.8659 -1.0587
11234TIP3    H155117   3.807   4.679  14.535  0.7080  2.3409 -0.9686
11234TIP3    H255118   3.952   4.665  14.491  0.5299  1.5133 -1.3189
11235TIP3   OH255119   4.817   5.487   2.267 -0.1880 -0.1980 -1.2429
11235TIP3    H155120   4.899   5.441   2.248 -0.1683 -1.3054  1.1510
11235TIP3    H255121   4.778   5.504   2.181  1.2427 -2.0897 -2.3290
11236TIP3   OH255122   5.581   0.077   5.551 -0.5926 -0.3235  0.6947
11236TIP3    H155123   5.642   0.016   5.509  1.8119  1.6892  1.0289
11236TIP3    H255124   5.562   0.142   5.484 -1.1460 -0.0924  1.0685
11237TIP3   OH255125   1.468   0.728  14.813  0.0539 -0.9667 -0.2758
11237TIP3    H155126   1.513   0.696  14.891 -1.3965 -0.8816  0.6349
11237TIP3    H255127   1.450   0.649  14.761  1.6132 -0.9519 -0.8801
11238TIP3   OH255128   5.471   4.536   3.880 -0.0039 -0.1784 -0.3074
11238TIP3    H155129   5.457   4.572   3.793 -2.5257  0.3931  0.2320
11238TIP3    H255130   5.476   4.613   3.937  1.4941 -0.5488  0.0884
11239TIP3   OH255131   2.050   0.205  13.109 -0.2109  0.6817  0.3914
11239TIP3    H155132   1.961   0.228  13.081 -0.4349 -0.5788  0.0254
11239TIP3    H255133   2.068   0.122  13.066  1.2755  1.0671  0.2074
11240TIP3   OH255134   1.320   3.275  12.593 -0.1120 -0.3251  0.6085
11240TIP3    H155135   1.326   3.264  12.498  0.2793  4.3165 -0.1636
11240TIP3    H255136   1.404   3.243  12.626  0.0751 -1.2698 -0.6925
11241TIP3   OH255137   0.419   2.108  11.042  0.5300 -0.3569  0.4932
11241TIP3    H155138   0.405   2.130  10.950 -2.4349 -0.8757  0.7212
11241TIP3    H255139   0.448   2.191  11.082  0.8531  0.1304 -0.7192
11242TIP3   OH255140   6.672   3.378  10.548 -0.2027  0.4318 -0.0491
11242TIP3    H155141   6.603   3.404  10.487  0.4730  0.4936 -0.7983
11242TIP3    H255142   6.633   3.307  10.600 -0.5078 -0.1963 -1.1107
11243TIP3   OH255143   6.708   5.709  11.798  0.3129  0.3354  0.3711
11243TIP3    H155144   6.789   5.760  11.802 -0.0852  0.9237  1.7485
11243TIP3    H255145   6.638   5.774  11.799 -0.2124 -0.1812  2.5834
11244TIP3   OH255146   0.897   3.260  11.777  0.0874 -0.4167 -0.4431
11244TIP3    H155147   0.934   3.240  11.863  0.1778  0.5868 -0.2336
11244TIP3    H255148   0.810   3.221  11.779 -0.2522  0.3262  0.4551
11245TIP3   OH255149   6.673   5.024  16.097  0.0822  0.4556 -0.2225
11245TIP3    H155150   6.733   4.982  16.159 -1.2248 -0.8712  0.2158
11245TIP3    H255151   6.696   4.986  16.012  1.1855  1.4850 -0.3933
11246TIP3   OH255152   2.425   5.591   0.643 -0.1236  0.2738 -0.4144
11246TIP3    H155153   2.508   5.615   0.683 -0.1134  0.6822 -0.6720
11246TIP3    H255154   2.422   5.641   0.561 -0.2482 -0.3730 -0.8082
11247TIP3   OH255155   1.755   4.784   0.859  0.2102  0.3507  0.3332
11247TIP3    H155156   1.830   4.772   0.801 -0.4575 -2.0251 -0.1213
11247TIP3    H255157   1.717   4.868   0.833  1.9142  0.9613 -0.3127
11248TIP3   OH255158   3.788   5.773  13.102 -0.1461  0.0360  0.0007
11248TIP3    H155159   3.739   5.846  13.139 -0.0352  1.3625 -2.2623
11248TIP3    H255160   3.842   5.741  13.174 -0.7732  1.6714  1.2578
11249TIP3   OH255161   6.265   4.015  12.013  0.7131  0.3625 -0.0366
11249TIP3    H155162   6.258   3.937  12.068 -0.7213 -0.0987 -0.8225
11249TIP3    H255163   6.270   3.980  11.923 -1.0582  1.1337 -0.4904
11250TIP3   OH255164   1.387   4.172   5.538  0.4153 -0.5179  0.5738
11250TIP3    H155165   1.332   4.103   5.501  0.1885  0.0669 -0.2092
11250TIP3    H255166   1.442   4.200   5.465 -1.0634  1.6933  0.1942
11251TIP3   OH255167   4.989   2.782  13.155  0.4684 -0.3999 -0.5430
11251TIP3    H155168   4.917   2.844  13.169  0.2680 -0.7135 -0.1758
11251TIP3    H255169   4.966   2.706  13.208  2.1586  0.3441  1.3832
11252TIP3   OH255170   5.053   5.289  12.056  0.0663 -0.4748 -0.2992
11252TIP3    H155171   4.960   5.312  12.055 -0.3023 -1.8640  0.0350
11252TIP3    H255172   5.062   5.226  12.128  1.1282 -0.8702 -0.7535
11253TIP3   OH255173   2.048   1.778   5.963 -0.2054  0.6465 -0.0639
11253TIP3    H155174   2.050   1.845   5.894  1.2423 -2.3113 -3.1872
11253TIP3    H255175   1.955   1.761   5.977 -0.6295  3.2549  0.9455
11254TIP3   OH255176   4.424   6.763   4.213 -0.4679 -0.1366  0.4453
11254TIP3    H155177   4.432   6.846   4.165  0.8809  0.2517  1.2709
11254TIP3    H255178   4.331   6.755   4.232 -1.0011 -0.1094 -1.8412
11255TIP3   OH255179   5.975   6.708   0.503  0.8950 -0.1760  0.4174
11255TIP3    H155180   5.992   6.658   0.583  0.2285  0.3679  0.9088
11255TIP3    H255181   6.040   6.676   0.441  1.6800 -0.3394  1.2977
11256TIP3   OH255182   2.069   5.430   3.101 -0.8167 -0.3477  0.3040
11256TIP3    H155183   1.974   5.429   3.094 -0.7950 -0.0257 -0.0639
11256TIP3    H255184   2.089   5.363   3.167 -1.2897 -0.4667  0.3292
11257TIP3   OH255185   3.697   5.109  14.363 -0.0108 -0.2964 -0.0595
11257TIP3    H155186   3.751   5.052  14.308 -1.1538 -1.0857 -0.3977
11257TIP3    H255187   3.690   5.191  14.313 -0.6639 -0.8467 -0.8935
11258TIP3   OH255188   5.152   4.142   0.902  0.2048 -0.3088  0.2496
11258TIP3    H155189   5.128   4.180   0.818  0.8590  0.2548  0.3094
11258TIP3    H255190   5.086   4.176   0.963 -0.9901 -1.6781 -0.2324
11259TIP3   OH255191   3.902   1.818   4.342  0.0736 -0.0340  0.0734
11259TIP3    H155192   3.866   1.860   4.264  3.3916 -0.5597 -1.9018
11259TIP3    H255193   3.949   1.888   4.388  0.0262 -0.2097  0.3943
11260TIP3   OH255194   2.657   1.710   5.987 -0.0290  0.2580 -0.2842
11260TIP3    H155195   2.600   1.635   6.006 -1.7428  1.3785 -0.7791
11260TIP3    H255196   2.675   1.748   6.073  0.2396 -0.2777 -0.0983
11261TIP3   OH255197   6.796   5.321  10.740 -0.1792  0.1656  0.3294
11261TIP3    H155198   6.888   5.342  10.732 -0.2272  0.0960 -0.4361
11261TIP3    H255199   6.782   5.309  10.834  0.8794 -1.1398  0.3417
11262TIP3   OH255200   0.329   4.271  16.046 -0.3129 -0.0789  0.3150
11262TIP3    H155201   0.270   4.200  16.018 -0.5728  0.5416 -0.7797
11262TIP3    H255202   0.416   4.234  16.039 -0.5302 -1.1171  2.2512
11263TIP3   OH255203   3.828   1.616  12.708  0.4838  0.2189  0.6416
11263TIP3    H155204   3.767   1.642  12.640 -0.2835  0.8265  1.5344
11263TIP3    H255205   3.911   1.658  12.685  0.9226 -1.4802 -1.1678
11264TIP3   OH255206   6.103   2.596  11.222  0.2138 -0.0670 -0.4101
11264TIP3    H155207   6.136   2.615  11.134  0.1760  0.1739 -0.3704
11264TIP3    H255208   6.089   2.681  11.262 -0.1822 -0.1734 -0.3215
11265TIP3   OH255209   3.107   0.510   1.665  0.1438 -0.0088 -0.1651
11265TIP3    H155210   3.063   0.558   1.735  0.9770  0.2334  0.2081
11265TIP3    H255211   3.193   0.551   1.658 -0.0994  0.2969 -1.6799
11266TIP3   OH255212   5.266   3.738  16.962  0.1880  0.3235  0.1769
11266TIP3    H155213   5.241   3.801  16.895  1.5162  1.3414  0.5939
11266TIP3    H255214   5.307   3.667  16.914  0.9957  0.9766 -0.1209
11267TIP3   OH255215   6.596   1.306  11.074  0.0198 -0.4370  0.2645
11267TIP3    H155216   6.645   1.360  11.137  0.0982 -2.3546  1.9737
11267TIP3    H255217   6.634   1.328  10.989  1.6029  0.5140  1.1643
11268TIP3   OH255218   6.467   6.047   2.243  0.0850  0.4816 -0.6098
11268TIP3    H155219   6.501   6.010   2.162 -2.2962 -2.0181 -0.6027
11268TIP3    H255220   6.488   5.982   2.310 -0.9522  0.9117  0.1522
11269TIP3   OH255221   0.967   6.394  15.134  0.0076  0.6609  0.3423
11269TIP3    H155222   0.997   6.379  15.224 -0.0847  2.6613  0.7538
11269TIP3    H255223   1.044   6.374  15.080 -0.5013 -2.4975  0.6193
11270TIP3   OH255224   0.492   3.505  13.061 -0.2518 -0.3529  0.4577
11270TIP3    H155225   0.570   3.552  13.031 -0.2659  0.1452  1.1775
11270TIP3    H255226   0.419   3.565  13.044 -0.6527 -1.2366 -1.2284
11271TIP3   OH255227   0.898   0.085   1.852  0.5759  0.7619  0.0359
11271TIP3    H155228   0.938  -0.002   1.855  0.5965  0.7809  0.3403
11271TIP3    H255229   0.836   0.085   1.926  0.0980  0.7717 -0.3625
11272TIP3   OH255230   0.983   5.996   5.355  0.6228  0.2354  0.6425
11272TIP3    H155231   1.032   6.027   5.431  0.9952  0.2394  0.4031
11272TIP3    H255232   0.940   6.074   5.320 -1.0171 -0.0375  1.8816
11273TIP3   OH255233   0.092   4.371   1.991 -0.1702  0.3969 -0.4354
11273TIP3    H155234   0.012   4.422   2.000  0.3088  0.7695  2.8598
11273TIP3    H255235   0.156   4.433   1.955 -0.4569  1.1349  0.3104
11274TIP3   OH255236   6.487   0.874   1.454  0.4659  0.8115 -0.1220
11274TIP3    H155237   6.551   0.804   1.437  1.1561  1.4467 -0.2046
11274TIP3    H255238   6.430   0.873   1.378  0.6816  0.5603 -0.2844
11275TIP3   OH255239   4.864   3.308   4.767  0.3063 -0.3050  0.2572
11275TIP3    H155240   4.900   3.394   4.744  0.3939  0.1435  1.9247
11275TIP3    H255241   4.795   3.293   4.703  0.7763  0.6668 -0.5105
11276TIP3   OH255242   4.896   3.649   5.534  0.1625  0.5974 -0.6395
11276TIP3    H155243   4.802   3.650   5.518  0.4140  0.0878 -2.3006
11276TIP3    H255244   4.904   3.661   5.629 -1.6169 -0.5358 -0.2906
11277TIP3   OH255245   6.373   6.429   5.806 -0.0783  0.4437 -0.5108
11277TIP3    H155246   6.410   6.473   5.883  0.2531 -0.0074 -0.4030
11277TIP3    H255247   6.429   6.352   5.794 -1.0029 -0.2895 -0.3173
11278TIP3   OH255248   5.280   2.356   6.006  0.2073 -0.4462  0.2288
11278TIP3    H155249   5.188   2.327   6.007  0.3797 -1.0995 -0.9769
11278TIP3    H255250   5.275   2.451   6.005 -0.4526 -0.4691  0.6190
11279TIP3   OH255251   4.452   4.701   4.965 -0.4644  0.5707 -0.0398
11279TIP3    H155252   4.494   4.783   4.939 -3.0966  1.8828 -0.5008
11279TIP3    H255253   4.519   4.655   5.016  1.2522  2.7948 -0.1191
11280TIP3   OH255254   3.468   3.368  12.457 -0.1241  0.1305  0.0886
11280TIP3    H155255   3.395   3.429  12.474  0.0888  0.1272  1.0728
11280TIP3    H255256   3.541   3.425  12.432 -0.3587  0.1596 -0.5487
11281TIP3   OH255257   2.941   6.248   1.947  0.0153 -0.2573 -0.5452
11281TIP3    H155258   2.848   6.264   1.926  0.0658  0.0430 -0.5472
11281TIP3    H255259   2.979   6.335   1.951  0.4844 -0.4081 -1.3807
11282TIP3   OH255260   5.989   1.627   1.495 -0.0534  0.3088 -0.0384
11282TIP3    H155261   6.016   1.712   1.461  1.1989 -0.1672 -0.2994
11282TIP3    H255262   6.070   1.586   1.524 -0.3747 -1.4397 -1.4266
11283TIP3   OH255263   3.225   3.125   5.883  0.1259 -0.1992  0.2992
11283TIP3    H155264   3.321   3.118   5.887  0.0490 -1.2558  0.7125
11283TIP3    H255265   3.199   3.153   5.971  0.1903  2.6296 -0.4783
11284TIP3   OH255266   3.913   3.849  14.832 -0.2778 -0.4113  0.0884
11284TIP3    H155267   3.853   3.785  14.869  0.5113 -1.1418  0.1401
11284TIP3    H255268   3.984   3.857  14.896 -0.6695  1.0120  0.3908
11285TIP3   OH255269   0.118   6.304   4.236 -0.1808 -0.3742 -0.0080
11285TIP3    H155270   0.080   6.386   4.204 -0.3797 -0.4380  0.0672
11285TIP3    H255271   0.199   6.332   4.279  0.9773 -0.4441 -2.0072
11286TIP3   OH255272   6.783   1.026   3.807  0.4973  0.3544  0.6288
11286TIP3    H155273   6.792   0.964   3.880 -1.2285 -0.4742  0.1998
11286TIP3    H255274   6.688   1.040   3.799  0.7202  1.3248 -0.7308
11287TIP3   OH255275   3.095   2.230  16.051 -0.0608 -0.3253  0.4943
11287TIP3    H155276   3.133   2.303  16.002  0.8055 -0.1825  1.3394
11287TIP3    H255277   3.118   2.248  16.142  0.7894 -2.0241  0.6556
11288TIP3   OH255278   1.548   5.617  14.634  0.3938  0.5508  0.3502
11288TIP3    H155279   1.460   5.612  14.669 -0.3092 -1.3345 -1.4981
11288TIP3    H255280   1.545   5.687  14.569  0.3290  0.6304  0.4397
11289TIP3   OH255281   5.275   3.126   1.405 -0.2578  0.0425 -0.3124
11289TIP3    H155282   5.266   3.129   1.310  1.7819 -0.9990 -0.5844
11289TIP3    H255283   5.225   3.048   1.431  1.1260 -1.0677 -0.8470
11290TIP3   OH255284   2.298   6.550  16.172 -0.0866  0.6180  0.5331
11290TIP3    H155285   2.281   6.567  16.080 -0.2802 -1.3922  0.1392
11290TIP3    H255286   2.393   6.558  16.181 -0.1561  1.7455  0.3957
11291TIP3   OH255287   0.875   5.023  15.115 -0.4986 -0.5349 -0.6053
11291TIP3    H155288   0.959   4.982  15.095 -0.4858 -0.8573  0.0991
11291TIP3    H255289   0.894   5.117  15.119 -0.4000 -0.5049 -1.5641
11292TIP3   OH255290   6.472   1.672  14.344  0.1764  0.1369 -0.1546
11292TIP3    H155291   6.474   1.762  14.377 -0.5760 -0.1706  0.7374
11292TIP3    H255292   6.516   1.620  14.411 -1.5166 -0.5195  0.4948
11293TIP3   OH255293   4.287   3.929   6.062  0.1884  0.1169  0.1348
11293TIP3    H155294   4.206   3.896   6.023  0.5408 -0.8202  0.1598
11293TIP3    H255295   4.343   3.852   6.068  1.1319  0.7778 -0.0078
11294TIP3   OH255296   1.573   3.502  16.944  0.3443  0.0536 -1.0976
11294TIP3    H155297   1.541   3.580  16.989  2.4215  1.2947 -1.6130
11294TIP3    H255298   1.496   3.466  16.900 -1.4555 -0.3169  2.0207
11295TIP3   OH255299   6.244   4.858  11.048  0.3219 -0.4637  0.5262
11295TIP3    H155300   6.225   4.892  10.960  3.3828  0.2294  0.0102
11295TIP3    H255301   6.309   4.919  11.083  0.1063 -1.4543  2.7870
11296TIP3   OH255302   3.072   1.821   0.935  0.1876  0.9767 -0.2775
11296TIP3    H155303   3.096   1.793   0.847  2.1547 -0.3289  0.6219
11296TIP3    H255304   3.136   1.779   0.993 -2.3923 -0.1171  2.0278
11297TIP3   OH255305   4.979   6.167   0.111 -0.0630 -0.2119 -0.5433
11297TIP3    H155306   4.931   6.116   0.047  0.6171  0.6824 -1.7994
11297TIP3    H255307   5.030   6.102   0.160  0.6740 -0.7911 -2.0060
11298TIP3   OH255308   2.584   0.567  14.837 -0.1123  0.0338 -0.0274
11298TIP3    H155309   2.558   0.627  14.767 -0.2403  0.7266  0.6004
11298TIP3    H255310   2.624   0.624  14.903  2.0802 -0.8531 -0.4850
11299TIP3   OH255311   1.814   4.871  15.281 -0.0751 -0.1587  0.0485
11299TIP3    H155312   1.897   4.823  15.272  1.0908  1.5317  1.0253
11299TIP3    H255313   1.816   4.936  15.210 -1.1903 -0.9294 -0.7016
11300TIP3   OH255314   1.472   4.238   6.033  0.3955 -0.4805 -0.0542
11300TIP3    H155315   1.424   4.167   5.990 -0.6248  0.7949 -1.1257
11300TIP3    H255316   1.416   4.264   6.106 -1.2865  1.7999 -1.9980
11301TIP3   OH255317   6.265   4.541   0.055  0.1073  0.3081  0.4708
11301TIP3    H155318   6.183   4.590   0.046  0.1876  0.2072 -1.2140
11301TIP3    H255319   6.318   4.570  -0.019 -0.1746 -2.8710 -1.2120
11302TIP3   OH255320   3.805   4.950  16.062 -0.4197  0.3627  0.0577
11302TIP3    H155321   3.754   5.024  16.030 -0.9925  0.4747  1.1947
11302TIP3    H255322   3.823   4.898  15.983  1.1613  2.3541 -0.9947
11303TIP3   OH255323   1.176   3.110   0.790 -0.0250  0.1850 -0.5627
11303TIP3    H155324   1.130   3.026   0.785  0.4657 -0.0546 -1.0588
11303TIP3    H255325   1.171   3.134   0.883 -1.2993  0.2511 -0.6250
11304TIP3   OH255326   2.397   1.646  13.273  0.0290  0.3332  0.4402
11304TIP3    H155327   2.462   1.641  13.343 -1.0807  0.0574  1.4783
11304TIP3    H255328   2.313   1.628  13.316 -0.8747  1.6510 -0.6658
11305TIP3   OH255329   3.305   3.600  11.495 -0.4113  0.5617 -0.2445
11305TIP3    H155330   3.248   3.643  11.559 -0.5963 -0.1801  0.1040
11305TIP3    H255331   3.377   3.565  11.547 -1.1928 -1.1363 -0.2255
11306TIP3   OH255332   1.020   6.236  12.376 -0.6452 -0.3681  0.7107
11306TIP3    H155333   1.110   6.265  12.392 -0.4777 -1.2964  1.5540
11306TIP3    H255334   0.966   6.304  12.417 -0.3596  0.4356 -0.2015
11307TIP3   OH255335   3.373   2.004   5.395  0.4075  0.2813  0.1696
11307TIP3    H155336   3.452   2.044   5.359  1.1195 -1.1351  0.0896
11307TIP3    H255337   3.390   1.996   5.489  0.2781  0.1623  0.1840
11308TIP3   OH255338   1.761   0.112  15.808  0.3404 -0.0074  0.2519
11308TIP3    H155339   1.712   0.054  15.866 -0.3248 -0.1493 -0.4467
11308TIP3    H255340   1.832   0.057  15.774  0.7586  0.0868  0.9472
11309TIP3   OH255341   3.817   4.782  11.227 -0.0428  0.1857 -0.0835
11309TIP3    H155342   3.851   4.763  11.139 -2.0477  0.9743 -1.1076
11309TIP3    H255343   3.750   4.715  11.241  0.5526 -0.1904  1.0590
11310TIP3   OH255344   6.640   1.632   1.396  0.0839  0.1272  0.1940
11310TIP3    H155345   6.652   1.598   1.307  0.7671  2.0510 -0.5133
11310TIP3    H255346   6.627   1.726   1.384 -0.6247  0.3171  2.0992
11311TIP3   OH255347   6.320   1.693   2.518  0.7457 -0.4313  0.1554
11311TIP3    H155348   6.296   1.607   2.483  2.2779 -0.4995 -0.8458
11311TIP3    H255349   6.385   1.674   2.585 -1.3135 -0.2128  2.3555
11312TIP3   OH255350   3.109   0.149  14.319  0.0429 -0.4067  0.2731
11312TIP3    H155351   3.072   0.080  14.264 -0.1983  0.5148 -0.7779
11312TIP3    H255352   3.063   0.229  14.290  1.4184  0.4431  0.3544
11313TIP3   OH255353   0.220   5.480   1.414  0.2327  0.1568 -0.0281
11313TIP3    H155354   0.260   5.427   1.345  1.9965 -1.1694  1.8811
11313TIP3    H255355   0.278   5.556   1.422  0.7247 -0.2826  0.7377
11314TIP3   OH255356   3.372   2.177   2.391 -0.8665  0.3370 -0.2184
11314TIP3    H155357   3.303   2.196   2.327 -0.6447 -3.0353 -1.6588
11314TIP3    H255358   3.453   2.207   2.349 -1.0254  0.6975 -0.2695
11315TIP3   OH255359   6.009   4.510   4.374 -0.1446 -0.2256 -0.3472
11315TIP3    H155360   6.081   4.449   4.387  0.9977  1.2713  0.7262
11315TIP3    H255361   6.011   4.529   4.280  0.0806 -1.1014 -0.5286
11316TIP3   OH255362   0.088   3.168   5.034 -0.1385 -0.0345 -0.2458
11316TIP3    H155363   0.069   3.173   5.128 -1.4604  1.3241 -0.5603
11316TIP3    H255364   0.007   3.137   4.994  0.4180 -0.6194 -0.9608
11317TIP3   OH255365   2.189   5.259  14.244  0.2266  0.1199 -0.3597
11317TIP3    H155366   2.260   5.210  14.202  0.8872  0.5138  0.2862
11317TIP3    H255367   2.233   5.327  14.295 -0.6097  0.2875  0.1558
11318TIP3   OH255368   4.525   0.283   4.297 -0.8221 -0.1169  0.0094
11318TIP3    H155369   4.510   0.189   4.283 -2.5554  0.0751  0.2571
11318TIP3    H255370   4.554   0.315   4.211  0.3833 -0.9622  0.0792
11319TIP3   OH255371   1.713   4.498  15.320  0.0988 -0.2938 -0.1706
11319TIP3    H155372   1.683   4.578  15.276  0.1138  0.7980  1.7255
11319TIP3    H255373   1.807   4.510  15.331  0.3673 -1.2805 -1.2281
11320TIP3   OH255374   4.281   6.811  14.132 -0.1391 -0.4836  0.7771
11320TIP3    H155375   4.269   6.796  14.038  0.1486 -2.3432  1.0110
11320TIP3    H255376   4.317   6.900  14.137  1.0758 -0.8226 -0.9729
11321TIP3   OH255377   2.302   1.954   2.196  0.0540  0.0978  0.1931
11321TIP3    H155378   2.333   2.038   2.161 -2.0406  0.2077 -1.5735
11321TIP3    H255379   2.216   1.942   2.156 -0.3571 -2.1794  1.6194
11322TIP3   OH255380   2.586   1.549   5.521 -0.0932 -0.2977 -0.2103
11322TIP3    H155381   2.681   1.553   5.520 -0.0056 -1.7825  0.1259
11322TIP3    H255382   2.564   1.508   5.605 -1.0631  0.5980  0.0039
11323TIP3   OH255383   5.956   2.863  14.685  0.3937  0.3654  0.0663
11323TIP3    H155384   6.035   2.890  14.638  0.0984  2.3125  0.5677
11323TIP3    H255385   5.885   2.875  14.621  0.5136 -1.8506 -0.5406
11324TIP3   OH255386   6.031   2.964  11.903  0.1911 -0.0065 -0.5509
11324TIP3    H155387   6.085   2.992  11.976 -0.2717 -0.8447  0.1306
11324TIP3    H255388   5.953   3.019  11.907 -0.5997 -1.1571  0.6296
11325TIP3   OH255389   5.233   2.152  15.493  0.0561 -0.3913 -0.9495
11325TIP3    H155390   5.169   2.135  15.423 -0.7799 -0.4548 -0.1827
11325TIP3    H255391   5.194   2.223  15.544  0.7218 -0.2706 -0.6048
11326TIP3   OH255392   3.844   3.295  16.731 -0.3334  0.4529 -0.1029
11326TIP3    H155393   3.857   3.342  16.814 -0.9270  0.8765 -0.2433
11326TIP3    H255394   3.749   3.301  16.715 -0.5107 -1.1559  0.0935
11327TIP3   OH255395   1.407   0.021   1.749 -0.1623  0.0421  0.1812
11327TIP3    H155396   1.331   0.073   1.721 -1.0150 -0.8206  0.8008
11327TIP3    H255397   1.371  -0.066   1.764  1.4901 -1.1153 -2.1140
11328TIP3   OH255398   4.438   2.825  15.654 -0.0405 -0.6305  0.2601
11328TIP3    H155399   4.369   2.877  15.613  1.4096 -1.7930 -4.2015
11328TIP3    H255400   4.392   2.759  15.705 -2.3887 -1.4347 -2.6284
11329TIP3   OH255401   6.775   5.999  15.609 -0.4892 -0.3052 -0.1848
11329TIP3    H155402   6.681   5.986  15.622 -0.4566  0.5938  1.1528
11329TIP3    H255403   6.786   6.000  15.514 -2.0906  1.2198 -0.4003
11330TIP3   OH255404   0.239   1.159   4.410  0.4282 -0.3871 -0.0615
11330TIP3    H155405   0.245   1.253   4.393 -0.5697 -0.2007  0.4955
11330TIP3    H255406   0.324   1.136   4.446  0.7268  0.2804 -0.3150
11331TIP3   OH255407   0.950   6.435  16.233  0.3364 -0.8175 -0.6008
11331TIP3    H155408   0.969   6.368  16.167  0.1667 -1.6986  0.2117
11331TIP3    H255409   0.984   6.397  16.315 -2.2863 -1.2044  0.4003
11332TIP3   OH255410   6.751   6.762   2.639 -0.0174 -0.3243  0.5007
11332TIP3    H155411   6.841   6.733   2.652 -0.6775 -2.4443  0.7888
11332TIP3    H255412   6.742   6.772   2.545  1.2085  2.5579  0.5874
11333TIP3   OH255413   5.893   3.927  16.374 -0.1816 -0.0347 -0.1357
11333TIP3    H155414   5.900   3.835  16.402  2.7887 -0.0172 -0.5029
11333TIP3    H255415   5.932   3.976  16.446 -0.4170  0.8108 -0.5781
11334TIP3   OH255416   2.585   4.941   6.058 -0.2569 -0.2121 -0.5814
11334TIP3    H155417   2.541   4.956   6.142 -0.9241 -0.4374 -0.8775
11334TIP3    H255418   2.669   4.902   6.081 -0.4631 -0.3351 -0.0216
11335TIP3   OH255419   1.546   1.990   1.575  0.4509 -0.9919  1.0135
11335TIP3    H155420   1.616   1.925   1.571  0.8520 -0.7140  2.7969
11335TIP3    H255421   1.465   1.939   1.568  0.7804 -1.5400  1.1700
11336TIP3   OH255422   5.052   4.624  10.992 -0.1266 -0.3046  0.3044
11336TIP3    H155423   5.102   4.548  11.022  0.2720  0.0923  0.6631
11336TIP3    H255424   5.105   4.699  11.019  0.5529  0.0674 -1.8892
11337TIP3   OH255425   0.185   0.731   5.151  0.3556 -0.8149  0.2734
11337TIP3    H155426   0.159   0.742   5.243  0.0126 -0.3192  0.1211
11337TIP3    H255427   0.111   0.766   5.101  0.5995 -0.9616 -0.1929
11338TIP3   OH255428   0.626   4.959   0.591 -0.6469  0.5239 -0.5980
11338TIP3    H155429   0.621   4.936   0.498  0.2255 -0.7941 -0.3404
11338TIP3    H255430   0.540   4.996   0.611 -0.4486  1.9965 -2.2023
11339TIP3   OH255431   3.656   5.936   5.467 -0.3052 -0.0467  0.3865
11339TIP3    H155432   3.595   5.872   5.502 -0.1821  0.3218  1.2968
11339TIP3    H255433   3.619   6.021   5.491 -0.1935  0.2179 -0.3452
11340TIP3   OH255434   4.004   5.037  12.667  0.2766  0.1313  0.4395
11340TIP3    H155435   4.032   4.951  12.699  0.9499  0.1204 -0.1599
11340TIP3    H255436   4.074   5.065  12.607  0.8959  1.8417  1.8603
11341TIP3   OH255437   3.922   3.363   1.563  0.6765  0.2044  0.4467
11341TIP3    H155438   3.841   3.325   1.598 -0.2663 -0.5060 -2.2108
11341TIP3    H255439   3.892   3.426   1.498  2.2525  0.1797 -0.3580
11342TIP3   OH255440   0.164   0.685   1.667  0.0423 -0.0154  0.0628
11342TIP3    H155441   0.218   0.731   1.731 -2.2772  1.8557  0.8451
11342TIP3    H255442   0.205   0.704   1.583  1.1494  0.4712  0.6913
11343TIP3   OH255443   0.843   6.145   6.303  0.2927  0.3130  0.1351
11343TIP3    H155444   0.838   6.087   6.379 -1.1253 -1.5207 -1.2807
11343TIP3    H255445   0.845   6.233   6.341  0.7153 -0.5610  2.3109
11344TIP3   OH255446   6.540   0.275  15.969 -0.4527 -0.1163 -0.5909
11344TIP3    H155447   6.601   0.221  16.018 -1.4334 -0.7196  0.0133
11344TIP3    H255448   6.594   0.344  15.930  0.2338  1.4230  2.7096
11345TIP3   OH255449   6.060   3.561   6.150  0.5171  0.0811  0.4305
11345TIP3    H155450   6.051   3.480   6.200  0.6973 -0.6982 -0.7784
11345TIP3    H255451   6.144   3.598   6.180  2.1369 -1.8935 -1.3747
11346TIP3   OH255452   3.998   1.494  15.512 -1.2621  0.3813  0.2306
11346TIP3    H155453   4.008   1.520  15.421 -1.4805 -1.4651 -0.3627
11346TIP3    H255454   3.936   1.421  15.509 -1.9942  0.8785  1.9709
11347TIP3   OH255455   1.561   3.430  14.273 -0.2240  0.6871 -0.5859
11347TIP3    H155456   1.584   3.338  14.267  2.5112  1.2795 -0.2845
11347TIP3    H255457   1.598   3.460  14.356  0.4286  2.4263 -1.4467
11348TIP3   OH255458   0.402   1.370   3.227 -0.7465  0.3908 -0.4715
11348TIP3    H155459   0.458   1.362   3.304 -1.4945 -0.7636 -0.0237
11348TIP3    H255460   0.446   1.436   3.173  2.4410 -2.0920 -1.2838
11349TIP3   OH255461   2.170   0.705   1.132  0.6083  0.1990 -0.1468
11349TIP3    H155462   2.110   0.662   1.071  0.4592  0.9356 -0.5296
11349TIP3    H255463   2.253   0.710   1.085  1.0283 -0.9378  0.4310
11350TIP3   OH255464   5.231   4.480  10.434  0.6333 -0.5061 -0.3157
11350TIP3    H155465   5.307   4.451  10.384 -0.2355 -1.5266 -1.0923
11350TIP3    H255466   5.190   4.547  10.379 -0.1895 -1.4604 -0.8956
11351TIP3   OH255467   0.017   4.032  16.936 -0.2677  0.3058  0.3013
11351TIP3    H155468  -0.024   3.946  16.948  0.1056  0.2824  1.5226
11351TIP3    H255469   0.076   4.020  16.862  0.6059 -0.8184  1.1362
11352TIP3   OH255470   3.629   2.842   0.707  0.0842 -0.3598 -0.0268
11352TIP3    H155471   3.566   2.910   0.729  2.4275  1.5512  1.2622
11352TIP3    H255472   3.620   2.829   0.612 -2.4533 -0.4909  0.1781
11353TIP3   OH255473   2.821   5.922   4.423 -0.7565 -0.2609  0.1844
11353TIP3    H155474   2.754   5.960   4.479  0.0747 -0.8464  1.6252
11353TIP3    H255475   2.815   5.828   4.438  0.3103 -0.3283  0.2685
11354TIP3   OH255476   1.591   5.290   5.637  0.3207 -0.0580  0.3062
11354TIP3    H155477   1.675   5.281   5.593  1.5221 -0.2272  2.5124
11354TIP3    H255478   1.559   5.200   5.645  0.8404 -0.1731  1.1302
11355TIP3   OH255479   3.543   5.082   1.210 -0.2550 -0.3706  0.0178
11355TIP3    H155480   3.621   5.030   1.229 -0.4880 -0.5434  0.5385
11355TIP3    H255481   3.470   5.022   1.228 -0.5010 -0.3414 -0.8578
11356TIP3   OH255482   5.001   6.292   1.902 -0.2444 -0.5111 -0.5456
11356TIP3    H155483   5.030   6.369   1.854 -1.5623 -0.1136 -0.7576
11356TIP3    H255484   5.036   6.303   1.990 -1.5577  1.0710 -0.1677
11357TIP3   OH255485   6.577   3.034   2.459  0.5469 -0.3010  0.0334
11357TIP3    H155486   6.667   3.013   2.483  0.5748  0.3615  0.5253
11357TIP3    H255487   6.543   3.083   2.533  0.1103  0.3534 -0.5857
11358TIP3   OH255488   0.808   6.212  15.838  0.0477 -0.3339  0.1585
11358TIP3    H155489   0.844   6.125  15.854 -0.3546 -0.6188 -0.4835
11358TIP3    H255490   0.805   6.253  15.925 -0.8001 -1.3493  0.6214
11359TIP3   OH255491   1.849   1.274  12.688  0.5027 -0.0422  0.4399
11359TIP3    H155492   1.876   1.198  12.637 -2.1997  1.0744 -3.0757
11359TIP3    H255493   1.781   1.241  12.747 -1.3434 -0.3549 -1.7288
11360TIP3   OH255494   2.938   0.440  14.628  0.2758  0.0666 -0.4748
11360TIP3    H155495   2.981   0.482  14.702  1.5206 -2.0928  0.1237
11360TIP3    H255496   3.010   0.406  14.574 -0.6117  1.0819 -2.3958
11361TIP3   OH255497   6.231   4.212   0.973 -0.3491 -0.6581  0.6944
11361TIP3    H155498   6.146   4.254   0.987 -0.0531  0.2333 -0.1388
11361TIP3    H255499   6.269   4.205   1.061 -0.6846  0.2069  0.9132
11362TIP3   OH255500   0.082   4.109  14.259 -0.4683  0.0527 -0.3648
11362TIP3    H155501   0.076   4.033  14.317 -0.3964 -0.5755 -1.1700
11362TIP3    H255502   0.020   4.172  14.297 -1.4453 -0.8650 -0.3717
11363TIP3   OH255503   3.041   4.948  13.809 -0.5022 -0.1820  0.0749
11363TIP3    H155504   3.090   5.002  13.747  0.4424  1.6136  2.2202
11363TIP3    H255505   2.949   4.973  13.796 -0.0757  2.2499  1.1511
11364TIP3   OH255506   3.808   2.193  13.315  0.4176  0.0949 -0.5860
11364TIP3    H155507   3.786   2.108  13.354  0.0348  0.0583 -0.8766
11364TIP3    H255508   3.827   2.173  13.223  3.0551 -0.0940 -0.0742
11365TIP3   OH255509   3.610   4.738   5.771  0.6368 -0.0899 -0.6921
11365TIP3    H155510   3.598   4.656   5.724  2.0014 -0.7086 -0.0091
11365TIP3    H255511   3.635   4.712   5.860 -0.1031  1.0661 -0.1156
11366TIP3   OH255512   6.677   0.447  13.896 -0.2077  0.1054  0.2032
11366TIP3    H155513   6.622   0.425  13.972 -0.4855  2.8442  0.9066
11366TIP3    H255514   6.759   0.402  13.912 -1.2063 -1.6716  0.6399
11367TIP3   OH255515   5.624   5.977  15.147  0.5783  0.2468 -0.0663
11367TIP3    H155516   5.633   5.980  15.242  0.7593 -0.0305 -0.0726
11367TIP3    H255517   5.706   6.013  15.113 -0.4748  2.7652 -0.1247
11368TIP3   OH255518   3.751   4.762  14.796  0.0450  0.6742  0.1841
11368TIP3    H155519   3.723   4.850  14.820 -1.0187  1.1428 -2.4560
11368TIP3    H255520   3.847   4.767  14.795  0.0112  2.6528 -2.4629
11369TIP3   OH255521   4.105   2.874  16.759 -0.1620  0.1961  0.6626
11369TIP3    H155522   4.025   2.923  16.737 -0.7269 -1.1488 -0.3977
11369TIP3    H255523   4.109   2.879  16.855 -0.6968  1.5123  0.6480
11370TIP3   OH255524   5.680   3.905   3.971 -0.2206  0.4242  0.1946
11370TIP3    H155525   5.620   3.840   4.006 -1.2105  0.9225 -0.5341
11370TIP3    H255526   5.760   3.893   4.023 -0.0141 -2.0039 -0.5543
11371TIP3   OH255527   2.053   2.712  14.472  0.3106  0.0243  0.1706
11371TIP3    H155528   2.106   2.790  14.490  1.0105 -0.4303  0.0811
11371TIP3    H255529   2.003   2.699  14.552 -2.7903  2.8308 -1.0466
11372TIP3   OH255530   6.548   1.488   4.698 -0.0212 -0.2339 -0.2541
11372TIP3    H155531   6.466   1.498   4.747 -0.6268 -0.2618 -1.2428
11372TIP3    H255532   6.542   1.552   4.627 -0.3772 -1.9906 -1.8893
11373TIP3   OH255533   1.845   1.778  14.636 -0.0859  0.1941  0.3433
11373TIP3    H155534   1.843   1.872  14.654 -1.2654  0.0918  0.7930
11373TIP3    H255535   1.885   1.740  14.714  2.5410  0.4872 -0.7535
11374TIP3   OH255536   2.395   4.043  16.910  0.0407  0.3568 -0.6172
11374TIP3    H155537   2.477   4.093  16.917 -0.6368  1.5066 -0.5670
11374TIP3    H255538   2.399   4.003  16.823  2.2326 -2.5675  0.6733
11375TIP3   OH255539   5.841   5.048   2.591  0.0172  0.3995 -0.3705
11375TIP3    H155540   5.870   4.962   2.622 -0.8767  0.7867  1.6249
11375TIP3    H255541   5.915   5.080   2.538  0.8442 -1.0738 -0.1577
11376TIP3   OH255542   1.370   1.666  15.476 -0.4354 -0.0697  0.1684
11376TIP3    H155543   1.275   1.679  15.479 -0.5964 -1.1799  0.6068
11376TIP3    H255544   1.396   1.698  15.389 -1.0700  1.0040  0.3553
11377TIP3   OH255545   5.696   2.071   0.707  0.6713 -0.2757 -0.6848
11377TIP3    H155546   5.746   1.992   0.726 -0.0828 -0.1754  2.3043
11377TIP3    H255547   5.605   2.046   0.723  0.4600  1.2378  0.7535
11378TIP3   OH255548   4.232   0.840   4.402  0.3461 -0.7326 -0.1450
11378TIP3    H155549   4.212   0.831   4.309 -0.8202  0.9994 -0.1093
11378TIP3    H255550   4.184   0.918   4.430 -0.0983 -1.7350  2.1417
11379TIP3   OH255551   1.629   6.678   1.746 -0.4003 -0.5527  0.2919
11379TIP3    H155552   1.624   6.656   1.653 -0.5705 -2.0914  0.6372
11379TIP3    H255553   1.582   6.761   1.753 -1.8142 -1.2195 -0.7671
11380TIP3   OH255554   6.036   0.193  15.160  0.1729 -0.1260 -0.3016
11380TIP3    H155555   6.055   0.117  15.216 -0.2371  0.5168  0.7352
11380TIP3    H255556   6.099   0.259  15.187 -0.3759  0.3757 -0.2293
11381TIP3   OH255557   4.067   3.423  17.088  0.1600  0.2443  0.2817
11381TIP3    H155558   4.046   3.434  16.996 -0.7266  1.3274  0.5945
11381TIP3    H255559   4.163   3.422  17.090  0.2138  1.2753 -0.5570
11382TIP3   OH255560   6.434   6.436  13.946  0.4713 -0.1431 -0.6725
11382TIP3    H155561   6.458   6.417  13.855  0.4933 -0.8567 -0.5295
11382TIP3    H255562   6.342   6.460  13.942 -0.1831 -2.3543 -0.6649
11383TIP3   OH255563   1.713   4.643   6.258  0.1684 -0.4809 -0.0056
11383TIP3    H155564   1.650   4.714   6.270  1.1770  0.5544 -0.5945
11383TIP3    H255565   1.670   4.566   6.295 -1.1796  0.3168  0.1530
11384TIP3   OH255566   5.133   0.942  14.988 -0.2069  0.3178 -0.6375
11384TIP3    H155567   5.088   0.889  14.922  1.0062 -0.2103 -1.0813
11384TIP3    H255568   5.086   1.025  14.989 -3.0029 -1.1324  1.0180
11385TIP3   OH255569   6.400   4.729   0.833 -0.6681  0.2278 -0.1687
11385TIP3    H155570   6.465   4.684   0.780 -1.6770  0.4313 -1.6522
11385TIP3    H255571   6.406   4.688   0.919 -0.6687 -1.8507 -1.1091
11386TIP3   OH255572   1.947   3.564  16.492  0.4580 -0.0843  0.0484
11386TIP3    H155573   1.905   3.550  16.577 -0.4445  0.7220 -0.2412
11386TIP3    H255574   2.034   3.525  16.501 -1.0749 -3.9964 -0.0787
11387TIP3   OH255575   4.737   4.038   1.792 -0.0122  0.2764  0.3653
11387TIP3    H155576   4.751   3.971   1.859  1.2869  0.2604  0.1050
11387TIP3    H255577   4.704   3.991   1.716 -2.1233  0.3770  1.1625
11388TIP3   OH255578   3.914   2.359  13.050 -0.2291  0.4765 -0.0274
11388TIP3    H155579   3.856   2.408  13.109 -0.1958 -0.1313  0.5235
11388TIP3    H255580   3.971   2.425  13.011 -2.5967  1.4412 -2.1737
11389TIP3   OH255581   2.925   1.171   2.428  0.1527 -0.0116 -0.2987
11389TIP3    H155582   2.966   1.150   2.512  1.3087 -1.0190 -1.0779
11389TIP3    H255583   2.876   1.252   2.445  0.6721  0.0215  1.2337
11390TIP3   OH255584   2.033   0.448   2.011  0.2042 -0.3320 -0.0321
11390TIP3    H155585   1.957   0.415   2.058  1.1320  0.7511  2.3903
11390TIP3    H255586   2.052   0.380   1.946 -1.6899 -1.4897  0.5397
11391TIP3   OH255587   4.564   1.915  13.659  0.7857 -0.0441 -0.0940
11391TIP3    H155588   4.531   1.968  13.732  0.2716  0.8038 -0.9316
11391TIP3    H255589   4.525   1.828  13.673 -2.8608  1.1409 -1.6286
11392TIP3   OH255590   5.717   4.888   1.446  0.4759 -0.4280 -0.0271
11392TIP3    H155591   5.810   4.901   1.464  0.2774  0.8280  0.1977
11392TIP3    H255592   5.688   4.972   1.408 -0.8146 -0.3647  1.0287
11393TIP3   OH255593   4.730   1.071   6.374 -0.4634 -0.0759 -0.0369
11393TIP3    H155594   4.685   1.155   6.361  0.1784  0.3012  0.1775
11393TIP3    H255595   4.693   1.036   6.455 -0.0643  0.4390  0.3733
11394TIP3   OH255596   1.645   6.805  17.038 -0.1762  0.0918 -0.3538
11394TIP3    H155597   1.582   6.741  17.073 -0.4868  0.0570 -0.9469
11394TIP3    H255598   1.645   6.787  16.944  0.7773  0.0537 -0.3503
11395TIP3   OH255599   2.648   3.793   1.316  0.2940 -0.1220  0.2763
11395TIP3    H155600   2.571   3.847   1.295  1.3831  0.6998 -1.9521
11395TIP3    H255601   2.684   3.833   1.395  0.3958  1.7623 -0.6613
11396TIP3   OH255602   2.062   4.544   3.131 -0.0728 -0.5950  0.1057
11396TIP3    H155603   2.084   4.575   3.043  0.9433  1.4383  1.0204
11396TIP3    H255604   1.968   4.523   3.126 -0.0048 -0.6136 -1.4705
11397TIP3   OH255605   6.183   3.114   4.453 -0.0452 -0.2227 -0.3829
11397TIP3    H155606   6.224   3.086   4.371  0.1052  1.0202 -0.7448
11397TIP3    H255607   6.094   3.138   4.429  0.3398  1.2628 -0.4249
11398TIP3   OH255608   2.021   4.014   1.950  0.6794  0.2864  0.0469
11398TIP3    H155609   2.058   3.966   2.023 -0.2143 -0.8027 -0.2008
11398TIP3    H255610   1.984   4.094   1.989  0.9900  0.1419  0.6419
11399TIP3   OH255611   4.520   3.069   0.510 -0.4900 -0.1025  0.7948
11399TIP3    H155612   4.547   3.085   0.600 -0.6865  0.2956  0.7855
11399TIP3    H255613   4.577   3.125   0.457 -0.2743 -0.4453  0.6568
11400TIP3   OH255614   0.597   2.101   3.321  0.2212 -0.1751 -0.0205
11400TIP3    H155615   0.511   2.067   3.344  1.3678 -2.8487  0.7947
11400TIP3    H255616   0.580   2.185   3.278 -2.6527  0.0235  1.3111
11401TIP3   OH255617   0.847   6.372   4.709 -0.5175 -0.0352 -0.2654
11401TIP3    H155618   0.890   6.347   4.790 -1.0430 -0.5584 -0.1390
11401TIP3    H255619   0.754   6.377   4.731 -0.8029 -1.2807 -1.0760
11402TIP3   OH255620   4.817   3.689   3.171 -0.2008 -0.2892  0.2924
11402TIP3    H155621   4.818   3.718   3.080  2.1652 -0.9594  0.0412
11402TIP3    H255622   4.799   3.769   3.221 -0.6200  0.2561 -0.6983
11403TIP3   OH255623   5.776   4.732   0.484  0.2716 -0.0381 -0.5534
11403TIP3    H155624   5.789   4.816   0.528 -1.6129  1.1837 -2.1706
11403TIP3    H255625   5.853   4.721   0.429  0.1687  1.0424 -0.9313
11404TIP3   OH255626   5.390   2.719  11.588  0.0750  0.0147  0.8805
11404TIP3    H155627   5.322   2.783  11.611  0.9366  1.3490 -0.1766
11404TIP3    H255628   5.354   2.672  11.513 -1.2359 -1.9274  2.5959
11405TIP3   OH255629   3.020   6.385   3.680 -0.4095  0.3398  0.0687
11405TIP3    H155630   3.038   6.474   3.647  0.8293 -0.1464 -0.6395
11405TIP3    H255631   3.101   6.337   3.663 -0.2796 -0.3905  2.4320
11406TIP3   OH255632   3.114   1.940  11.766  0.1532 -0.2966 -0.1620
11406TIP3    H155633   3.119   1.927  11.860  2.2892  0.9926 -0.0289
11406TIP3    H255634   3.174   1.875  11.729  2.6145  1.8532 -0.2386
11407TIP3   OH255635   0.436   4.811   4.018 -0.1241 -0.1487 -0.7844
11407TIP3    H155636   0.525   4.832   3.990  0.7851 -1.3897  0.9599
11407TIP3    H255637   0.446   4.778   4.107 -2.2042 -1.3936 -0.9325
11408TIP3   OH255638   1.170   2.417  16.487 -0.0030  0.7461  0.0517
11408TIP3    H155639   1.184   2.384  16.575 -0.8688 -0.9426 -0.3902
11408TIP3    H255640   1.250   2.394  16.439 -0.3345 -0.1910 -0.0825
11409TIP3   OH255641   4.443   2.088   1.718  0.1856  0.1458  0.1913
11409TIP3    H155642   4.395   2.033   1.780 -0.0035 -0.9068 -0.8468
11409TIP3    H255643   4.396   2.171   1.718  0.4921  0.3576  1.8191
11410TIP3   OH255644   4.887   3.008   1.835 -0.6663  0.3144  0.0143
11410TIP3    H155645   4.970   2.996   1.881 -0.2695 -0.0118 -0.7602
11410TIP3    H255646   4.874   2.927   1.787 -1.5888  0.2544  0.3496
11411TIP3   OH255647   2.718   4.084  11.330  0.3559 -0.6151 -0.2148
11411TIP3    H155648   2.690   3.997  11.302 -1.1367  0.9108 -4.1890
11411TIP3    H255649   2.639   4.127  11.361  0.3572  0.3474 -1.4735
11412TIP3   OH255650   0.797   1.466   4.843  0.6580  0.3428  0.3648
11412TIP3    H155651   0.842   1.544   4.812  1.8990 -1.2111 -2.0551
11412TIP3    H255652   0.863   1.397   4.840 -0.0929 -0.6838  3.4291
11413TIP3   OH255653   4.424   6.508  14.276 -0.1369  0.3440 -0.1170
11413TIP3    H155654   4.465   6.422  14.276  1.7342  1.1523  0.9183
11413TIP3    H255655   4.442   6.543  14.189 -1.5976 -0.5611 -0.8227
11414TIP3   OH255656   1.062   0.518  13.653 -0.2360 -0.0689  0.0977
11414TIP3    H155657   1.022   0.500  13.568 -1.4597  0.5071  0.5268
11414TIP3    H255658   1.156   0.507  13.638 -0.3270  1.0967 -1.5980
11415TIP3   OH255659   3.469   1.813  13.147  0.2902 -0.0303  0.3286
11415TIP3    H155660   3.509   1.832  13.232  1.1308 -0.6457  0.0914
11415TIP3    H255661   3.375   1.809  13.165  0.5193 -1.0843  1.4298
11416TIP3   OH255662   5.384   2.849   3.978  0.1484 -0.3447 -0.1071
11416TIP3    H155663   5.441   2.917   3.940  1.7184 -1.6767 -0.2639
11416TIP3    H255664   5.350   2.888   4.058  1.0181  0.6414 -0.1915
11417TIP3   OH255665   1.958   0.005  13.841  0.1755 -0.0395  0.1258
11417TIP3    H155666   2.018   0.049  13.780  0.2108  0.2099  0.3360
11417TIP3    H255667   2.013  -0.056  13.890  0.4841  0.9772  1.0876
11418TIP3   OH255668   1.729   1.049  14.676  0.3424  0.2450  0.6778
11418TIP3    H155669   1.661   1.113  14.696 -0.3736 -0.2634 -0.0457
11418TIP3    H255670   1.768   1.028  14.761 -0.5203  0.4238  1.1334
11419TIP3   OH255671   1.048   5.303   5.097 -0.6368  0.6772  0.0744
11419TIP3    H155672   1.058   5.398   5.107 -0.2520  0.7599 -0.9718
11419TIP3    H255673   1.126   5.266   5.139  0.3157  0.9469 -1.3828
11420TIP3   OH255674   1.317   3.149   1.257  0.8821  0.7070 -0.1450
11420TIP3    H155675   1.331   3.107   1.342  0.7796 -0.0335 -0.4802
11420TIP3    H255676   1.400   3.191   1.237  1.0942  0.3962  0.0637
11421TIP3   OH255677   1.066   1.609   1.121 -0.2880 -0.1941  0.0560
11421TIP3    H155678   1.078   1.601   1.026  0.8915  0.7768  0.1010
11421TIP3    H255679   1.022   1.528   1.146  2.3342 -2.0616 -0.8822
11422TIP3   OH255680   2.562   6.496   0.135 -0.1628  0.2038 -0.3566
11422TIP3    H155681   2.657   6.505   0.120  0.0234  0.9853  1.1016
11422TIP3    H255682   2.540   6.413   0.094  0.7791  0.8446 -2.3624
11423TIP3   OH255683   0.113   0.286  13.388 -0.1521  0.4587 -0.2551
11423TIP3    H155684   0.144   0.206  13.431 -0.1171  0.3723 -0.4428
11423TIP3    H255685   0.114   0.352  13.457  0.4739  0.4663 -0.2698
11424TIP3   OH255686   1.569   2.782  14.737  0.0090  0.0974  0.1487
11424TIP3    H155687   1.515   2.851  14.699 -0.0330  0.5837  1.0524
11424TIP3    H255688   1.657   2.798  14.702 -0.3009 -0.3204 -0.8382
11425TIP3   OH255689   4.701   6.332   5.967 -0.0929  0.2566  0.1196
11425TIP3    H155690   4.614   6.333   5.926  0.3336 -1.0045 -0.9040
11425TIP3    H255691   4.703   6.410   6.022 -2.7300 -0.8345  1.9611
11426TIP3   OH255692   3.713   2.321  14.095  0.3056  0.5201  0.7655
11426TIP3    H155693   3.625   2.340  14.063 -0.9402  0.3031  3.7333
11426TIP3    H255694   3.710   2.344  14.188  3.3869  0.4160  0.9965
11427TIP3   OH255695   3.870   0.292  16.391 -0.0173 -0.1473 -0.5474
11427TIP3    H155696   3.867   0.361  16.457 -0.4885 -1.1917  0.5705
11427TIP3    H255697   3.902   0.335  16.312 -0.9175  1.4795 -0.0624
11428TIP3   OH255698   4.098   4.404  14.683 -0.0739  0.4194  0.1508
11428TIP3    H155699   4.106   4.472  14.616 -0.2922 -0.2772 -0.5885
11428TIP3    H255700   4.178   4.352  14.676 -1.2523 -1.2922 -1.4238
11429TIP3   OH255701   1.421   4.239  13.753  0.3738  0.4571  0.3427
11429TIP3    H155702   1.475   4.242  13.831  0.0064  1.3071  0.5811
11429TIP3    H255703   1.473   4.192  13.688  1.3523  1.1593  0.6025
11430TIP3   OH255704   1.041   0.725   0.035 -0.3542  0.2054 -0.1199
11430TIP3    H155705   1.025   0.817   0.059 -0.8308 -0.3416  1.8891
11430TIP3    H255706   0.990   0.712  -0.045 -0.4632  1.6316 -0.3161
11431TIP3   OH255707   2.011   3.532  10.520 -0.0240 -0.0707 -0.1680
11431TIP3    H155708   1.973   3.549  10.434  0.7551  0.2730 -0.4515
11431TIP3    H255709   2.053   3.615  10.544 -0.2614 -0.1553  0.5560
11432TIP3   OH255710   0.673   2.780   2.877  0.0857  0.1488 -0.3855
11432TIP3    H155711   0.644   2.689   2.869  0.4713  0.0075 -0.2069
11432TIP3    H255712   0.651   2.805   2.967 -1.2708  0.6844 -0.8313
11433TIP3   OH255713   4.636   2.482   2.942 -0.0300  0.2730 -0.1128
11433TIP3    H155714   4.571   2.423   2.904  0.5287  0.5411 -1.5716
11433TIP3    H255715   4.588   2.531   3.009 -0.8752 -0.7509  0.0543
11434TIP3   OH255716   1.291   2.037   1.910 -0.3000  0.5577  0.3739
11434TIP3    H155717   1.262   2.129   1.913  1.0118  0.9660  2.1545
11434TIP3    H255718   1.383   2.041   1.936 -0.6381 -1.4157  2.0919
11435TIP3   OH255719   5.036   3.823  14.533  0.4833  0.2775 -0.6357
11435TIP3    H155720   4.980   3.898  14.514  0.6570  0.3895 -0.7053
11435TIP3    H255721   5.041   3.821  14.629 -0.4368 -0.3227 -0.5961
11436TIP3   OH255722   3.826   0.464  15.510  0.7019 -0.0639  0.3004
11436TIP3    H155723   3.810   0.555  15.532  1.9205 -0.1747  1.8662
11436TIP3    H255724   3.741   0.421  15.522  0.3639  0.6676  0.5899
11437TIP3   OH255725   3.315   1.362  17.028  0.4631 -0.2305  0.0273
11437TIP3    H155726   3.240   1.401  16.984  1.0429  0.5686 -0.2710
11437TIP3    H255727   3.291   1.270  17.040 -0.2656 -0.1388 -0.7023
11438TIP3   OH255728   6.471   0.855   5.217 -1.0064  0.4492  0.0307
11438TIP3    H155729   6.537   0.924   5.212 -1.0623  0.6096  1.2303
11438TIP3    H255730   6.496   0.793   5.148  1.4186 -0.3543  1.5279
11439TIP3   OH255731   4.321   6.665  13.341  0.1648  0.3728  0.0885
11439TIP3    H155732   4.268   6.590  13.313  0.2135  1.1019 -2.1498
11439TIP3    H255733   4.384   6.628  13.403  0.1952 -1.4451 -0.9612
11440TIP3   OH255734   1.660   1.296  13.522 -0.3318  0.0165  0.2930
11440TIP3    H155735   1.698   1.375  13.481  1.7126 -0.1948  1.6293
11440TIP3    H255736   1.590   1.270  13.462  0.8775  1.1522 -1.7525
11441TIP3   OH255737   6.126   0.498  12.543 -0.0692  0.0916 -0.2189
11441TIP3    H155738   6.171   0.551  12.477  1.4005  0.2349  0.8538
11441TIP3    H255739   6.182   0.420  12.553 -1.3630 -0.9137 -0.6181
11442TIP3   OH255740   2.523   4.109  12.163 -0.4249  0.8155  0.0791
11442TIP3    H155741   2.436   4.098  12.200 -2.3598 -0.6044 -4.2823
11442TIP3    H255742   2.574   4.037  12.200 -1.8384  0.1558  0.8230
11443TIP3   OH255743   1.979   6.464  11.857  0.2012 -0.0973  0.2022
11443TIP3    H155744   1.938   6.414  11.786 -1.2660  1.6263 -0.2238
11443TIP3    H255745   2.014   6.397  11.915 -1.2743 -1.6348 -0.5793
11444TIP3   OH255746   2.838   0.571  15.195 -0.0957  0.2298 -0.3086
11444TIP3    H155747   2.818   0.477  15.196 -0.2399  0.2232 -1.7964
11444TIP3    H255748   2.796   0.603  15.115 -0.4270  1.6622  0.4190
11445TIP3   OH255749   3.485   5.403   4.604  0.5630  0.5167  0.4021
11445TIP3    H155750   3.398   5.367   4.588  1.4569 -1.5083 -0.3547
11445TIP3    H255751   3.505   5.379   4.694  0.0748  1.6371  0.8229
11446TIP3   OH255752   0.969   4.620   3.504 -0.0327 -0.5726 -0.1262
11446TIP3    H155753   0.979   4.682   3.577  0.6374  0.8115 -1.3383
11446TIP3    H255754   1.057   4.584   3.492  0.7088  1.7446 -2.3610
11447TIP3   OH255755   1.736   2.889   5.817  0.0748 -0.1258  0.3661
11447TIP3    H155756   1.789   2.955   5.863  0.9755 -1.4383  1.2728
11447TIP3    H255757   1.689   2.939   5.750  0.3531  1.5094  1.3426
11448TIP3   OH255758   5.833   0.386   1.040  0.1550 -0.0803  0.3654
11448TIP3    H155759   5.896   0.316   1.056  0.6020  0.4945  1.1936
11448TIP3    H255760   5.749   0.341   1.030  0.5863 -0.8030 -0.1051
11449TIP3   OH255761   4.954   5.932   4.100  0.7153 -0.0153 -0.4581
11449TIP3    H155762   4.872   5.885   4.092  0.6657 -0.0496  0.1582
11449TIP3    H255763   4.928   6.023   4.114  0.8144  0.2455 -1.8830
11450TIP3   OH255764   2.388   6.394   2.111  0.1792 -0.5992 -0.1508
11450TIP3    H155765   2.324   6.457   2.078  0.9987 -0.0127 -0.6599
11450TIP3    H255766   2.463   6.447   2.135  0.5835 -1.3107  0.1816
11451TIP3   OH255767   5.706   0.851   3.761  0.6233  0.3321  0.1590
11451TIP3    H155768   5.636   0.797   3.797 -0.7371  1.2271 -1.0236
11451TIP3    H255769   5.671   0.884   3.678  2.9093 -0.1728 -1.1045
11452TIP3   OH255770   4.950   0.889   2.936 -0.1314 -0.1992  0.2939
11452TIP3    H155771   4.872   0.922   2.980 -0.4963 -1.2890  0.4929
11452TIP3    H255772   4.921   0.809   2.892  0.2195  0.8108 -1.9339
11453TIP3   OH255773   5.002   1.729   4.176  0.1972 -0.5122  0.1104
11453TIP3    H155774   5.024   1.708   4.267  1.5164  1.3006  0.2732
11453TIP3    H255775   4.969   1.819   4.180 -0.3669 -0.6438 -1.1328
11454TIP3   OH255776   1.017   4.413   5.472 -0.3277  0.1881  0.4933
11454TIP3    H155777   0.972   4.366   5.542 -1.8629 -0.0360 -0.6021
11454TIP3    H255778   1.108   4.418   5.502 -0.7763 -0.5859  2.1289
11455TIP3   OH255779   0.873   4.387  12.847  0.7165 -0.2186 -0.0158
11455TIP3    H155780   0.966   4.367  12.833  0.8205  0.0429  0.2849
11455TIP3    H255781   0.867   4.482  12.838  0.5212 -0.2081  0.2182
11456TIP3   OH255782   1.979   2.839   3.577  0.3008 -0.0311 -0.9560
11456TIP3    H155783   1.917   2.867   3.645 -0.2570 -2.0947 -0.5583
11456TIP3    H255784   1.926   2.829   3.498  0.2464 -1.0363 -0.8068
11457TIP3   OH255785   6.234   0.717  12.333  0.2432  0.0479 -0.3327
11457TIP3    H155786   6.150   0.756  12.311 -0.4801  0.7620  3.1342
11457TIP3    H255787   6.265   0.766  12.409  3.2308 -1.0162 -0.6944
11458TIP3   OH255788   5.561   2.663  16.616 -0.0555 -0.2565  0.1414
11458TIP3    H155789   5.528   2.703  16.536  0.7928 -1.3524 -0.7902
11458TIP3    H255790   5.652   2.692  16.621 -0.1384 -0.0992  0.7773
11459TIP3   OH255791   4.769   4.746  14.723  0.0363  0.2292 -1.0804
11459TIP3    H155792   4.831   4.703  14.781 -1.7561 -1.3309 -0.1991
11459TIP3    H255793   4.821   4.811  14.675  1.6161  1.7303  2.3010
11460TIP3   OH255794   4.179   3.255   1.428 -0.2575  1.3543 -0.0703
11460TIP3    H155795   4.111   3.244   1.495  0.9080 -1.4326  0.7878
11460TIP3    H255796   4.217   3.341   1.448  0.1637  0.5789  3.0461
11461TIP3   OH255797   0.293   1.344  14.542 -0.3473  0.4819 -0.4622
11461TIP3    H155798   0.205   1.308  14.526 -0.5961  0.0313  1.5576
11461TIP3    H255799   0.337   1.339  14.458 -0.3628 -4.5749 -0.4585
11462TIP3   OH255800   0.782   5.989   4.284 -0.2424  0.2661  0.2666
11462TIP3    H155801   0.737   5.986   4.368 -0.0553  0.5488  0.3801
11462TIP3    H255802   0.812   5.899   4.269 -1.0369  0.0310  0.0797
11463TIP3   OH255803   1.054   0.163   0.638 -0.3769 -0.0778  0.0507
11463TIP3    H155804   1.061   0.070   0.616  1.6292  0.0279  0.0615
11463TIP3    H255805   1.032   0.165   0.731  0.7642 -0.5739  0.3479
11464TIP3   OH255806   0.993   1.831   5.029  0.3477  0.5508 -0.2108
11464TIP3    H155807   1.042   1.749   5.039  0.1820  0.6150  1.3753
11464TIP3    H255808   1.060   1.897   5.010  0.5620  0.1964 -0.7205
11465TIP3   OH255809   6.596   2.116  12.227 -0.8311 -0.1317 -0.5676
11465TIP3    H155810   6.510   2.131  12.267  0.4819 -0.7358  2.8413
11465TIP3    H255811   6.607   2.021  12.229 -0.1631 -0.0705 -1.1642
11466TIP3   OH255812   6.707   6.671  16.215 -0.1535  0.3443 -0.0362
11466TIP3    H155813   6.715   6.585  16.176  0.5857  0.9061 -1.1598
11466TIP3    H255814   6.665   6.725  16.148 -1.8579  0.5638  1.1260
11467TIP3   OH255815   0.775   3.154   3.350  0.0587 -1.2064 -0.1492
11467TIP3    H155816   0.713   3.219   3.318  1.0346 -1.1732 -2.0804
11467TIP3    H255817   0.793   3.098   3.274  2.1673 -1.3941  0.4402
11468TIP3   OH255818   4.800   6.102   5.061 -0.1315  0.3693  0.4628
11468TIP3    H155819   4.810   6.014   5.024 -1.9446  0.2865  0.0723
11468TIP3    H255820   4.863   6.155   5.012  2.0433 -0.9352  1.6859
11469TIP3   OH255821   1.259   0.851  14.326  0.3896 -0.8213 -0.2159
11469TIP3    H155822   1.220   0.823  14.244 -0.4800  2.4393 -1.0757
11469TIP3    H255823   1.353   0.858  14.306 -0.0134  1.9593 -1.7869
11470TIP3   OH255824   3.553   0.945  16.309 -0.3161 -0.5118  0.3457
11470TIP3    H155825   3.530   1.022  16.256 -1.0340  0.2383  1.6975
11470TIP3    H255826   3.482   0.882  16.292  0.6467 -1.2220 -1.3312
11471TIP3   OH255827   3.332   5.838  12.654  0.0032  0.2586 -0.3091
11471TIP3    H155828   3.304   5.816  12.744  0.1400  1.8468  0.1475
11471TIP3    H255829   3.265   5.799  12.599 -0.3555 -0.3302  0.5121
11472TIP3   OH255830   3.028   1.251  14.776  0.2816 -0.3020  0.4362
11472TIP3    H155831   2.957   1.186  14.785  1.3684 -1.4428  1.2082
11472TIP3    H255832   3.052   1.272  14.866  1.3707 -0.4541  0.1971
11473TIP3   OH255833   4.931   5.455  16.076  0.1824 -0.2671  0.2976
11473TIP3    H155834   4.947   5.543  16.109 -1.1237 -0.0271  0.3665
11473TIP3    H255835   4.968   5.397  16.142  1.3736  0.2276  0.0783
11474TIP3   OH255836   0.896   0.595   5.136 -0.1818  0.5111 -0.5824
11474TIP3    H155837   0.857   0.591   5.049  0.7366  1.0221 -1.0372
11474TIP3    H255838   0.822   0.595   5.196 -0.9507  2.4747 -1.4531
11475TIP3   OH255839   3.950   4.274  16.166  0.0682 -0.0904 -0.1662
11475TIP3    H155840   4.029   4.275  16.112  0.8116 -0.6958  0.8863
11475TIP3    H255841   3.941   4.183  16.194 -1.0777 -0.0577 -0.3564
11476TIP3   OH255842   4.493   0.400  13.052 -0.0793  0.2361  0.1415
11476TIP3    H155843   4.581   0.368  13.033  0.5808  2.2020 -0.2554
11476TIP3    H255844   4.504   0.492  13.074 -1.8268  0.0816  2.0023
11477TIP3   OH255845   3.466   4.331  13.831  0.3133 -0.7907 -0.0016
11477TIP3    H155846   3.423   4.261  13.881 -0.2690 -0.6984 -0.3715
11477TIP3    H255847   3.396   4.391  13.808  0.4525 -1.1487 -1.4706
11478TIP3   OH255848   0.980   6.335   4.968 -0.1046  0.1505 -0.4610
11478TIP3    H155849   1.056   6.278   4.967  0.3611  0.7681 -0.7885
11478TIP3    H255850   1.015   6.422   4.990 -0.7426  0.3993 -0.3882
11479TIP3   OH255851   4.541   1.368   2.107 -0.0652 -0.5846  0.3336
11479TIP3    H155852   4.488   1.321   2.042  0.8863 -2.3227  0.7616
11479TIP3    H255853   4.495   1.354   2.190  0.0660 -0.5030  0.4201
11480TIP3   OH255854   4.671   0.034  12.673  0.3726 -0.6218  0.2403
11480TIP3    H155855   4.704  -0.055  12.662  1.4041 -0.0997 -1.2853
11480TIP3    H255856   4.629   0.054  12.589 -0.3811  0.1232  0.7777
11481TIP3   OH255857   3.527   5.091   0.715  0.2506 -0.6663 -0.5407
11481TIP3    H155858   3.595   5.155   0.695 -0.0828 -0.4178 -0.9184
11481TIP3    H255859   3.540   5.069   0.807  0.5828 -0.3112 -0.5012
11482TIP3   OH255860   5.099   2.885  16.901 -0.0648 -0.5920 -0.2456
11482TIP3    H155861   5.139   2.800  16.920 -0.8899 -0.4728  2.5137
11482TIP3    H255862   5.063   2.876  16.813  1.8250 -2.3014 -0.9108
11483TIP3   OH255863   3.410   2.870  16.983 -0.1660 -0.5656  0.4473
11483TIP3    H155864   3.349   2.882  17.055 -0.7565 -0.3059 -0.0826
11483TIP3    H255865   3.493   2.903  17.016 -0.3763 -0.6693  1.0841
11484TIP3   OH255866   3.009   4.643   3.972 -0.5639  0.4340  0.4270
11484TIP3    H155867   3.026   4.735   3.994  2.0836  0.0972  0.1537
11484TIP3    H255868   2.922   4.643   3.932  0.1844  3.1786 -1.4700
11485TIP3   OH255869   4.946   3.580  13.895 -0.2471 -0.3097  0.4849
11485TIP3    H155870   4.854   3.608  13.892 -0.2152 -0.2476 -0.0297
11485TIP3    H255871   4.996   3.660  13.876 -0.1363 -0.5911 -0.4705
11486TIP3   OH255872   2.671   4.989  12.980  0.3641 -0.1133  0.3022
11486TIP3    H155873   2.635   4.951  12.899 -0.3090 -1.0639  1.0164
11486TIP3    H255874   2.647   5.081  12.975  1.4974  0.1492 -1.1973
11487TIP3   OH255875   5.007   5.574  11.693 -0.3384  0.5886 -0.0799
11487TIP3    H155876   4.978   5.578  11.602 -1.0258 -1.6829 -0.0102
11487TIP3    H255877   4.934   5.612  11.743 -0.2529  1.2039 -0.4159
11488TIP3   OH255878   5.950   1.859  14.482  0.3002 -0.3029  0.0465
11488TIP3    H155879   5.892   1.785  14.464 -0.1400  0.2817 -1.0343
11488TIP3    H255880   6.010   1.826  14.549 -1.2557 -0.9291  1.1927
11489TIP3   OH255881   3.498   1.463  16.430  0.2567  0.3780 -0.0316
11489TIP3    H155882   3.480   1.404  16.503 -0.0941  1.9661  1.2405
11489TIP3    H255883   3.569   1.519  16.462  0.1612  1.0554 -0.9534
11490TIP3   OH255884   1.212   4.133  12.962 -0.1484 -0.0325 -0.4643
11490TIP3    H155885   1.257   4.077  12.899 -0.1282  0.1861 -0.6421
11490TIP3    H255886   1.174   4.071  13.025  1.0099 -0.1964  0.1121
11491TIP3   OH255887   4.109   2.016   5.466  0.3903 -0.0656  0.2073
11491TIP3    H155888   4.173   2.036   5.397  0.6839  0.6211  0.6685
11491TIP3    H255889   4.163   2.000   5.544 -0.0107  0.8962  0.6925
11492TIP3   OH255890   4.962   0.401   4.144  0.4547 -0.5325 -0.6130
11492TIP3    H155891   4.953   0.321   4.195 -2.4487 -0.7471 -1.3026
11492TIP3    H255892   4.971   0.470   4.210 -2.2398 -0.9128  0.2981
11493TIP3   OH255893   6.603   2.983   5.716 -0.0247  0.0291  0.1627
11493TIP3    H155894   6.545   2.985   5.792  1.1580  1.3852  1.0749
11493TIP3    H255895   6.646   2.898   5.720 -0.0702  0.0397  0.9208
11494TIP3   OH255896   4.107   2.200  14.740 -0.5259  0.1016  0.3070
11494TIP3    H155897   4.025   2.226  14.697 -0.3409  0.7451  0.3380
11494TIP3    H255898   4.085   2.117  14.783 -0.6767 -0.6393 -1.1356
11495TIP3   OH255899   6.236   6.652   4.518 -0.0522  0.4896  0.7998
11495TIP3    H155900   6.207   6.590   4.451 -0.4665  0.6076  0.8685
11495TIP3    H255901   6.327   6.628   4.535  0.1721  0.6808 -0.0626
11496TIP3   OH255902   1.132   0.157  16.510  0.1007  0.0729 -0.4310
11496TIP3    H155903   1.142   0.064  16.491  1.8888  0.0952  0.1475
11496TIP3    H255904   1.041   0.167  16.536  0.0157 -1.6270  0.0413
11497TIP3   OH255905   4.401   2.743  16.438  0.1804  0.5666  0.0366
11497TIP3    H155906   4.377   2.812  16.500  2.3729  1.6631 -0.2247
11497TIP3    H255907   4.344   2.757  16.363 -1.9711 -0.2830  1.4042
11498TIP3   OH255908   2.782   0.279  12.605  0.4598  0.6636  0.4490
11498TIP3    H155909   2.695   0.320  12.607  0.0874 -0.0792  0.1440
11498TIP3    H255910   2.766   0.193  12.566  1.2968  0.4165  0.6400
11499TIP3   OH255911   4.432   2.515   2.141  0.1455  0.5494  0.1393
11499TIP3    H155912   4.339   2.535   2.151 -0.2325 -1.9355  2.5317
11499TIP3    H255913   4.475   2.568   2.208  0.5393  1.6538 -0.9282
11500TIP3   OH255914   1.612   0.794   0.692  0.0465  0.0849 -0.4052
11500TIP3    H155915   1.564   0.710   0.699  1.0588 -0.4350  0.6687
11500TIP3    H255916   1.674   0.791   0.764  0.3331  1.6399 -0.5684
11501TIP3   OH255917   1.838   4.671  15.045 -0.1235 -0.1652 -0.1019
11501TIP3    H155918   1.880   4.756  15.061  2.6200 -0.9584 -2.2535
11501TIP3    H255919   1.848   4.657  14.951 -0.5821 -2.8503  0.1799
11502TIP3   OH255920   2.394   3.510   4.839 -0.1239  0.5501  1.3042
11502TIP3    H155921   2.363   3.496   4.928 -0.6905  0.4447  1.0950
11502TIP3    H255922   2.354   3.439   4.789  0.2796  0.5434  0.9858
11503TIP3   OH255923   0.779   1.196   0.116  0.1295  0.4394  0.1028
11503TIP3    H155924   0.794   1.290   0.125  1.8829  0.1821  0.1772
11503TIP3    H255925   0.705   1.178   0.174  0.6077  1.5655  1.1109
11504TIP3   OH255926   1.051   6.154   0.968  0.7633 -0.0351  0.1238
11504TIP3    H155927   1.141   6.158   0.935  0.9475 -0.6413  0.5281
11504TIP3    H255928   1.055   6.198   1.053  0.2669  1.6260 -0.6890
11505TIP3   OH255929   6.807   0.921  12.433 -0.0574 -0.2006 -0.3582
11505TIP3    H155930   6.724   0.959  12.403 -0.5961 -0.5203  0.6550
11505TIP3    H255931   6.794   0.827  12.425 -0.5303 -0.3404  1.5598
11506TIP3   OH255932   2.016   0.231  12.416  0.3376 -0.0377  0.7979
11506TIP3    H155933   2.006   0.153  12.471 -0.3670 -0.1882  0.4691
11506TIP3    H255934   1.979   0.206  12.331 -0.8528  0.9589  0.9789
11507TIP3   OH255935   3.368   3.874   3.412 -0.2185  0.2051  0.9112
11507TIP3    H155936   3.323   3.957   3.430  2.0019  1.4301  1.1976
11507TIP3    H255937   3.452   3.883   3.458  0.4382 -1.8491  0.1844
11508TIP3   OH255938   6.216   4.985  10.812  0.8297 -0.0374 -0.1159
11508TIP3    H155939   6.287   4.970  10.750  0.8836 -0.4369  0.0413
11508TIP3    H255940   6.161   5.051  10.770  0.6995 -0.5272 -0.7297
11509TIP3   OH255941   6.797   1.704  14.480  0.1997  0.0347  0.2409
11509TIP3    H155942   6.868   1.668  14.535 -0.0085 -2.8878 -1.1983
11509TIP3    H255943   6.722   1.649  14.500 -0.1879 -0.3540 -2.0620
11510TIP3   OH255944   2.961   2.524  15.768 -0.3153 -0.0842  0.5185
11510TIP3    H155945   2.907   2.603  15.773  0.3072  0.5450 -1.6102
11510TIP3    H255946   2.904   2.459  15.725 -0.0267 -0.0172  0.0269
11511TIP3   OH255947   4.190   4.037  11.999 -0.6322 -0.1485  0.0306
11511TIP3    H155948   4.095   4.052  12.007 -0.8290  0.5909 -2.5653
11511TIP3    H255949   4.230   4.115  12.038 -1.0954 -0.3431  0.9084
11512TIP3   OH255950   0.238   0.441   0.784  0.2944  0.0424  0.1122
11512TIP3    H155951   0.195   0.363   0.819  1.6996 -0.6395  0.3672
11512TIP3    H255952   0.170   0.483   0.731 -0.6144 -1.1285  0.2957
11513TIP3   OH255953   5.989   0.306   2.067 -0.6834 -0.2640 -0.1331
11513TIP3    H155954   6.063   0.363   2.090 -0.4480 -0.5541 -0.1715
11513TIP3    H255955   5.998   0.230   2.123 -1.0988 -0.1917  0.0394
11514TIP3   OH255956   3.735   0.408  12.980  0.2204  0.6215  0.5265
11514TIP3    H155957   3.793   0.392  12.906 -1.2548  0.9415 -0.7538
11514TIP3    H255958   3.736   0.503  12.991  0.4776  0.5702  0.9555
11515TIP3   OH255959   6.579   6.493   2.519 -0.5421  0.2827  0.1475
11515TIP3    H155960   6.529   6.531   2.447 -1.0991  0.3772  0.5754
11515TIP3    H255961   6.578   6.561   2.587 -0.6708 -0.0929  0.5286
11516TIP3   OH255962   1.445   3.521   1.273 -0.3268  0.1701  0.6001
11516TIP3    H155963   1.389   3.465   1.219 -0.2255  0.0233  0.6484
11516TIP3    H255964   1.386   3.555   1.341 -0.0360 -1.2093  1.5786
11517TIP3   OH255965   5.816   6.252   5.061  0.6086 -0.1656 -0.2157
11517TIP3    H155966   5.783   6.191   5.127  0.2416 -0.4292 -0.6340
11517TIP3    H255967   5.782   6.219   4.978 -1.4651  1.8169 -0.2520
11518TIP3   OH255968   3.423   1.050  13.891  0.2165  0.1732  0.1195
11518TIP3    H155969   3.517   1.035  13.893  0.1882 -0.0241  1.9881
11518TIP3    H255970   3.386   0.971  13.852  0.7472 -0.2541  0.4814
11519TIP3   OH255971   2.634   0.773  14.132 -0.4542  0.6453 -0.0631
11519TIP3    H155972   2.609   0.702  14.192 -0.2622  1.0737  0.5337
11519TIP3    H255973   2.715   0.742  14.091  0.0051  0.8061  0.7057
11520TIP3   OH255974   0.130   4.957   2.771  0.6901 -0.0806 -0.0431
11520TIP3    H155975   0.202   4.894   2.770  0.5318 -0.2602 -0.0411
11520TIP3    H255976   0.096   4.952   2.860  1.0263  0.4017  0.1173
11521TIP3   OH255977   1.574   1.857  15.326 -0.1493 -0.6071  0.1481
11521TIP3    H155978   1.578   1.900  15.411  1.0861 -0.0061 -0.1913
11521TIP3    H255979   1.485   1.874  15.295 -0.7574 -1.2013  1.4868
11522TIP3   OH255980   5.103   5.296   2.491 -0.5170  0.5514 -0.3744
11522TIP3    H155981   5.118   5.209   2.528  0.2954  0.9052  0.1499
11522TIP3    H255982   5.040   5.336   2.551 -0.8884  0.3338 -0.6134
11523TIP3   OH255983   4.404   3.541   4.839 -0.0567  0.2750  0.4441
11523TIP3    H155984   4.378   3.597   4.766 -0.7424  2.4117  2.2261
11523TIP3    H255985   4.400   3.452   4.803  2.1353  1.3174 -2.8191
11524TIP3   OH255986   6.522   2.420   4.312  0.3917 -0.5234  0.6963
11524TIP3    H155987   6.478   2.497   4.276  0.3437 -1.8256 -2.3254
11524TIP3    H255988   6.603   2.454   4.351 -0.1540  1.1567  0.4235
11525TIP3   OH255989   2.140   6.682   2.966  0.0920 -0.2516 -0.3069
11525TIP3    H155990   2.169   6.665   2.877  1.5284 -1.3551  0.3182
11525TIP3    H255991   2.192   6.757   2.995  1.0427 -1.0723  0.1958
11526TIP3   OH255992   2.345   1.019  12.105  0.7230 -0.3251  0.0479
11526TIP3    H155993   2.253   0.992  12.111  0.5651  0.4129  1.2155
11526TIP3    H255994   2.389   0.944  12.066 -0.5417 -0.2769 -1.6155
11527TIP3   OH255995   3.230   6.405  15.365 -0.0174  0.4657 -0.5363
11527TIP3    H155996   3.298   6.431  15.303  0.1540  0.5602 -0.3105
11527TIP3    H255997   3.274   6.404  15.450 -0.3826  0.8606 -0.3414
11528TIP3   OH255998   3.759   5.645   1.845  0.6244  0.0601  0.1554
11528TIP3    H155999   3.765   5.739   1.824  0.6307 -0.3278 -1.8221
11528TIP3    H256000   3.674   5.635   1.887  0.0268  0.7639 -0.8427
11529TIP3   OH256001   4.792   6.352  14.378  0.0658  0.0363  0.2560
11529TIP3    H156002   4.738   6.284  14.339 -2.7564  1.5798  1.2341
11529TIP3    H256003   4.842   6.307  14.446 -1.0982 -1.2017  0.3228
11530TIP3   OH256004   6.084   2.436  16.001 -0.8241  0.1444  0.3121
11530TIP3    H156005   6.083   2.439  15.905  0.3339 -0.7621  0.2663
11530TIP3    H256006   6.174   2.457  16.025 -0.9076 -0.4551  1.1772
11531TIP3   OH256007   3.779   5.270   1.289  0.2269 -0.3553 -0.6884
11531TIP3    H156008   3.692   5.255   1.324  0.0891  2.0204  0.1619
11531TIP3    H256009   3.828   5.190   1.309 -0.8796 -0.5089  1.6493
11532TIP3   OH256010   0.514   6.793   4.061  0.0532  0.0413  0.0993
11532TIP3    H156011   0.512   6.860   3.993  0.1362 -0.4660 -0.4103
11532TIP3    H256012   0.501   6.841   4.143  0.5668  0.7381 -0.2164
11533TIP3   OH256013   0.280   6.671  12.132  0.2470  0.3412 -0.3211
11533TIP3    H156014   0.274   6.746  12.072 -0.4143  0.8887  0.4040
11533TIP3    H256015   0.237   6.599  12.084  0.6945  0.4698 -0.9344
11534TIP3   OH256016   6.617   5.735  11.185 -0.0844  0.4628  0.2648
11534TIP3    H156017   6.663   5.777  11.112  0.2646 -2.3045 -1.2837
11534TIP3    H256018   6.670   5.658  11.205 -2.1582 -0.8907  0.8752
11535TIP3   OH256019   5.913   3.844   4.068 -0.3012 -0.3842  0.0388
11535TIP3    H156020   5.998   3.889   4.062 -0.2172 -0.5028  0.3392
11535TIP3    H256021   5.932   3.754   4.041 -0.4245 -0.2984 -0.3400
11536TIP3   OH256022   1.652   5.625   4.029 -0.0108 -0.1076 -0.6865
11536TIP3    H156023   1.590   5.574   4.082 -2.4571  1.2816 -2.0308
11536TIP3    H256024   1.667   5.571   3.951 -0.9160  0.2444 -1.1256
11537TIP3   OH256025   2.498   4.753   5.906 -0.3383  0.4214  0.2353
11537TIP3    H156026   2.547   4.826   5.943  2.5384 -1.1634 -0.2180
11537TIP3    H256027   2.466   4.704   5.982  0.7078  0.2622  0.5781
11538TIP3   OH256028   6.208   0.543  12.869  0.0945 -0.3825  0.1907
11538TIP3    H156029   6.161   0.622  12.898  0.3186 -0.1216 -0.1450
11538TIP3    H256030   6.156   0.510  12.796  0.3017 -0.2275 -0.0285
11539TIP3   OH256031   0.308   0.632  16.525  0.7783 -0.2820 -0.6911
11539TIP3    H156032   0.258   0.704  16.564  0.8497  0.9785 -2.7914
11539TIP3    H256033   0.391   0.672  16.500  1.5484 -1.5675 -0.2572
11540TIP3   OH256034   3.473   0.046  13.524  0.8604 -0.4441  0.1029
11540TIP3    H156035   3.482   0.131  13.482 -1.1945  0.8205  1.9666
11540TIP3    H256036   3.508  -0.017  13.461  0.5666  1.5648 -2.1751
11541TIP3   OH256037   3.847   1.923  16.428 -0.3345  0.3386  0.1423
11541TIP3    H156038   3.787   1.876  16.370  0.6199 -0.4855 -0.2200
11541TIP3    H256039   3.802   2.004  16.450 -0.6670  0.7530 -1.8956
11542TIP3   OH256040   2.451   1.888  15.940  0.0799 -0.4419 -0.3079
11542TIP3    H156041   2.508   1.963  15.951  1.8194 -1.9238  1.6895
11542TIP3    H256042   2.367   1.916  15.976  0.2649  0.9581 -0.9056
11543TIP3   OH256043   1.100   2.535  16.256 -0.3645 -0.4202  0.6409
11543TIP3    H156044   1.108   2.474  16.330  0.2351 -1.8525 -0.5322
11543TIP3    H256045   1.180   2.520  16.205 -1.3269 -0.3913 -0.9441
11544TIP3   OH256046   3.949   4.526   0.494 -0.4506  0.1438 -1.0157
11544TIP3    H156047   4.025   4.527   0.552  0.0074 -0.0873 -1.6011
11544TIP3    H256048   3.978   4.575   0.417 -1.4101  1.3796 -0.6222
11545TIP3   OH256049   1.039   5.006   5.723 -0.3961  0.0566  0.2137
11545TIP3    H156050   1.119   4.957   5.704 -0.6863 -0.6403  0.7275
11545TIP3    H256051   1.028   5.065   5.649  0.1923 -0.3713 -0.2171
11546TIP3   OH256052   6.779   2.761  13.282 -0.0970  0.2427  0.1516
11546TIP3    H156053   6.840   2.810  13.226  2.3312  0.4848  2.7881
11546TIP3    H256054   6.799   2.669  13.265  0.6947  0.3142  0.6631
11547TIP3   OH256055   0.413   2.884  16.744  0.7058  0.8776  0.2435
11547TIP3    H156056   0.328   2.927  16.742  0.7944  1.0631  0.4041
11547TIP3    H256057   0.471   2.947  16.788  1.0506  0.9723 -0.3448
11548TIP3   OH256058   3.454   1.543   5.630 -0.0499 -0.3560 -0.0321
11548TIP3    H156059   3.372   1.560   5.583 -0.4661 -1.3597  0.3007
11548TIP3    H256060   3.444   1.589   5.714 -0.2522 -0.4475 -0.0069
11549TIP3   OH256061   0.900   1.642   2.725 -0.3673 -0.1662 -0.4323
11549TIP3    H156062   0.903   1.716   2.785 -1.3410 -0.1898 -0.3436
11549TIP3    H256063   0.927   1.567   2.779  1.7101  0.2613 -0.7962
11550TIP3   OH256064   1.629   0.283  10.923  0.3568 -0.5085 -0.6886
11550TIP3    H156065   1.536   0.304  10.932  0.0507 -1.7006 -0.9485
11550TIP3    H256066   1.653   0.317  10.837  0.2536  0.1144 -0.4757
11551TIP3   OH256067   2.156   0.739   0.749  0.0423 -0.4772  0.4500
11551TIP3    H156068   2.203   0.765   0.670 -3.0226 -1.0015 -1.7359
11551TIP3    H256069   2.154   0.643   0.746 -0.8383 -0.4798  0.6629
11552TIP3   OH256070   3.899   2.517   1.290  0.4523  0.3090  0.2845
11552TIP3    H156071   3.983   2.528   1.245 -0.2878  0.0838 -1.2330
11552TIP3    H256072   3.873   2.426   1.272  0.7947 -0.2692  2.4353
11553TIP3   OH256073   5.024   6.602  16.910 -0.0056 -0.3377 -0.0774
11553TIP3    H156074   5.064   6.652  16.838 -0.0228 -0.2027  0.0061
11553TIP3    H256075   5.075   6.626  16.987 -1.2777  1.1425  0.3438
11554TIP3   OH256076   3.029   6.361  16.339 -0.1674 -0.2326 -0.1616
11554TIP3    H156077   3.010   6.441  16.388  0.6453  0.9012 -1.6343
11554TIP3    H256078   3.080   6.307  16.399  1.7324  1.5689 -0.0682
11555TIP3   OH256079   5.108   3.071  13.990 -0.1482  0.4409 -0.2534
11555TIP3    H156080   5.169   3.141  14.013  0.2850 -0.0793  0.2274
11555TIP3    H256081   5.113   3.010  14.064 -0.7598  0.0623 -0.5160
11556TIP3   OH256082   5.660   2.521  12.242 -0.2122  0.1439  0.2631
11556TIP3    H156083   5.637   2.593  12.300 -0.2967  1.0823 -0.9057
11556TIP3    H256084   5.616   2.541  12.160  1.5406 -0.0754 -0.7782
11557TIP3   OH256085   2.587   4.062  13.213  0.2952  0.3415  0.3580
11557TIP3    H156086   2.663   4.031  13.164 -0.9064 -1.9511 -0.2042
11557TIP3    H256087   2.553   3.984  13.256 -3.0462  0.7312 -1.2345
11558TIP3   OH256088   3.967   3.271  15.581  0.5963  0.1706 -0.3231
11558TIP3    H156089   4.035   3.331  15.612 -0.5317  0.8093  1.0084
11558TIP3    H256090   3.990   3.187  15.622  0.8271  0.2623 -0.2597
11559TIP3   OH256091   1.594   0.023  11.046 -0.2620 -0.6751  0.4106
11559TIP3    H156092   1.543  -0.032  10.987 -1.6075  0.8353  0.0929
11559TIP3    H256093   1.623   0.096  10.991  1.8304 -1.2065  0.7188
11560TIP3   OH256094   1.313   0.268  15.719  0.4406  0.2223 -0.3839
11560TIP3    H156095   1.315   0.226  15.633  2.4548  0.7282 -0.6392
11560TIP3    H256096   1.247   0.219  15.768  1.1562 -1.8339 -1.3466
11561TIP3   OH256097   5.471   6.528   1.470  0.2383 -0.4839  0.2460
11561TIP3    H156098   5.462   6.571   1.384 -2.0729 -0.2587  0.5234
11561TIP3    H256099   5.520   6.591   1.523 -1.0638  0.8285 -0.0347
11562TIP3   OH256100   0.639   6.093   4.830  0.8526  0.0313 -0.4588
11562TIP3    H156101   0.711   6.096   4.893  0.6648  2.2688 -0.2749
11562TIP3    H256102   0.560   6.088   4.883  0.7153  1.4325 -0.5145
11563TIP3   OH256103   1.136   1.422   3.265 -0.4834  0.2518  0.2262
11563TIP3    H156104   1.120   1.394   3.175  0.6760  1.1710 -0.2886
11563TIP3    H256105   1.092   1.506   3.273 -2.1086 -0.6421  1.0994
11564TIP3   OH256106   1.281   6.724  12.077  0.1459  0.5931  0.4689
11564TIP3    H156107   1.360   6.712  12.025 -0.8129 -0.8267 -0.7330
11564TIP3    H256108   1.260   6.636  12.109 -1.3356  0.8242  0.1771
11565TIP3   OH256109   6.250   2.415  11.341  0.1641 -0.0385  0.2514
11565TIP3    H156110   6.169   2.465  11.332  0.7148  1.1774  1.6544
11565TIP3    H256111   6.315   2.465  11.292  0.7698  0.7943  1.8433
11566TIP3   OH256112   3.911   3.193   0.952  0.4444 -0.3096  0.3618
11566TIP3    H156113   3.984   3.204   1.013 -0.2549  0.1224  1.1498
11566TIP3    H256114   3.905   3.099   0.938  1.8254 -0.2864 -0.5763
11567TIP3   OH256115   5.304   5.597  13.056 -0.8792  0.3584  0.5949
11567TIP3    H156116   5.337   5.678  13.016  0.5241 -1.1814 -1.6098
11567TIP3    H256117   5.210   5.597  13.036 -0.4925  0.4137 -1.4422
11568TIP3   OH256118   4.425   0.462   3.905 -0.4898  0.4892 -0.4363
11568TIP3    H156119   4.421   0.377   3.862 -1.1516  0.2868  0.0091
11568TIP3    H256120   4.518   0.474   3.925 -0.6237 -1.1869  1.5304
11569TIP3   OH256121   0.112   4.713  16.805 -0.1851  0.3183 -0.1034
11569TIP3    H156122   0.099   4.648  16.735  1.0483 -1.6530  1.3794
11569TIP3    H256123   0.065   4.677  16.880  2.7483 -0.3620  1.5435
11570TIP3   OH256124   1.257   2.686   3.076 -0.0812 -0.1349  0.2547
11570TIP3    H156125   1.238   2.727   3.161  1.6497 -0.1551  0.7000
11570TIP3    H256126   1.228   2.596   3.086  1.1237 -0.4362  1.2521
11571TIP3   OH256127   3.342   4.192   1.357 -0.3070  0.1756  0.1222
11571TIP3    H156128   3.387   4.109   1.345  0.1477  0.5638 -1.0129
11571TIP3    H256129   3.311   4.216   1.269 -0.9628  0.8998  0.5372
11572TIP3   OH256130   2.398   4.771  12.214 -0.4342  0.2670 -0.2207
11572TIP3    H156131   2.330   4.839  12.219 -1.1741 -0.1320 -2.9701
11572TIP3    H256132   2.440   4.786  12.129  0.4368 -1.7547 -0.1937
11573TIP3   OH256133   0.365   4.555   4.886 -0.1195  0.5166 -0.0158
11573TIP3    H156134   0.275   4.586   4.884 -0.2458  0.2054  0.5505
11573TIP3    H256135   0.404   4.589   4.806 -1.0744 -0.3841 -0.8914
11574TIP3   OH256136   4.244   6.495  15.665 -0.4282  0.2437 -0.0800
11574TIP3    H156137   4.227   6.426  15.729  0.3467  0.7091  0.6349
11574TIP3    H256138   4.295   6.451  15.596 -1.3600 -0.2813 -0.4610
11575TIP3   OH256139   4.698   0.734  13.508 -0.5139 -0.0239  0.2263
11575TIP3    H156140   4.766   0.763  13.447  0.9648 -2.9967  0.2802
11575TIP3    H256141   4.627   0.703  13.452  0.0910 -1.0948  0.0415
11576TIP3   OH256142   0.855   2.855   1.894  0.2864 -0.1724  0.5131
11576TIP3    H156143   0.911   2.929   1.869 -0.0262 -0.5311 -1.4448
11576TIP3    H256144   0.795   2.846   1.820 -0.1652 -1.9269  1.0650
11577TIP3   OH256145   4.494   1.414  10.746  0.0460  0.4938  0.1422
11577TIP3    H156146   4.569   1.445  10.798  0.0996  1.4490 -0.4780
11577TIP3    H256147   4.434   1.488  10.746  1.0197  1.4327 -3.0295
11578TIP3   OH256148   1.520   2.010   4.498 -0.8321 -0.3161 -0.0210
11578TIP3    H156149   1.586   1.956   4.542  1.1125 -0.7488 -3.2116
11578TIP3    H256150   1.486   1.954   4.428  0.3791  2.0741 -2.6911
11579TIP3   OH256151   3.803   3.573   5.920  0.6482  0.1095  0.0129
11579TIP3    H156152   3.804   3.610   6.008  1.6432 -1.4414  0.7042
11579TIP3    H256153   3.796   3.649   5.862  0.9942  1.2430  1.3918
11580TIP3   OH256154   3.003   4.986  15.820  0.1370 -0.1437 -0.4007
11580TIP3    H156155   2.970   4.910  15.773  0.6018  0.1811 -1.2633
11580TIP3    H256156   2.926   5.044  15.829 -0.4496 -1.0831  1.0855
11581TIP3   OH256157   0.354   5.207   3.017 -0.9184 -0.0163 -0.9376
11581TIP3    H156158   0.380   5.238   2.930 -0.5702  0.2498 -0.7408
11581TIP3    H256159   0.266   5.243   3.029  0.4356  3.2203  0.3625
11582TIP3   OH256160   1.897   2.724   5.403 -0.0672  0.9090  0.0598
11582TIP3    H156161   1.986   2.743   5.374  0.6915 -0.7860  1.0952
11582TIP3    H256162   1.862   2.666   5.336 -0.2722  1.2986 -0.1721
11583TIP3   OH256163   1.377   4.333   2.121 -0.5205 -0.2946  0.1681
11583TIP3    H156164   1.307   4.395   2.100 -1.2112 -1.1736 -0.1948
11583TIP3    H256165   1.353   4.254   2.073  1.1412 -0.3611 -0.6021
11584TIP3   OH256166   3.358   5.485   1.064 -0.4140  0.3942 -0.4361
11584TIP3    H156167   3.451   5.480   1.085 -0.0693  1.6521 -1.5916
11584TIP3    H256168   3.317   5.423   1.125  1.0815  0.3336  0.5623
11585TIP3   OH256169   3.786   6.752  11.956 -0.1893 -0.2005 -0.0059
11585TIP3    H156170   3.793   6.811  12.031  0.0387  0.5785 -0.6293
11585TIP3    H256171   3.835   6.673  11.982  0.0874  0.1548  0.5636
11586TIP3   OH256172   4.243   2.854  12.860  0.1040 -0.2953  0.1137
11586TIP3    H156173   4.300   2.777  12.865 -0.7653 -0.8860  1.8253
11586TIP3    H256174   4.180   2.833  12.791  2.4653  0.8118 -2.5693
11587TIP3   OH256175   5.706   4.304   2.722  0.5582 -0.2920  0.1575
11587TIP3    H156176   5.715   4.322   2.628 -0.8375  0.7101  0.1846
11587TIP3    H256177   5.639   4.237   2.727  0.8415 -0.5554  0.4263
11588TIP3   OH256178   4.771   1.168   4.394  0.3590  0.0582  0.4434
11588TIP3    H156179   4.757   1.084   4.351 -0.7901 -0.1806  1.2386
11588TIP3    H256180   4.768   1.232   4.323 -0.4740 -0.4235  0.0285
11589TIP3   OH256181   5.482   4.686   1.788  0.4031 -0.2682 -0.6807
11589TIP3    H156182   5.532   4.629   1.730  0.4509 -0.0945 -0.8106
11589TIP3    H256183   5.537   4.763   1.798  0.3121 -0.2201 -0.5511
11590TIP3   OH256184   4.712   3.952  13.157 -0.3968 -0.1496  0.5073
11590TIP3    H156185   4.674   3.915  13.078 -0.6107 -0.5819  0.8099
11590TIP3    H256186   4.712   4.047  13.141  1.3996 -0.3046 -0.8318
11591TIP3   OH256187   4.776   4.189  15.625 -0.4157  0.1854  0.6678
11591TIP3    H156188   4.704   4.219  15.681 -0.2029 -1.6417  2.0428
11591TIP3    H256189   4.734   4.164  15.543 -1.2701 -0.2183  1.2119
11592TIP3   OH256190   5.116   4.891  13.153 -0.2654 -0.2038 -0.1126
11592TIP3    H156191   5.105   4.889  13.058  1.0086 -0.7849 -0.2740
11592TIP3    H256192   5.208   4.915  13.166 -0.5034  0.1915  0.9854
11593TIP3   OH256193   6.640   0.046   3.648 -0.1400 -0.1970  0.7847
11593TIP3    H156194   6.624  -0.045   3.625 -1.4966  0.4578 -1.1023
11593TIP3    H256195   6.729   0.046   3.683  0.3071 -2.0834 -0.1973
11594TIP3   OH256196   2.752   3.244  11.798 -0.1734  0.3130 -0.0568
11594TIP3    H156197   2.805   3.240  11.718 -2.0264  0.4998 -1.3687
11594TIP3    H256198   2.816   3.249  11.869  1.6095 -2.0363 -1.3353
11595TIP3   OH256199   4.978   0.453  11.694  0.2361 -0.2308  0.3416
11595TIP3    H156200   4.895   0.494  11.716  0.5051  0.8409 -0.5452
11595TIP3    H256201   4.973   0.435  11.600  1.2707  0.5236  0.1250
11596TIP3   OH256202   0.791   1.830   1.505  0.1171 -0.5224  0.2605
11596TIP3    H156203   0.782   1.883   1.584  0.9293 -1.3344  0.9073
11596TIP3    H256204   0.849   1.759   1.530  1.4618 -0.0782 -1.4182
11597TIP3   OH256205   3.394   1.230   3.703 -0.1467  0.2376 -0.6380
11597TIP3    H156206   3.440   1.201   3.782 -0.8801  2.6533  0.7730
11597TIP3    H256207   3.302   1.209   3.721 -0.4615  1.8181 -0.3263
11598TIP3   OH256208   1.537   0.032  11.305 -0.9465  0.6821 -0.1552
11598TIP3    H156209   1.562   0.035  11.213 -0.5728 -1.3783 -0.1590
11598TIP3    H256210   1.617   0.009  11.352 -1.4626  0.1373  0.4913
11599TIP3   OH256211   6.434   3.225   3.382  0.1139  0.4802  0.2125
11599TIP3    H156212   6.384   3.256   3.458 -0.3416  1.0060 -0.2948
11599TIP3    H256213   6.367   3.209   3.315  0.6837  1.8392 -0.7009
11600TIP3   OH256214   5.614   5.460  17.042 -0.0487  0.3177 -0.9238
11600TIP3    H156215   5.670   5.398  17.088 -0.1006  1.2993  0.5238
11600TIP3    H256216   5.624   5.438  16.949 -1.7703 -3.3294 -0.4350
11601TIP3   OH256217   6.499   4.580   4.874  0.8172 -0.4631  0.0909
11601TIP3    H156218   6.535   4.495   4.849 -0.3860 -0.8161 -0.5140
11601TIP3    H256219   6.523   4.589   4.966  2.4830 -0.6365 -0.2899
11602TIP3   OH256220   0.846   3.660  15.074 -0.1063 -0.0113  0.3092
11602TIP3    H156221   0.892   3.713  15.139  1.2344  1.1324 -1.4773
11602TIP3    H256222   0.817   3.723  15.008  1.0385 -1.3913 -1.6004
11603TIP3   OH256223   0.875   4.177  15.161 -0.0012 -0.0853 -0.0977
11603TIP3    H156224   0.870   4.165  15.256  0.5611 -0.0622 -0.0610
11603TIP3    H256225   0.943   4.115  15.133  0.9632  1.0210 -0.2768
11604TIP3   OH256226   5.444   0.014  11.140  0.4918 -0.2749 -0.8496
11604TIP3    H156227   5.482   0.054  11.218 -0.0226  0.9240 -1.1998
11604TIP3    H256228   5.365   0.065  11.122 -1.0022 -2.3339 -0.4936
11605TIP3   OH256229   2.451   3.138  11.078 -0.0316  0.4912 -0.0397
11605TIP3    H156230   2.449   3.119  10.984  0.1748  0.3387 -0.0139
11605TIP3    H256231   2.390   3.075  11.116 -0.2711  0.6891 -0.0954
11606TIP3   OH256232   5.740   4.594   3.123  0.1871  0.1264 -0.3165
11606TIP3    H156233   5.825   4.631   3.099  0.2439  0.1651 -0.0629
11606TIP3    H256234   5.737   4.510   3.079  0.0827  0.4085 -0.8524
11607TIP3   OH256235   2.743   0.292  11.783  0.0970 -0.1457  0.2895
11607TIP3    H156236   2.762   0.299  11.876  0.6630 -1.1415  0.2667
11607TIP3    H256237   2.649   0.308  11.776 -0.1779 -1.2349  1.1847
11608TIP3   OH256238   1.189   6.074   5.511  0.1705  1.1705 -0.3209
11608TIP3    H156239   1.233   6.095   5.593 -0.3386  1.2146 -0.0531
11608TIP3    H256240   1.220   5.986   5.488 -1.3355  0.2299  1.0662
11609TIP3   OH256241   1.277   2.126  11.982  1.0269 -0.4592 -0.1095
11609TIP3    H156242   1.312   2.084  12.061  1.1914 -0.6965 -0.3062
11609TIP3    H256243   1.211   2.187  12.015  0.9552 -0.6975  0.1970
11610TIP3   OH256244   5.064   4.822  16.549 -0.4340  0.0558  0.5746
11610TIP3    H156245   5.015   4.743  16.570 -0.3196  0.3998  2.2944
11610TIP3    H256246   5.002   4.878  16.502 -0.8382 -0.6240  0.3002
11611TIP3   OH256247   0.547   3.651  13.924 -0.5210  0.7219 -0.2331
11611TIP3    H156248   0.503   3.566  13.917  0.0538  0.3960  0.1068
11611TIP3    H256249   0.483   3.707  13.969 -1.3319  0.7909 -1.4060
11612TIP3   OH256250   4.985   4.624   0.928 -0.2445 -0.2208 -0.5458
11612TIP3    H156251   4.989   4.705   0.876 -2.6262 -0.3395 -1.0013
11612TIP3    H256252   4.938   4.648   1.007  1.1620 -0.6473  0.4613
11613TIP3   OH256253   4.853   0.411  14.509  0.0279  0.1702 -0.4241
11613TIP3    H156254   4.880   0.363  14.587 -2.1001 -1.2547 -0.4844
11613TIP3    H256255   4.786   0.471  14.540  0.1749  0.6140 -0.9467
11614TIP3   OH256256   4.110   0.619  12.444  0.2083 -0.0817 -0.0936
11614TIP3    H156257   4.082   0.643  12.356 -0.3238 -1.7981 -0.4250
11614TIP3    H256258   4.056   0.673  12.502 -1.4252 -0.8856 -0.7973
11615TIP3   OH256259   2.338   3.948   2.065  0.3212  0.1775 -0.2410
11615TIP3    H156260   2.311   3.904   2.146 -0.2685  1.9740  0.6055
11615TIP3    H256261   2.369   3.877   2.008 -0.3660 -1.2744  1.1021
11616TIP3   OH256262   5.948   5.946   5.080  0.1575  0.2410 -0.3419
11616TIP3    H156263   5.862   5.977   5.110  1.4176  4.7785 -0.6017
11616TIP3    H256264   5.929   5.896   5.001 -2.3813 -2.1938  1.6204
11617TIP3   OH256265   0.518   1.881   4.429  0.3432  0.0908  0.6531
11617TIP3    H156266   0.487   1.796   4.399  0.2681  0.7485 -1.2751
11617TIP3    H256267   0.577   1.861   4.502  3.6032 -2.0443 -2.2456
11618TIP3   OH256268   5.432   4.469  11.454 -0.0709 -0.8531 -0.0532
11618TIP3    H156269   5.478   4.390  11.426 -0.0590 -0.7006 -0.4705
11618TIP3    H256270   5.344   4.459  11.418 -0.0167 -0.5938 -0.2650
11619TIP3   OH256271   3.480   5.385  10.559  0.0654 -0.8519  0.2289
11619TIP3    H156272   3.408   5.407  10.501  0.4624 -1.2684 -0.4384
11619TIP3    H256273   3.442   5.326  10.624 -0.5035  0.0460  0.7272
11620TIP3   OH256274   0.733   0.725  11.995 -0.2402  0.4387 -0.3498
11620TIP3    H156275   0.648   0.768  12.008 -0.8227 -0.5966 -0.5877
11620TIP3    H256276   0.769   0.766  11.917  0.1872  1.9389  0.5880
11621TIP3   OH256277   5.200   6.766   1.765  0.1009  0.2287  0.3576
11621TIP3    H156278   5.170   6.770   1.674  0.8629  2.2314  0.1524
11621TIP3    H256279   5.291   6.739   1.758  0.8600  2.6169  0.3010
11622TIP3   OH256280   5.603   2.387   5.909 -0.4470  0.4776  0.2061
11622TIP3    H156281   5.523   2.438   5.921 -0.8114 -0.3040  1.1793
11622TIP3    H256282   5.573   2.299   5.890  0.1880  0.3240 -0.1148
11623TIP3   OH256283   3.931   6.399   3.379 -0.2811 -0.5559  0.1351
11623TIP3    H156284   3.932   6.494   3.387 -1.1372 -0.3385 -1.7369
11623TIP3    H256285   3.867   6.382   3.309 -1.1777 -2.5882  1.3544
11624TIP3   OH256286   3.489   2.635  11.816 -0.0525  0.1301  0.0292
11624TIP3    H156287   3.463   2.663  11.904 -1.3898  0.5051 -0.4641
11624TIP3    H256288   3.579   2.666  11.807 -0.4994  1.6894  0.6142
11625TIP3   OH256289   2.118   2.268   5.920  0.2161  0.2396 -0.1118
11625TIP3    H156290   2.131   2.227   6.005 -1.6826 -1.4962 -0.5750
11625TIP3    H256291   2.196   2.245   5.869  1.0854  0.7939  0.9182
11626TIP3   OH256292   1.487   5.883   4.886  0.6296  0.6086 -0.1146
11626TIP3    H156293   1.488   5.813   4.820 -0.3493  0.2489  0.2390
11626TIP3    H256294   1.464   5.962   4.836  1.5489  0.6526 -0.4824
11627TIP3   OH256295   0.250   4.635  12.907 -0.4248  0.1138  0.4354
11627TIP3    H156296   0.242   4.690  12.984  1.1792  3.4369 -1.5543
11627TIP3    H256297   0.171   4.653  12.856  0.2548  0.9549 -0.3744
11628TIP3   OH256298   4.584   5.850  16.365  0.1990  0.0415 -0.2380
11628TIP3    H156299   4.623   5.914  16.305 -1.8263 -0.4196 -2.2012
11628TIP3    H256300   4.571   5.772  16.311  0.4165 -1.2093  1.4581
11629TIP3   OH256301   2.635   1.353  16.520  0.2892  0.2584  0.3261
11629TIP3    H156302   2.692   1.376  16.446 -0.7798 -0.2512 -0.6927
11629TIP3    H256303   2.600   1.437  16.549  0.2728  0.4144 -0.1312
11630TIP3   OH256304   2.254   6.567   0.244  0.1143 -0.3132  0.0500
11630TIP3    H156305   2.264   6.660   0.225  2.3424 -0.5259 -0.0154
11630TIP3    H256306   2.192   6.565   0.318 -0.4518  1.1510 -0.3396
11631TIP3   OH256307   0.648   4.834   5.215 -0.6115 -0.0999  0.1382
11631TIP3    H156308   0.608   4.798   5.136  0.8464 -2.0884  0.2501
11631TIP3    H256309   0.704   4.764   5.248  2.7900  2.3861  0.1326
11632TIP3   OH256310   0.428   1.071   4.849  0.5329  0.0630  0.6098
11632TIP3    H156311   0.438   1.004   4.782 -0.1431  1.3403 -0.8246
11632TIP3    H256312   0.371   1.031   4.915 -0.9218 -0.3598 -0.8514
11633TIP3   OH256313   6.348   5.512  11.665 -0.7079  0.6463  0.2598
11633TIP3    H156314   6.359   5.460  11.585  1.8466  1.9167 -0.3365
11633TIP3    H256315   6.436   5.546  11.684 -1.4672  1.4245  2.9277
11634TIP3   OH256316   1.621   5.009   0.803 -0.1937  0.0829  0.2090
11634TIP3    H156317   1.640   5.102   0.819 -2.0445  0.2030  2.1824
11634TIP3    H256318   1.567   5.009   0.724 -0.0834  0.6696  0.1258
11635TIP3   OH256319   2.204   2.361  13.208 -0.5725 -0.4476 -0.7195
11635TIP3    H156320   2.214   2.445  13.163 -0.3435 -0.4866 -0.7404
11635TIP3    H256321   2.163   2.304  13.143 -1.7732 -0.0382 -0.3483
11636TIP3   OH256322   4.147   6.793   4.184  0.0316  0.6338  0.2865
11636TIP3    H156323   4.138   6.719   4.124  1.1743  0.6432  0.0821
11636TIP3    H256324   4.064   6.795   4.232  0.1005 -0.9969  0.5448
11637TIP3   OH256325   5.812   5.563  11.846 -0.1047  0.2224 -0.1915
11637TIP3    H156326   5.855   5.583  11.929  0.8651  1.2198 -0.9142
11637TIP3    H256327   5.751   5.492  11.867  2.2805 -1.6890  0.7754
11638TIP3   OH256328   1.384   0.459  14.881 -0.0266 -0.6176 -0.8952
11638TIP3    H156329   1.349   0.384  14.832 -0.5831  0.0285 -1.4920
11638TIP3    H256330   1.307   0.508  14.907  0.2445 -1.0060  0.7570
11639TIP3   OH256331   2.198   6.610   0.741 -0.2133 -0.6595  0.1282
11639TIP3    H156332   2.202   6.519   0.770 -1.5413 -0.9614 -0.5933
11639TIP3    H256333   2.114   6.642   0.772  0.1476  0.2695  0.1868
11640TIP3   OH256334   1.090   4.145  15.930  0.2694 -0.6906 -0.2046
11640TIP3    H156335   1.127   4.129  16.017  0.9767 -2.3152 -0.7662
11640TIP3    H256336   1.020   4.082  15.922 -0.2035 -0.1242 -0.5968
11641TIP3   OH256337   2.191   6.531   4.165 -0.5582 -0.0366 -0.6646
11641TIP3    H156338   2.184   6.537   4.070  0.2146 -0.6606 -0.7738
11641TIP3    H256339   2.148   6.448   4.187 -2.2419  0.8932 -0.2687
11642TIP3   OH256340   3.760   3.218   1.319 -0.4202  0.5064 -0.0333
11642TIP3    H156341   3.812   3.190   1.394 -1.3199 -0.1233  0.3810
11642TIP3    H256342   3.669   3.214   1.351 -1.1522 -2.7928 -2.0158
11643TIP3   OH256343   1.378   6.229  11.263  0.3141  0.3834 -0.2748
11643TIP3    H156344   1.469   6.210  11.286 -0.2216 -0.0686  1.6779
11643TIP3    H256345   1.381   6.317  11.225  1.5240  0.4857  0.0148
11644TIP3   OH256346   6.197   4.808  15.562  0.4725 -0.2764 -0.5405
11644TIP3    H156347   6.215   4.793  15.469  1.5093  1.1038 -0.5905
11644TIP3    H256348   6.117   4.859  15.563 -0.3772 -1.5618 -0.5813
11645TIP3   OH256349   0.106   5.397   0.735  0.1953 -0.3337 -0.2791
11645TIP3    H156350   0.109   5.333   0.806  1.1942  1.6762  1.6086
11645TIP3    H256351   0.109   5.344   0.655 -0.0640 -2.6521  1.1547
11646TIP3   OH256352   3.387   6.356  13.629  0.1461  0.0403 -0.0645
11646TIP3    H156353   3.427   6.430  13.675  0.6250 -0.8441  0.9924
11646TIP3    H256354   3.333   6.396  13.561 -0.0046  1.3785  0.8106
11647TIP3   OH256355   4.853   4.257  16.502 -0.4612  0.3078 -0.0169
11647TIP3    H156356   4.813   4.333  16.543 -2.1645 -0.4928 -0.1081
11647TIP3    H256357   4.829   4.184  16.559  1.6638 -0.1302  0.4242
11648TIP3   OH256358   6.342   3.232  16.100 -0.4271 -0.2831  0.1788
11648TIP3    H156359   6.343   3.212  16.194  0.2602  0.0798  0.2524
11648TIP3    H256360   6.408   3.174  16.062  1.0942  1.2914  0.3001
11649TIP3   OH256361   1.009   3.964   0.754 -0.1731  0.1224 -0.4476
11649TIP3    H156362   1.032   4.055   0.772 -1.8315  0.8299 -1.6323
11649TIP3    H256363   1.052   3.944   0.671 -1.0901  0.3753 -0.9974
11650TIP3   OH256364   2.168   5.177   3.184 -0.5386  0.1868  0.3603
11650TIP3    H156365   2.211   5.092   3.193 -1.9767 -0.7916 -1.3548
11650TIP3    H256366   2.075   5.156   3.175 -1.3759  2.1492  2.9444
11651TIP3   OH256367   2.037   4.731  15.260  0.2018  0.2728  0.0778
11651TIP3    H156368   2.109   4.729  15.323 -0.9781 -1.1162  1.4605
11651TIP3    H256369   2.080   4.724  15.175  1.6614 -4.2520  0.9271
11652TIP3   OH256370   1.654   5.597  14.115 -0.2832 -0.5569  0.0687
11652TIP3    H156371   1.696   5.529  14.168  0.2711  0.7738  1.4174
11652TIP3    H256372   1.711   5.673  14.124 -2.7762  1.2915  1.8285
11653TIP3   OH256373   5.433   1.548   0.742  0.3677 -0.2647 -0.6667
11653TIP3    H156374   5.490   1.532   0.666  0.4526  1.9042 -1.1265
11653TIP3    H256375   5.360   1.487   0.730  2.3066 -2.7987 -0.2983
11654TIP3   OH256376   6.648   5.567   2.412 -0.0986  0.2146 -0.3316
11654TIP3    H156377   6.672   5.566   2.319  0.8794 -2.1348 -0.1182
11654TIP3    H256378   6.566   5.518   2.416 -0.2777  0.5388  0.0247
11655TIP3   OH256379   0.510   1.429   1.443 -0.0540  0.5589  0.0205
11655TIP3    H156380   0.499   1.437   1.349 -0.1746  0.6595  0.0428
11655TIP3    H256381   0.605   1.420   1.456  0.0218  1.1771 -0.0637
11656TIP3   OH256382   6.299   6.168  14.616  0.6372 -0.2208 -0.5178
11656TIP3    H156383   6.371   6.127  14.664  0.7984  1.1705  0.5027
11656TIP3    H256384   6.249   6.214  14.683 -0.2762  0.1845 -1.4433
11657TIP3   OH256385   5.443   5.613  13.629  0.3477 -0.0301 -0.6333
11657TIP3    H156386   5.372   5.657  13.581 -0.2250 -0.5831 -0.3188
11657TIP3    H256387   5.408   5.526  13.647  0.5214  0.1846  0.8410
11658TIP3   OH256388   5.058   5.589   4.303 -0.4333  0.0607 -0.3604
11658TIP3    H156389   5.141   5.623   4.271  0.1702 -2.0730 -1.2169
11658TIP3    H256390   5.079   5.501   4.335 -2.0835  0.0539  0.8448
11659TIP3   OH256391   5.637   2.314   0.577  0.1081 -0.3895  0.3629
11659TIP3    H156392   5.664   2.235   0.624  0.4477 -0.7992 -0.5048
11659TIP3    H256393   5.715   2.340   0.528 -0.4204 -0.3337 -0.4671
11660TIP3   OH256394   6.098   0.912  16.014 -0.4407  0.0484  0.2244
11660TIP3    H156395   6.181   0.947  15.982 -0.4129 -0.3683 -0.1543
11660TIP3    H256396   6.123   0.835  16.065 -0.3898  1.2072  2.0710
11661TIP3   OH256397   5.880   6.068   1.584  0.1072 -0.2737 -0.1521
11661TIP3    H156398   5.807   6.027   1.538  0.4194  0.1382 -1.0288
11661TIP3    H256399   5.846   6.082   1.673 -0.9068 -0.0114 -0.5602
11662TIP3   OH256400   6.476   2.655  16.284 -0.0290  0.1270 -0.4230
11662TIP3    H156401   6.508   2.677  16.371  1.3264 -1.7640 -0.3898
11662TIP3    H256402   6.522   2.717  16.226 -1.7783  2.1495  0.2153
11663TIP3   OH256403   3.031   6.805   0.174 -0.3562 -0.6433  0.3547
11663TIP3    H156404   3.099   6.862   0.210 -1.1687  2.3858 -2.4103
11663TIP3    H256405   2.951   6.829   0.221 -0.3349 -1.0504  0.6072
11664TIP3   OH256406   6.511   2.682   1.660 -0.4794  0.1085 -0.4333
11664TIP3    H156407   6.480   2.773   1.655 -0.8534  0.0486  0.5889
11664TIP3    H256408   6.605   2.689   1.649 -0.2107  0.8890  1.7943
11665TIP3   OH256409   1.222   3.141  10.834  0.2519  0.3078 -0.4893
11665TIP3    H156410   1.218   3.212  10.770 -1.4619 -0.9704 -1.8891
11665TIP3    H256411   1.131   3.125  10.858  0.7177 -0.5172  0.8534
11666TIP3   OH256412   4.333   2.735  15.898  0.7703 -0.3839 -0.2542
11666TIP3    H156413   4.283   2.810  15.930  0.5789 -0.9370  0.7827
11666TIP3    H256414   4.409   2.731  15.956  1.4164 -0.2750 -1.0684
11667TIP3   OH256415   6.511   4.195  11.666  0.1484  0.8494 -0.2233
11667TIP3    H156416   6.448   4.260  11.636 -1.9316 -1.1292 -0.3691
11667TIP3    H256417   6.473   4.159  11.747  1.9531  0.7973  0.6496
11668TIP3   OH256418   5.178   2.437   0.115  0.6165 -0.0871 -0.7683
11668TIP3    H156419   5.183   2.381   0.038  0.0002 -0.9028 -0.2329
11668TIP3    H256420   5.104   2.402   0.165  0.5972  0.8365 -0.1274
11669TIP3   OH256421   5.023   6.582  13.984 -0.5571 -0.0289  0.0485
11669TIP3    H156422   5.081   6.626  14.045 -0.0185 -0.4116 -0.1809
11669TIP3    H256423   5.039   6.625  13.900  1.1012 -1.6312 -0.5151
11670TIP3   OH256424   3.578   2.840  16.194  0.5844  0.3928  0.1710
11670TIP3    H156425   3.508   2.774  16.194 -1.6066  2.4170  3.3073
11670TIP3    H256426   3.655   2.792  16.226 -0.3114 -1.1191  0.1852
11671TIP3   OH256427   2.007   5.371   5.554  0.5574  0.3415 -0.5219
11671TIP3    H156428   1.923   5.352   5.512  0.5014 -0.0759 -0.2254
11671TIP3    H256429   2.070   5.377   5.482  0.4128 -0.0980 -0.6844
11672TIP3   OH256430   2.923   1.443  12.244  0.0397  0.4147 -0.6677
11672TIP3    H156431   2.992   1.498  12.208  0.0012 -0.1420 -1.6394
11672TIP3    H256432   2.901   1.383  12.173  1.7137 -2.4519  0.9860
11673TIP3   OH256433   1.214   4.210   0.999 -0.3030  0.3400  0.0008
11673TIP3    H156434   1.284   4.153   1.031 -1.0699 -1.4011 -1.2600
11673TIP3    H256435   1.252   4.298   1.001  1.1087 -0.2420  1.5066
11674TIP3   OH256436   1.032   5.033   5.268 -0.3566 -0.0602  0.3766
11674TIP3    H156437   1.035   5.019   5.173  1.8175  1.4433  0.1567
11674TIP3    H256438   1.099   4.975   5.303  1.3015  1.8348  0.5502
11675TIP3   OH256439   4.261   4.960   2.504  0.4807 -0.4671 -0.3806
11675TIP3    H156440   4.226   4.879   2.468 -1.1988  0.6394 -1.4212
11675TIP3    H256441   4.193   5.025   2.486 -0.0497  0.4472  3.8744
11676TIP3   OH256442   3.028   1.129  10.878 -0.7899  0.1809 -0.5732
11676TIP3    H156443   2.976   1.207  10.899 -0.5846 -0.0226  0.7372
11676TIP3    H256444   3.098   1.161  10.821 -0.5455  1.0172  0.1760
11677TIP3   OH256445   2.120   5.765   0.666  0.3885 -0.1669 -0.0906
11677TIP3    H156446   2.072   5.801   0.741 -1.1467 -3.9122  0.9526
11677TIP3    H256447   2.195   5.720   0.705  1.4804  0.6371 -1.1850
11678TIP3   OH256448   2.967   4.637   4.492  0.0639 -0.0337  0.3746
11678TIP3    H156449   3.039   4.659   4.432 -0.0709  0.2513  0.3214
11678TIP3    H256450   2.951   4.544   4.475  1.2805 -0.4400  1.2918
11679TIP3   OH256451   4.037   4.978   3.849 -0.0081 -0.3633  0.0903
11679TIP3    H156452   3.996   5.011   3.769 -1.2465 -1.2475  0.3256
11679TIP3    H256453   4.125   4.954   3.822 -0.4062 -0.6539 -1.0332
11680TIP3   OH256454   6.186   6.717  13.903  0.3122 -0.1035  0.1882
11680TIP3    H156455   6.200   6.811  13.916  0.3079 -0.2753  1.5979
11680TIP3    H256456   6.153   6.686  13.987  0.9758 -1.5054 -0.0422
11681TIP3   OH256457   1.955   1.220   5.349  0.5976  0.7116  0.4814
11681TIP3    H156458   2.022   1.227   5.281  1.3043 -0.7225  0.9854
11681TIP3    H256459   1.908   1.303   5.345 -0.0399  0.3167 -2.4134
11682TIP3   OH256460   6.726   2.816  12.129  0.0019 -0.2193 -0.4093
11682TIP3    H156461   6.715   2.721  12.127 -1.9450 -0.0526  0.1818
11682TIP3    H256462   6.820   2.829  12.143  0.3544 -2.0394 -0.8742
11683TIP3   OH256463   5.550   1.724  15.649 -0.1346 -0.0432 -0.0753
11683TIP3    H156464   5.464   1.760  15.625 -0.6926  0.1698  2.0613
11683TIP3    H256465   5.539   1.629  15.639 -1.1829 -0.1475  1.7466
11684TIP3   OH256466   6.072   0.559   4.132 -0.2052 -0.0151  0.1413
11684TIP3    H156467   6.015   0.529   4.061 -0.7096 -0.7718  0.8544
11684TIP3    H256468   6.069   0.654   4.126  1.2569 -0.0237 -2.0383
11685TIP3   OH256469   0.369   5.822   3.349 -0.0453 -0.6146 -0.3936
11685TIP3    H156470   0.343   5.832   3.258  1.7052 -0.7956 -0.9433
11685TIP3    H256471   0.368   5.728   3.365  0.5338 -0.6417 -0.5055
11686TIP3   OH256472   2.095   2.624  12.811 -0.2236  0.4238  0.6596
11686TIP3    H156473   2.073   2.628  12.718  0.0015  0.3274  0.6004
11686TIP3    H256474   2.077   2.712  12.844 -0.8261  0.3078  0.6468
11687TIP3   OH256475   4.310   1.541  10.991  0.2219  0.2904 -0.2860
11687TIP3    H156476   4.340   1.612  10.934  1.6512  0.0443  0.1094
11687TIP3    H256477   4.388   1.515  11.040  0.0153 -2.2976 -1.1729
11688TIP3   OH256478   6.755   3.454   1.676 -0.0150 -0.1223  0.0808
11688TIP3    H156479   6.698   3.459   1.754 -0.9683  1.8253 -0.6683
11688TIP3    H256480   6.714   3.388   1.621 -0.9924  0.5319  0.0011
11689TIP3   OH256481   2.840   3.578  14.893 -0.4208 -0.0399  0.3831
11689TIP3    H156482   2.894   3.501  14.912  1.7664  1.5316  0.9975
11689TIP3    H256483   2.851   3.592  14.799 -1.5987 -0.9779  0.0817
11690TIP3   OH256484   0.797   4.496   0.081 -0.1725  0.1443  0.2081
11690TIP3    H156485   0.854   4.549   0.137  0.5687  0.4520 -0.7956
11690TIP3    H256486   0.720   4.550   0.067 -1.0912 -0.5602  2.1639
11691TIP3   OH256487   4.791   5.713   4.376  0.1449  0.3052 -0.7496
11691TIP3    H156488   4.794   5.770   4.453 -1.2569 -0.2194 -0.2692
11691TIP3    H256489   4.882   5.691   4.359  0.6917  2.2987 -0.6666
11692TIP3   OH256490   3.403   5.318  15.340  0.0081 -0.2200 -0.5512
11692TIP3    H156491   3.378   5.265  15.416 -0.3477  1.4669  0.5692
11692TIP3    H256492   3.498   5.327  15.347 -0.0899  0.4774  0.1168
11693TIP3   OH256493   5.024   5.093   2.271  0.0655  0.3011 -0.6182
11693TIP3    H156494   5.054   5.050   2.351  0.4086  4.1424  1.5790
11693TIP3    H256495   4.949   5.041   2.242  0.8370 -2.0709  1.3010
11694TIP3   OH256496   2.437   5.755  12.284 -0.2178  0.2254  0.0894
11694TIP3    H156497   2.509   5.805  12.323 -1.0783  1.7075 -0.1563
11694TIP3    H256498   2.420   5.686  12.347  0.4575  0.7327  0.8531
11695TIP3   OH256499   4.208   1.293  10.501 -0.0792 -0.1046 -0.0112
11695TIP3    H156500   4.198   1.372  10.554  0.1703 -0.1432  0.0987
11695TIP3    H256501   4.130   1.290  10.446 -0.5493 -0.2793  0.6445
11696TIP3   OH256502   2.674   1.432  13.634 -0.4441  0.6549  0.8123
11696TIP3    H156503   2.752   1.376  13.634  0.0305  1.2987  0.3373
11696TIP3    H256504   2.681   1.483  13.714 -0.9780 -0.0808  1.3457
11697TIP3   OH256505   1.172   4.333  13.211 -1.0268  0.6333  0.3941
11697TIP3    H156506   1.223   4.336  13.130  0.2227 -0.6594  1.0965
11697TIP3    H256507   1.081   4.339  13.182 -0.5923  0.4201 -1.0787
11698TIP3   OH256508   0.629   0.875  12.250 -0.2334 -0.0210  0.8788
11698TIP3    H156509   0.678   0.881  12.332  1.4268  0.5215 -0.1098
11698TIP3    H256510   0.677   0.811  12.198 -0.2415  0.9369 -0.3383
11699TIP3   OH256511   0.247   3.373   2.889  0.3975  0.2319 -0.6820
11699TIP3    H156512   0.214   3.460   2.911  0.2009 -0.0166  0.0106
11699TIP3    H256513   0.264   3.377   2.795 -0.2148  0.8177 -0.7720
11700TIP3   OH256514   1.853   0.231  11.892 -0.4366 -0.3386  0.4088
11700TIP3    H156515   1.945   0.248  11.872 -0.1307 -1.4342  0.8085
11700TIP3    H256516   1.849   0.231  11.988 -0.9582  0.2424  0.3862
11701TIP3   OH256517   5.755   0.427  14.669 -0.1897 -0.3373 -0.5376
11701TIP3    H156518   5.736   0.518  14.646 -2.2241 -0.2277  1.2386
11701TIP3    H256519   5.668   0.387  14.682  0.6608 -1.3993  2.6809
11702TIP3   OH256520   5.897   6.209   2.804 -0.1287 -0.4790 -0.1582
11702TIP3    H156521   5.819   6.154   2.800 -1.0896  0.8774 -2.1347
11702TIP3    H256522   5.964   6.160   2.755 -0.3916 -0.7480 -0.2465
11703TIP3   OH256523   6.330   0.069   0.353 -0.8691  0.4405 -0.3541
11703TIP3    H156524   6.369  -0.018   0.350 -1.3867  0.2008 -0.2363
11703TIP3    H256525   6.275   0.072   0.275  1.5511  1.8362 -2.1587
11704TIP3   OH256526   6.455   5.906  16.255 -0.3214  0.2140  0.0101
11704TIP3    H156527   6.519   5.957  16.304 -0.1969  0.4037 -0.3482
11704TIP3    H256528   6.476   5.922  16.163 -0.7514  0.1150 -0.1108
11705TIP3   OH256529   6.385   6.411  12.289 -0.4226  0.5156  0.0849
11705TIP3    H156530   6.303   6.362  12.296  0.2189 -0.5518  0.3517
11705TIP3    H256531   6.414   6.422  12.380  0.7685 -0.9553 -0.0703
11706TIP3   OH256532   0.941   2.142  16.305 -0.0339 -0.3134  0.0732
11706TIP3    H156533   0.877   2.176  16.242  0.5737  0.6349 -0.0663
11706TIP3    H256534   0.942   2.208  16.375  2.1581  0.7262 -0.8454
11707TIP3   OH256535   5.885   6.613  16.309 -0.0091 -0.2209 -0.0112
11707TIP3    H156536   5.820   6.644  16.372  0.9067 -1.3599  1.6029
11707TIP3    H256537   5.961   6.670  16.322  0.1861 -0.4660 -0.0401
11708TIP3   OH256538   1.468   3.496  16.379 -0.2011 -0.4261  0.1108
11708TIP3    H156539   1.496   3.584  16.356 -0.4140 -0.4862 -0.3916
11708TIP3    H256540   1.549   3.444  16.378  0.1495  0.0196  1.7542
11709TIP3   OH256541   6.325   1.365  11.867 -0.3548 -0.8132  0.3184
11709TIP3    H156542   6.398   1.306  11.886  0.2744  0.4748  2.2992
11709TIP3    H256543   6.365   1.439  11.820 -0.2392  0.0978  1.7806
11710TIP3   OH256544   0.178   5.994   2.484 -0.3457 -0.0670 -0.0368
11710TIP3    H156545   0.210   6.029   2.401 -0.9362 -0.6994 -0.5467
11710TIP3    H256546   0.103   5.940   2.460 -0.4234 -0.3973  0.8931
11711TIP3   OH256547   4.212   5.183  15.388  0.6118  0.1927 -0.1190
11711TIP3    H156548   4.269   5.250  15.426  1.3265 -1.1903  1.3426
11711TIP3    H256549   4.235   5.103  15.435 -1.7795 -0.6363 -0.2713
11712TIP3   OH256550   6.787   4.131  13.674  0.3265  0.1043 -0.2541
11712TIP3    H156551   6.781   4.045  13.634 -0.7574  0.1029 -0.1053
11712TIP3    H256552   6.817   4.189  13.604  1.7071 -0.4933 -0.1864
11713TIP3   OH256553   5.898   2.029   0.223 -0.5158 -0.3657  0.4909
11713TIP3    H156554   5.849   1.989   0.152 -1.7151 -0.5809  1.4198
11713TIP3    H256555   5.869   2.120   0.223 -1.7574 -0.7338  1.7158
11714TIP3   OH256556   3.751   1.954   5.858  0.2474  0.0941  0.2783
11714TIP3    H156557   3.826   1.906   5.893 -0.7896 -2.0111 -0.2085
11714TIP3    H256558   3.694   1.968   5.933  1.0594  1.6419  0.6371
11715TIP3   OH256559   5.925   6.521   4.374  0.3844 -0.4004 -0.1383
11715TIP3    H156560   6.003   6.549   4.326  0.4555 -0.4072 -0.0246
11715TIP3    H256561   5.858   6.585   4.350  0.3634 -0.5225 -0.4106
11716TIP3   OH256562   6.457   3.591  17.013  0.0474  0.0269 -0.3642
11716TIP3    H156563   6.522   3.623  16.951 -0.9593  0.5628 -1.1827
11716TIP3    H256564   6.502   3.592  17.097  0.9446  0.8585 -0.8256
11717TIP3   OH256565   6.546   3.726  14.803 -0.0461 -0.5046 -0.2115
11717TIP3    H156566   6.475   3.669  14.774  0.2980 -1.5474  0.9401
11717TIP3    H256567   6.512   3.770  14.881  0.1672 -0.1272 -0.3279
11718TIP3   OH256568   5.574   1.832  14.066  0.0544 -0.5952  0.5172
11718TIP3    H156569   5.499   1.786  14.102 -0.5749 -0.0140 -0.0380
11718TIP3    H256570   5.543   1.920  14.047  0.6441 -0.5757 -0.4710
11719TIP3   OH256571   2.305   2.262  12.762 -0.1072 -0.2006 -0.0724
11719TIP3    H156572   2.234   2.289  12.703  2.0797  1.1651 -2.2550
11719TIP3    H256573   2.360   2.205  12.709 -0.0599 -2.1723  1.9353
11720TIP3   OH256574   2.346   6.692   5.721 -0.0583 -0.1137 -0.2673
11720TIP3    H156575   2.400   6.682   5.644  1.4616  0.4428  0.6841
11720TIP3    H256576   2.256   6.690   5.688  0.5413 -0.3961 -1.9619
11721TIP3   OH256577   4.266   3.064  15.570 -0.4727 -0.6421  0.2109
11721TIP3    H156578   4.298   3.144  15.529  0.9554 -0.5272  1.4708
11721TIP3    H256579   4.190   3.039  15.518 -0.7399  1.3379 -0.4166
11722TIP3   OH256580   5.126   2.669   4.364  0.0183 -0.2733 -0.0775
11722TIP3    H156581   5.082   2.599   4.316  0.8011 -0.6747 -0.2327
11722TIP3    H256582   5.060   2.737   4.373 -1.2035 -1.5817  1.3165
11723TIP3   OH256583   1.121   3.554  10.729  0.3151 -0.4447  0.2952
11723TIP3    H156584   1.201   3.505  10.710 -1.0470 -2.4235 -0.6858
11723TIP3    H256585   1.072   3.499  10.791 -0.4090  0.6245  0.7246
11724TIP3   OH256586   2.716   5.883   2.348 -0.3212 -0.4134 -0.1126
11724TIP3    H156587   2.649   5.815   2.337  0.2717 -1.0818  0.3103
11724TIP3    H256588   2.672   5.951   2.399 -0.6406 -0.9142  0.2968
11725TIP3   OH256589   3.239   1.288  12.916  0.3090  0.1823 -0.7736
11725TIP3    H156590   3.230   1.279  12.821 -0.1838 -0.6104 -0.6631
11725TIP3    H256591   3.192   1.212  12.951  2.1136 -0.5959  0.0510
11726TIP3   OH256592   0.193   4.291  15.162  0.3409 -0.1753 -0.4207
11726TIP3    H156593   0.196   4.378  15.121 -0.0573 -0.3249 -0.7780
11726TIP3    H256594   0.245   4.236  15.104 -2.0327 -0.8999 -2.0346
11727TIP3   OH256595   0.312   4.177  11.725  0.1794 -0.3475 -0.1149
11727TIP3    H156596   0.237   4.176  11.667  0.5532 -0.6530 -0.6000
11727TIP3    H256597   0.290   4.243  11.791 -0.5444 -0.4978 -0.1980
11728TIP3   OH256598   2.579   0.596  12.514 -0.4472  0.0295 -0.2478
11728TIP3    H156599   2.506   0.656  12.531  0.3427  0.8462  0.4127
11728TIP3    H256600   2.652   0.654  12.494 -0.2450 -0.8130 -2.0785
11729TIP3   OH256601   0.901   5.397   5.971  0.2755  0.3287 -0.2627
11729TIP3    H156602   0.942   5.387   6.057  1.0397 -0.1412 -0.6800
11729TIP3    H256603   0.851   5.316   5.959 -1.7553  1.3596  0.7366
11730TIP3   OH256604   5.359   5.482   1.043 -0.1774 -0.3783 -0.0923
11730TIP3    H156605   5.290   5.424   1.076 -0.1512 -0.4167 -0.1058
11730TIP3    H256606   5.433   5.424   1.026  0.6408 -0.0530  2.0395
11731TIP3   OH256607   0.843   0.870  14.269  0.0997  0.0042 -0.0474
11731TIP3    H156608   0.919   0.812  14.263 -1.5427 -2.1439 -2.4557
11731TIP3    H256609   0.772   0.813  14.299 -0.7415  1.8356  1.6791
11732TIP3   OH256610   3.638   1.574  11.563  0.7884  0.5177  0.2688
11732TIP3    H156611   3.646   1.489  11.520  2.1279  0.3230  0.8629
11732TIP3    H256612   3.567   1.618  11.517 -0.4272 -1.2010  0.4277
11733TIP3   OH256613   2.755   1.926   1.729  0.3916 -1.0841 -0.1734
11733TIP3    H156614   2.809   1.849   1.747  1.7159 -0.1124  0.1899
11733TIP3    H256615   2.695   1.898   1.660  1.1908 -2.2801 -0.4110
11734TIP3   OH256616   6.731   0.812  13.207  0.3369 -0.6555  0.0857
11734TIP3    H156617   6.720   0.740  13.269 -1.0365 -0.5300  0.0265
11734TIP3    H256618   6.735   0.891  13.262 -3.4126 -0.2611  0.0491
11735TIP3   OH256619   6.120   0.077   4.947  0.4818  0.4785 -0.0689
11735TIP3    H156620   6.152   0.005   5.002  1.2780  0.3795 -0.6464
11735TIP3    H256621   6.148   0.054   4.858  0.7103  1.4728 -0.2664
11736TIP3   OH256622   5.470   1.684  13.605  0.3207 -0.2823  0.0002
11736TIP3    H156623   5.433   1.763  13.643 -2.1255 -1.1408 -0.3674
11736TIP3    H256624   5.525   1.714  13.533 -0.2926  1.0926  0.0855
11737TIP3   OH256625   5.629   3.996   4.492 -0.4782  0.1638 -0.4989
11737TIP3    H156626   5.625   3.955   4.406 -1.9534 -0.5978 -0.1076
11737TIP3    H256627   5.550   4.051   4.495 -1.4493 -1.2281  1.0165
11738TIP3   OH256628   1.778   6.240  12.278  0.5425 -0.3873 -0.1432
11738TIP3    H156629   1.864   6.199  12.288  0.8033  0.1488 -0.1406
11738TIP3    H256630   1.766   6.291  12.358  1.0144  0.9674 -0.9032
11739TIP3   OH256631   5.718   4.109  12.178 -0.4924  0.5711 -0.6615
11739TIP3    H156632   5.753   4.167  12.111  1.2829  1.2376  0.7562
11739TIP3    H256633   5.740   4.152  12.261 -1.1199 -1.0222  0.3817
11740TIP3   OH256634   5.521   3.625   3.621 -0.2395  0.3427  0.2655
11740TIP3    H156635   5.535   3.704   3.674  0.4644  0.2722  0.1855
11740TIP3    H256636   5.604   3.578   3.626 -0.7658 -0.5739  0.6085
11741TIP3   OH256637   6.186   0.139   1.262  0.5185  0.1436 -0.0493
11741TIP3    H156638   6.180   0.139   1.357  1.2486  0.5557  0.0009
11741TIP3    H256639   6.173   0.048   1.237 -1.2763  0.2561  0.3263
11742TIP3   OH256640   2.342   2.611  15.271  0.2639  0.0145  0.3026
11742TIP3    H156641   2.345   2.666  15.349 -1.4979  0.3010  0.2095
11742TIP3    H256642   2.363   2.670  15.199 -0.8206  0.4106  0.2908
11743TIP3   OH256643   4.223   3.820  14.335 -0.0626 -0.8462  0.3284
11743TIP3    H156644   4.226   3.726  14.321  0.1989 -0.7290 -0.4386
11743TIP3    H256645   4.241   3.858  14.249 -0.9933 -0.0885  0.4568
11744TIP3   OH256646   1.755   4.877   5.132  0.2563  0.1177 -0.7908
11744TIP3    H156647   1.830   4.825   5.161 -0.3499  1.0519  2.8838
11744TIP3    H256648   1.692   4.811   5.101  1.4209 -0.8814 -1.1432
11745TIP3   OH256649   1.169   5.966   5.954  0.1269  0.4738 -0.0545
11745TIP3    H156650   1.235   5.913   5.999  0.3172  0.3063 -0.5279
11745TIP3    H256651   1.108   5.991   6.023 -1.1534 -2.1098 -0.1410
11746TIP3   OH256652   2.992   2.475  11.504  0.3851  0.1246  0.0161
11746TIP3    H156653   2.951   2.530  11.437 -2.0570  0.9465  2.0337
11746TIP3    H256654   3.079   2.455  11.469 -0.6594  0.7242 -3.2189
11747TIP3   OH256655   1.349   4.118  17.021  0.9714 -0.0941  0.2187
11747TIP3    H156656   1.383   4.105  17.110  0.6480  0.0217  0.3582
11747TIP3    H256657   1.352   4.213  17.008  0.5576 -0.0698  0.2878
11748TIP3   OH256658   1.137   5.119   5.973 -0.2494  0.1206  0.3760
11748TIP3    H156659   1.047   5.104   5.943  0.0984  1.2976 -1.3579
11748TIP3    H256660   1.132   5.109   6.068 -2.4441  1.1885  0.4399
11749TIP3   OH256661   6.306   2.861   4.932 -0.0225 -0.2869  0.0973
11749TIP3    H156662   6.224   2.837   4.976 -1.2038  0.0483 -1.8350
11749TIP3    H256663   6.336   2.939   4.978  0.4193 -1.6168  2.2256
11750TIP3   OH256664   4.629   0.702   0.097  0.0804  0.2551  0.2825
11750TIP3    H156665   4.551   0.740   0.138  0.9449  2.6683 -0.1585
11750TIP3    H256666   4.595   0.631   0.042 -2.0027  2.0576 -0.9415
11751TIP3   OH256667   2.348   1.448  16.703  0.4118 -0.0973  0.5781
11751TIP3    H156668   2.439   1.468  16.681  0.1302 -0.2285 -0.8459
11751TIP3    H256669   2.300   1.528  16.681 -0.0763 -0.7085 -0.6617
11752TIP3   OH256670   0.926   3.859  13.370 -0.3012  0.7748  0.0055
11752TIP3    H156671   0.889   3.770  13.372  1.9317 -0.2408 -0.7460
11752TIP3    H256672   0.943   3.880  13.462 -1.0492  0.5194  0.2050
11753TIP3   OH256673   2.614   3.769   3.698 -0.1451  0.0145  0.4818
11753TIP3    H156674   2.632   3.861   3.719  0.1964  0.0013  0.2626
11753TIP3    H256675   2.560   3.737   3.771 -0.7013  0.5275  0.3020
11754TIP3   OH256676   6.116   4.609  12.433  0.0175  0.4773  0.1081
11754TIP3    H156677   6.041   4.666  12.443 -0.8079 -0.4195 -0.7668
11754TIP3    H256678   6.185   4.665  12.398 -0.6443  1.0313 -0.3246
11755TIP3   OH256679   4.772   2.783   4.847  0.0534 -0.2789  0.3409
11755TIP3    H156680   4.705   2.806   4.911 -0.0944  1.8715 -0.4824
11755TIP3    H256681   4.734   2.710   4.798 -1.5905  0.6637  0.1079
11756TIP3   OH256682   3.648   1.381  16.229  0.2432 -0.3359 -0.9101
11756TIP3    H156683   3.581   1.415  16.287  0.3281 -0.7173 -0.5849
11756TIP3    H256684   3.635   1.428  16.147 -1.5391 -1.6195 -1.4223
11757TIP3   OH256685   4.832   0.125   3.584  0.1121 -0.0119  0.1482
11757TIP3    H156686   4.908   0.068   3.567 -0.7292 -1.3512  0.7098
11757TIP3    H256687   4.765   0.066   3.616 -1.7853  0.8331 -1.9546
11758TIP3   OH256688   6.015   5.333  15.580  0.3385 -0.9797 -0.2787
11758TIP3    H156689   5.936   5.314  15.631  0.8362  1.6978  1.6518
11758TIP3    H256690   6.002   5.422  15.547  1.4099 -1.5053 -2.2846
11759TIP3   OH256691   5.019   5.635  13.033  0.2500  0.0784 -0.1363
11759TIP3    H156692   4.961   5.646  13.108  0.7024  0.8973  0.1090
11759TIP3    H256693   4.962   5.603  12.963  0.0125 -1.6644  0.8113
11760TIP3   OH256694   1.398   6.157  11.904 -0.0213 -0.2322  0.2821
11760TIP3    H156695   1.455   6.088  11.936  0.4118 -0.9378 -1.8269
11760TIP3    H256696   1.451   6.237  11.909  1.4109 -0.9402 -2.0453
11761TIP3   OH256697   1.053   6.663   0.134  0.0603  0.0089 -0.3892
11761TIP3    H156698   0.971   6.709   0.155 -0.0184 -0.2064 -0.2124
11761TIP3    H256699   1.046   6.580   0.182  0.3239 -0.0670 -0.4815
11762TIP3   OH256700   5.042   0.255  10.806 -0.5032 -0.0033 -0.1634
11762TIP3    H156701   5.016   0.170  10.770 -0.5940  0.7098 -1.8154
11762TIP3    H256702   5.024   0.318  10.737  0.9590  1.1801  0.4668
11763TIP3   OH256703   4.737   2.133  16.917 -0.7902 -0.1482 -0.3611
11763TIP3    H156704   4.651   2.151  16.879 -0.4578 -0.2426 -1.1585
11763TIP3    H256705   4.780   2.218  16.923 -0.5121 -0.2437 -0.9978
11764TIP3   OH256706   6.255   0.426   0.023 -0.3558  0.4420  0.0537
11764TIP3    H156707   6.348   0.425   0.001 -0.8420  1.9872 -2.5192
11764TIP3    H256708   6.226   0.515   0.004 -2.4051 -0.0410  0.5939
11765TIP3   OH256709   5.572   3.552  13.860 -0.0557 -0.3302  0.4530
11765TIP3    H156710   5.499   3.540  13.922  0.9204 -4.0474  1.1044
11765TIP3    H256711   5.651   3.539  13.913  1.0597  1.4518 -0.6739
11766TIP3   OH256712   0.634   3.188  11.910 -0.1914 -0.8876 -0.2204
11766TIP3    H156713   0.655   3.097  11.889  3.2531  0.2956 -2.9518
11766TIP3    H256714   0.552   3.205  11.864  0.0925 -2.1617 -1.2688
11767TIP3   OH256715   5.575   3.818  16.500  0.2500  0.5057  0.1475
11767TIP3    H156716   5.536   3.868  16.429  0.6981  1.3819  0.5062
11767TIP3    H256717   5.541   3.858  16.580 -0.0249 -0.2880  0.4424
11768TIP3   OH256718   4.845   2.878   3.798  0.0901 -0.1027 -0.3608
11768TIP3    H156719   4.882   2.796   3.765 -0.2693 -0.3978 -0.0275
11768TIP3    H256720   4.915   2.917   3.850  0.1329 -0.3750 -0.2174
11769TIP3   OH256721   4.160   5.585   4.531 -0.0436 -0.2065  0.5709
11769TIP3    H156722   4.131   5.674   4.510  3.5451  0.6693 -1.3590
11769TIP3    H256723   4.238   5.596   4.585 -0.2044 -2.2714  1.3459
11770TIP3   OH256724   0.159   1.412  16.486  0.6920 -0.0083 -0.4587
11770TIP3    H156725   0.131   1.374  16.403  0.0766  0.5039 -0.4989
11770TIP3    H256726   0.172   1.337  16.543  1.2397 -0.3741 -1.0510
11771TIP3   OH256727   1.301   3.485  11.519  0.3174 -0.1167  0.0974
11771TIP3    H156728   1.375   3.441  11.561  0.6249  0.4105  0.1223
11771TIP3    H256729   1.261   3.418  11.465  0.4886 -0.5551  0.5034
11772TIP3   OH256730   0.038   1.227   4.634 -0.0090 -0.2615 -0.1899
11772TIP3    H156731   0.056   1.228   4.728  2.9752  1.6545 -0.6240
11772TIP3    H256732   0.114   1.183   4.596 -1.5645 -1.7593 -1.6981
11773TIP3   OH256733   4.543   3.648  12.796  0.0482 -0.3027 -0.3367
11773TIP3    H156734   4.594   3.662  12.716 -1.2770 -0.1046 -1.1897
11773TIP3    H256735   4.575   3.713  12.857  0.1039  0.5122 -1.2080
11774TIP3   OH256736   6.724   4.751  15.266  0.4050 -0.2278 -0.5087
11774TIP3    H156737   6.756   4.742  15.176 -1.7890 -0.8562 -1.3005
11774TIP3    H256738   6.751   4.670  15.309  1.8931  0.2838 -0.4097
11775TIP3   OH256739   5.284   0.281   4.318 -0.3819  0.3134  0.1779
11775TIP3    H156740   5.312   0.355   4.372 -1.8497  0.2472  1.0949
11775TIP3    H256741   5.299   0.309   4.228  0.3895  1.1608  0.5532
11776TIP3   OH256742   5.198   3.488   5.660 -0.6110  0.1712 -0.0341
11776TIP3    H156743   5.217   3.519   5.571  1.1424  1.0233  0.6004
11776TIP3    H256744   5.109   3.521   5.677 -1.2121 -0.4859 -1.6436
11777TIP3   OH256745   0.200   2.033  15.882  0.0397  0.1649  0.4313
11777TIP3    H156746   0.249   2.047  15.963 -0.6280 -0.0604  0.8869
11777TIP3    H256747   0.112   2.009  15.912 -0.3008  0.4046 -0.3632
11778TIP3   OH256748   2.491   2.281   5.932 -0.3056  0.3086 -0.2793
11778TIP3    H156749   2.427   2.211   5.924 -0.5812  0.5277 -0.0012
11778TIP3    H256750   2.465   2.329   6.011  1.9366 -1.3913  1.6334
11779TIP3   OH256751   1.557   0.847  14.578 -0.1508  0.5232 -0.3979
11779TIP3    H156752   1.500   0.818  14.650 -0.8038  0.9246 -0.7337
11779TIP3    H256753   1.616   0.910  14.619  0.6406 -0.5365  0.1336
11780TIP3   OH256754   0.528   2.186  13.801  0.5444  0.6437 -0.2008
11780TIP3    H156755   0.609   2.226  13.768  1.3310 -0.5991  0.1582
11780TIP3    H256756   0.523   2.102  13.755 -0.2698  0.4796  0.1766
11781TIP3   OH256757   0.166   1.689   0.113  0.1581  0.1451 -0.1897
11781TIP3    H156758   0.175   1.676   0.207 -0.9897 -0.0540 -0.0966
11781TIP3    H256759   0.238   1.638   0.074  0.3594 -0.1392  0.5489
11782TIP3   OH256760   0.257   0.247   4.091 -0.1858  0.3186 -0.1590
11782TIP3    H156761   0.278   0.212   4.004  0.9622 -1.3480  0.7380
11782TIP3    H256762   0.245   0.341   4.076  2.0430  0.4319 -1.8332
11783TIP3   OH256763   2.085   4.626  15.882  0.0350  0.2217 -0.3236
11783TIP3    H156764   2.123   4.613  15.969 -0.0553 -1.0461 -0.4545
11783TIP3    H256765   2.023   4.698  15.894 -0.9455 -0.7944  0.9802
11784TIP3   OH256766   5.833   3.527   5.227  0.4412 -0.3224  0.2399
11784TIP3    H156767   5.924   3.542   5.252  0.1451  1.2200  0.4942
11784TIP3    H256768   5.790   3.500   5.308  0.4002  0.3023  0.4318
11785TIP3   OH256769   3.174   6.127   5.328  0.2636  0.0287  0.2979
11785TIP3    H156770   3.116   6.076   5.272 -1.3348  0.3961  1.5307
11785TIP3    H256771   3.229   6.062   5.372  1.0053 -0.3060 -1.0697
11786TIP3   OH256772   1.184   1.049   4.725  0.5695 -0.1080 -0.1987
11786TIP3    H156773   1.262   1.023   4.677  1.2564  0.7624  0.4140
11786TIP3    H256774   1.217   1.098   4.801 -0.4696 -1.4876  1.2234
11787TIP3   OH256775   0.901   0.340  16.149  0.1690 -0.0626  0.4079
11787TIP3    H156776   0.922   0.253  16.116  2.2260  0.9206 -1.0879
11787TIP3    H256777   0.971   0.360  16.211 -0.0992  0.6547  0.4928
11788TIP3   OH256778   3.149   2.976  14.760 -0.3566  0.0792 -0.2879
11788TIP3    H156779   3.200   3.000  14.683  0.5297  0.1836  0.3115
11788TIP3    H256780   3.213   2.978  14.832 -1.2889  0.5931  0.5465
11789TIP3   OH256781   2.897   3.824  15.715 -0.0865 -0.3428 -0.0558
11789TIP3    H156782   2.814   3.778  15.718 -0.5229  0.3897 -0.5658
11789TIP3    H256783   2.887   3.887  15.643  0.3144  0.8709  0.9210
11790TIP3   OH256784   2.201   0.805  15.586  0.4425  0.1584  0.2008
11790TIP3    H156785   2.146   0.847  15.520 -0.4988  0.3989  1.0975
11790TIP3    H256786   2.203   0.868  15.658 -0.9147 -1.2575  1.5487
11791TIP3   OH256787   6.436   4.363  15.833  0.6370  0.2760 -0.3162
11791TIP3    H156788   6.360   4.382  15.888  0.8039 -0.7897  0.3049
11791TIP3    H256789   6.401   4.363  15.743  0.1125  0.7534 -0.1198
11792TIP3   OH256790   1.553   3.613  16.117 -0.1914  0.7627  0.3329
11792TIP3    H156791   1.525   3.684  16.059  0.4188 -0.1693 -1.1924
11792TIP3    H256792   1.493   3.541  16.097  0.4802  0.1940  0.3070
11793TIP3   OH256793   6.082   0.911   1.677 -0.3540 -0.3911  0.2564
11793TIP3    H156794   6.028   0.884   1.603 -0.1830  2.1141 -0.8898
11793TIP3    H256795   6.050   0.859   1.751 -1.8680 -1.5482 -1.1488
11794TIP3   OH256796   3.560   5.532   2.029  0.0263  0.3031 -0.2281
11794TIP3    H156797   3.641   5.511   2.074  0.0502 -2.3260 -1.2669
11794TIP3    H256798   3.497   5.550   2.098  0.2837 -2.6844  0.9172
11795TIP3   OH256799   4.720   0.120  12.963 -0.1717 -0.1602 -0.4349
11795TIP3    H156800   4.700   0.101  12.872  0.4193  1.0155 -0.8260
11795TIP3    H256801   4.756   0.208  12.963 -1.8995  0.6237  1.1795
11796TIP3   OH256802   1.122   1.318   5.726 -0.0433  0.6584  0.2452
11796TIP3    H156803   1.155   1.230   5.743  0.1573  0.5888 -0.4620
11796TIP3    H256804   1.176   1.375   5.782  0.4170  0.4187  0.0497
11797TIP3   OH256805   6.449   5.125   3.105 -0.4183 -0.4387  0.1013
11797TIP3    H156806   6.453   5.064   3.032  0.1934  0.5077 -0.6812
11797TIP3    H256807   6.370   5.177   3.089 -0.2971 -0.2452  0.1272
11798TIP3   OH256808   0.123   0.445  12.572 -0.3351 -0.0944 -0.1571
11798TIP3    H156809   0.035   0.479  12.556  0.3670  2.0774  0.3390
11798TIP3    H256810   0.112   0.350  12.573 -2.6461  0.1265 -0.2298
11799TIP3   OH256811   5.313   0.627  14.448 -0.8125 -0.1748 -0.3604
11799TIP3    H156812   5.387   0.593  14.497 -0.2926  0.0532 -0.9812
11799TIP3    H256813   5.342   0.629  14.357 -2.8777 -3.8490 -1.3010
11800TIP3   OH256814   1.485   2.402   5.351  0.3466 -0.1661  0.0360
11800TIP3    H156815   1.393   2.421   5.370 -0.0348 -2.9306  1.5493
11800TIP3    H256816   1.487   2.376   5.259 -0.7965 -1.9789  0.4856
11801TIP3   OH256817   0.983   5.514   3.496  0.5343  0.1896 -0.5727
11801TIP3    H156818   0.898   5.472   3.506  1.2014 -0.9881  0.5566
11801TIP3    H256819   0.963   5.603   3.468 -1.0340 -0.2326 -0.8747
11802TIP3   OH256820   6.513   5.189  12.221 -0.8370  0.2370  0.0094
11802TIP3    H156821   6.526   5.218  12.131 -1.1821  1.3914  0.3065
11802TIP3    H256822   6.577   5.239  12.272  1.3841 -2.5117  0.1065
11803TIP3   OH256823   4.684   1.787   2.702 -0.2617 -0.2491  0.1149
11803TIP3    H156824   4.618   1.822   2.642  0.3294 -0.0117 -0.3995
11803TIP3    H256825   4.633   1.741   2.769 -0.9081 -1.1175 -0.9476
11804TIP3   OH256826   1.798   4.066  15.119 -0.1895 -0.5373  0.2074
11804TIP3    H156827   1.806   4.101  15.208  0.7198  0.9565 -0.4274
11804TIP3    H256828   1.886   4.074  15.082 -0.4577 -1.5576 -0.6916
11805TIP3   OH256829   3.540   1.242   3.064 -0.3603  0.4388 -0.0553
11805TIP3    H156830   3.476   1.286   3.121  0.5077 -0.8668  2.0637
11805TIP3    H256831   3.530   1.149   3.085  1.2909  0.0952 -0.6766
11806TIP3   OH256832   3.494   3.158   5.842 -0.1167  0.2642 -0.0515
11806TIP3    H156833   3.503   3.165   5.747 -1.1051  0.3813 -0.1425
11806TIP3    H256834   3.540   3.077   5.865  0.4456  0.4255 -0.5720
11807TIP3   OH256835   5.434   0.522   4.163  0.3425  0.0219 -0.3777
11807TIP3    H156836   5.467   0.500   4.076  0.6677  0.7892 -0.4559
11807TIP3    H256837   5.503   0.496   4.223 -0.2669 -1.3980 -0.2433
11808TIP3   OH256838   0.032   4.770  10.312 -0.1524  0.4150 -0.2073
11808TIP3    H156839   0.124   4.795  10.313  0.2904 -0.9529 -1.4713
11808TIP3    H256840   0.007   4.765  10.404  1.2729  0.0501  0.1817
11809TIP3   OH256841   1.961   5.568   3.756 -0.2360  0.3120  0.6594
11809TIP3    H156842   2.040   5.620   3.742 -0.1963  0.3960  1.1581
11809TIP3    H256843   1.907   5.583   3.678  0.8524 -0.8711 -0.3593
11810TIP3   OH256844   4.293   3.816  13.109 -0.6510 -0.0645  0.3439
11810TIP3    H156845   4.324   3.903  13.083 -1.4579  0.0551 -0.2750
11810TIP3    H256846   4.369   3.775  13.150 -0.2021  0.8609  0.4820
11811TIP3   OH256847   5.282   2.049   1.893 -0.3552 -0.0855 -0.6661
11811TIP3    H156848   5.371   2.027   1.864 -1.4840 -3.1773 -2.2788
11811TIP3    H256849   5.273   2.005   1.977 -0.3287  0.2789 -0.4740
11812TIP3   OH256850   3.859   0.606  13.457 -0.1917 -0.0784  0.2303
11812TIP3    H156851   3.831   0.540  13.521 -1.8174 -1.8254 -2.1278
11812TIP3    H256852   3.945   0.578  13.429 -1.2770 -1.9349 -1.5073
11813TIP3   OH256853   1.323   4.863  12.321 -0.6722 -0.1690 -0.0964
11813TIP3    H156854   1.368   4.802  12.379 -0.2156  0.1669 -0.0888
11813TIP3    H256855   1.280   4.926  12.379 -0.6450 -0.1360 -0.1119
11814TIP3   OH256856   6.312   3.672  11.619  0.1015  0.0270 -0.1360
11814TIP3    H156857   6.237   3.620  11.591  0.0734 -0.3783  0.6764
11814TIP3    H256858   6.346   3.710  11.537  0.2878 -1.4912 -0.7963
11815TIP3   OH256859   0.559   6.503   0.484 -0.0512 -0.2198  0.4948
11815TIP3    H156860   0.549   6.408   0.490 -0.8113 -0.1945 -0.2528
11815TIP3    H256861   0.528   6.536   0.568  2.7772 -0.7825  1.8757
11816TIP3   OH256862   4.693   1.407   4.802 -0.0998  0.6122  0.3566
11816TIP3    H156863   4.738   1.342   4.747 -0.8836  1.8729 -1.9220
11816TIP3    H256864   4.762   1.451   4.851  0.6606 -0.3752  0.1906
11817TIP3   OH256865   5.443   5.298  13.071  0.5543 -0.0768 -0.0432
11817TIP3    H156866   5.357   5.335  13.055  1.3503  1.0533 -1.9785
11817TIP3    H256867   5.443   5.277  13.165 -0.7859  2.6186  0.6404
11818TIP3   OH256868   2.687   3.026  13.918  0.0016 -0.0941  0.5536
11818TIP3    H156869   2.670   3.083  13.843 -2.8656 -2.7729 -1.0324
11818TIP3    H256870   2.773   2.988  13.900  0.1645  0.6858 -0.4013
11819TIP3   OH256871   0.237   0.562  11.234  0.1594  0.1669 -0.5937
11819TIP3    H156872   0.323   0.520  11.233  0.0154 -0.1817  0.4818
11819TIP3    H256873   0.254   0.652  11.262  0.0342 -0.3096  1.1268
11820TIP3   OH256874   5.608   6.431   0.019 -0.1725  0.4396 -0.0675
11820TIP3    H156875   5.571   6.484   0.090 -0.6766  0.7432 -0.5421
11820TIP3    H256876   5.702   6.425   0.038  0.0463  2.2057 -0.4194
11821TIP3   OH256877   1.985   5.128   1.131  0.1127 -0.6026  0.1475
11821TIP3    H156878   1.986   5.197   1.197  0.0907 -1.3842  0.9911
11821TIP3    H256879   2.075   5.126   1.098 -0.5378  1.8100 -2.0692
11822TIP3   OH256880   1.967   2.829   3.073 -0.7388  0.1397 -0.0955
11822TIP3    H156881   1.878   2.855   3.098 -1.0673 -0.9999 -0.0610
11822TIP3    H256882   2.013   2.816   3.157 -0.4060  1.1000 -0.1086
11823TIP3   OH256883   0.341   4.355  15.781 -0.5612 -0.1569  0.3439
11823TIP3    H156884   0.331   4.319  15.869 -1.8478 -0.0388  0.2708
11823TIP3    H256885   0.335   4.449  15.794 -1.6199 -0.1689  0.0576
11824TIP3   OH256886   0.878   6.743  11.720 -0.8223 -0.2252 -0.3004
11824TIP3    H156887   0.819   6.787  11.781 -0.4359  0.8145 -0.6427
11824TIP3    H256888   0.959   6.730  11.769 -1.0958 -0.9958 -0.0513
11825TIP3   OH256889   6.103   1.876   5.702  0.0101  0.3883 -0.6813
11825TIP3    H156890   6.175   1.840   5.754  0.1889  0.7723 -0.6603
11825TIP3    H256891   6.024   1.860   5.755  0.4245  2.8272  0.8303
11826TIP3   OH256892   4.781   6.365   0.227 -0.1110  0.5267  0.1035
11826TIP3    H156893   4.812   6.287   0.180 -0.9429 -0.6215  1.3750
11826TIP3    H256894   4.774   6.433   0.160 -2.1761 -1.2966 -1.6722
11827TIP3   OH256895   1.159   3.728   2.669 -0.3140 -0.0512  0.2220
11827TIP3    H156896   1.205   3.648   2.642 -0.1333 -0.9899  3.0174
11827TIP3    H256897   1.219   3.771   2.730 -0.2891  2.4620 -1.4144
11828TIP3   OH256898   0.881   5.711   0.503 -0.9028  0.1824 -0.3947
11828TIP3    H156899   0.826   5.706   0.426 -0.7465 -0.9750 -0.4461
11828TIP3    H256900   0.820   5.716   0.576 -1.0638  0.2567 -0.5352
11829TIP3   OH256901   6.190   5.693   4.947 -1.0513  0.3396 -0.7655
11829TIP3    H156902   6.096   5.689   4.934 -0.9840 -2.0790 -0.8252
11829TIP3    H256903   6.225   5.714   4.861 -1.4939  1.3346 -0.7255
11830TIP3   OH256904   1.371   5.695  15.185  0.5685  0.0037  0.7912
11830TIP3    H156905   1.304   5.762  15.198  0.2463  0.3536 -2.1454
11830TIP3    H256906   1.452   5.743  15.173  0.5179 -0.1684 -0.2863
11831TIP3   OH256907   5.154   6.040  13.908 -0.4455  0.0673 -0.0979
11831TIP3    H156908   5.223   6.018  13.970  1.3857  1.5626 -1.5190
11831TIP3    H256909   5.159   5.972  13.841  1.7202  1.6997 -1.7373
11832TIP3   OH256910   4.559   0.811   0.588 -0.1435  0.0936  0.7685
11832TIP3    H156911   4.642   0.773   0.558  0.1302 -1.4398  3.1982
11832TIP3    H256912   4.534   0.872   0.518  1.3364 -1.7979 -1.5800
11833TIP3   OH256913   6.212   3.201  15.507  0.2199  0.5326 -0.8993
11833TIP3    H156914   6.303   3.221  15.488  0.1956  0.8303 -0.7126
11833TIP3    H256915   6.214   3.114  15.548  0.4559  0.6793 -0.5910
11834TIP3   OH256916   0.014   2.601   4.241 -0.1045  0.1414  0.0622
11834TIP3    H156917   0.106   2.599   4.214  0.3943  2.0356  1.3760
11834TIP3    H256918  -0.035   2.573   4.164  1.5955 -1.9060 -0.3694
11835TIP3   OH256919   2.315   1.546  14.756  0.2238 -0.2358  0.0359
11835TIP3    H156920   2.275   1.628  14.727  0.7380  0.0684  0.1693
11835TIP3    H256921   2.276   1.528  14.841  0.9525  0.4809  0.5279
11836TIP3   OH256922   1.998   3.732  14.472 -0.5513 -0.1419 -0.0442
11836TIP3    H156923   2.077   3.785  14.463 -1.3307  0.9330 -0.6483
11836TIP3    H256924   2.003   3.669  14.400  0.0314 -0.4695  0.2703
11837TIP3   OH256925   5.127   3.562  14.521 -0.1252 -0.4163  0.0903
11837TIP3    H156926   5.214   3.535  14.549  0.3293 -1.9715 -2.4687
11837TIP3    H256927   5.123   3.656  14.541  1.1586 -0.7894  2.4442
11838TIP3   OH256928   0.897   5.040   1.031 -0.1422  0.0473  0.3613
11838TIP3    H156929   0.853   5.019   1.114 -0.3150  0.4311  0.3704
11838TIP3    H256930   0.836   5.008   0.964 -0.1456  0.0180  0.3780
11839TIP3   OH256931   6.037   4.232   3.517 -0.6846 -0.3143  0.1731
11839TIP3    H156932   5.977   4.261   3.586 -1.3237 -1.2292  0.0106
11839TIP3    H256933   6.060   4.142   3.541  0.0260 -0.2364 -0.1780
11840TIP3   OH256934   0.819   3.553   1.820  0.3282  0.4206 -0.2023
11840TIP3    H156935   0.749   3.533   1.883  1.5903  0.1823  1.1702
11840TIP3    H256936   0.835   3.470   1.776  2.1309 -0.4912  1.9903
11841TIP3   OH256937   6.373   2.722  14.936 -0.7897  0.4408  0.1482
11841TIP3    H156938   6.466   2.709  14.953 -0.7723  1.7386  1.2275
11841TIP3    H256939   6.368   2.808  14.894 -1.4903  0.3028 -0.0702
11842TIP3   OH256940   0.931   4.504  16.014 -0.4977  0.4688 -0.1610
11842TIP3    H156941   0.922   4.598  16.035  0.9243  0.6729 -0.4033
11842TIP3    H256942   0.953   4.502  15.921 -0.8926 -0.1399 -0.2482
11843TIP3   OH256943   5.766   3.458  15.565  0.1483  0.3541 -0.5104
11843TIP3    H156944   5.799   3.372  15.540  0.7651  0.0238  1.3286
11843TIP3    H256945   5.724   3.444  15.650  0.0727  1.8268 -0.2796
11844TIP3   OH256946   4.488   4.404  16.844  0.0987  0.1139 -0.2136
11844TIP3    H156947   4.568   4.352  16.840  1.0591  1.4989  0.1046
11844TIP3    H256948   4.446   4.379  16.925  0.3770 -0.4044 -0.2274
11845TIP3   OH256949   1.900   6.802   1.742  0.1907  0.3582  0.0953
11845TIP3    H156950   1.838   6.860   1.785  2.3931  2.6770  0.3528
11845TIP3    H256951   1.915   6.732   1.806 -1.2332  0.3898  0.4897
11846TIP3   OH256952   5.521   6.263   5.210 -0.3052 -0.1706 -0.2396
11846TIP3    H156953   5.460   6.278   5.138  0.6272 -0.8333 -1.2053
11846TIP3    H256954   5.526   6.347   5.255 -0.3900  0.4576 -1.3680
11847TIP3   OH256955   3.297   1.242   2.346  0.4520 -0.2186  0.2260
11847TIP3    H156956   3.369   1.179   2.345 -0.2382 -1.0840  1.9563
11847TIP3    H256957   3.248   1.225   2.266 -0.0204 -2.2657  0.9113
11848TIP3   OH256958   1.021   2.729  15.268 -0.2533  0.1443 -0.7765
11848TIP3    H156959   0.972   2.781  15.330  0.1978  0.7542 -0.9189
11848TIP3    H256960   0.961   2.713  15.195 -0.5178  0.1199 -0.5510
11849TIP3   OH256961   2.959   6.132  15.132  0.2924  0.6370  0.4287
11849TIP3    H156962   2.947   6.038  15.144 -1.3561  0.8244  0.5781
11849TIP3    H256963   2.958   6.145  15.037  1.3741  0.4283  0.3786
11850TIP3   OH256964   0.211   0.068  13.519  0.2609  0.1901 -0.0993
11850TIP3    H156965   0.143   0.081  13.586 -0.7874 -3.7916 -0.0957
11850TIP3    H256966   0.275   0.010  13.561  0.2079 -1.4136 -2.0581
11851TIP3   OH256967   1.958   6.529   5.215 -0.4716 -0.0848 -0.2991
11851TIP3    H156968   2.042   6.529   5.168 -0.3023 -0.0740  0.0044
11851TIP3    H256969   1.968   6.462   5.282  0.1939  1.5784  1.3408
11852TIP3   OH256970   5.918   0.770   0.104  0.5753  0.1821  0.6024
11852TIP3    H156971   5.860   0.837   0.068 -0.2275 -0.1048  1.3085
11852TIP3    H256972   5.970   0.816   0.170  1.3082  0.4850 -0.1800
11853TIP3   OH256973   1.383   3.841   5.410 -0.1695  0.4431 -0.0149
11853TIP3    H156974   1.398   3.832   5.504 -0.5198 -1.0644 -0.0840
11853TIP3    H256975   1.298   3.799   5.395 -0.7285  1.7962 -0.8225
11854TIP3   OH256976   6.646   4.414   4.103  0.6190 -0.2862 -0.3518
11854TIP3    H156977   6.616   4.466   4.028 -0.5737  0.5293  0.6574
11854TIP3    H256978   6.591   4.336   4.101 -0.7135  0.5884  0.7149
11855TIP3   OH256979   4.116   3.773  16.345 -0.4300 -0.2308 -0.4859
11855TIP3    H156980   4.149   3.690  16.311 -0.4865  0.6856 -2.9726
11855TIP3    H256981   4.020   3.765  16.340 -0.5065 -0.6602  1.0587
11856TIP3   OH256982   3.113   4.788  16.533 -0.4347 -0.2460  0.7216
11856TIP3    H156983   3.028   4.830  16.521  0.2136  0.7525 -0.7278
11856TIP3    H256984   3.167   4.853  16.578 -0.0489 -0.3386  0.4045
11857TIP3   OH256985   4.284   3.810   5.659 -0.7109 -0.3052  0.3376
11857TIP3    H156986   4.341   3.885   5.644  0.2374  0.1363  4.7200
11857TIP3    H256987   4.341   3.734   5.643 -0.7079 -0.0390 -0.9837
11858TIP3   OH256988   4.488   0.453   1.091 -0.4351 -0.0225 -0.4748
11858TIP3    H156989   4.400   0.416   1.101 -0.2966 -0.3004 -0.2466
11858TIP3    H256990   4.474   0.542   1.060 -0.8442  0.3420  0.6831
11859TIP3   OH256991   2.763   3.059  14.651 -0.5421 -0.0984  0.1686
11859TIP3    H156992   2.699   3.128  14.671 -0.9206 -0.8640  1.7971
11859TIP3    H256993   2.758   3.049  14.556 -0.5690  2.0141 -0.1158
11860TIP3   OH256994   1.489   3.525  12.352  0.6848 -0.0419 -0.3387
11860TIP3    H156995   1.498   3.492  12.262 -0.6045 -0.6905 -0.2498
11860TIP3    H256996   1.560   3.483  12.400  0.1895 -1.2442 -0.6371
11861TIP3   OH256997   2.078   0.979  16.685 -0.0447 -0.1869  0.2733
11861TIP3    H156998   2.040   0.928  16.756  0.0299  0.3907  0.7357
11861TIP3    H256999   2.173   0.967  16.695 -0.0364 -0.1531  0.2370
11862TIP3   OH257000   3.417   2.686  14.425 -0.1490  0.0534 -0.8069
11862TIP3    H157001   3.457   2.755  14.478  0.9907 -0.4559 -0.9592
11862TIP3    H257002   3.491   2.630  14.401 -0.5113  0.5657 -3.4117
11863TIP3   OH257003   3.544   4.644   1.032  0.3398 -0.3931  0.7551
11863TIP3    H157004   3.503   4.712   0.979  1.1982  0.1611  0.7819
11863TIP3    H257005   3.610   4.605   0.974  0.3803 -0.6717  0.9875
11864TIP3   OH257006   6.524   5.590  14.093 -0.4452  0.4171 -0.2881
11864TIP3    H157007   6.497   5.520  14.034 -0.3902  2.3569 -2.7799
11864TIP3    H257008   6.620   5.589  14.088 -0.4435  0.6314 -0.3096
11865TIP3   OH257009   0.113   4.281   5.438 -1.0149 -0.1548 -0.8291
11865TIP3    H157010   0.065   4.201   5.417 -0.3648 -0.0334 -2.9939
11865TIP3    H257011   0.162   4.302   5.358  1.9702  0.2132  0.9471
11866TIP3   OH257012   5.964   6.634  11.477 -0.3949  0.1947 -0.1827
11866TIP3    H157013   6.044   6.590  11.447 -0.2148 -0.8309  1.6281
11866TIP3    H257014   5.896   6.568  11.469 -0.7216  0.5240 -0.1404
11867TIP3   OH257015   3.720   1.410   6.496  0.1439 -0.1957 -0.3069
11867TIP3    H157016   3.652   1.470   6.466  0.5430  0.5107  0.1627
11867TIP3    H257017   3.764   1.458   6.566 -0.1420 -1.4237  0.7357
11868TIP3   OH257018   5.708   3.961  16.157  0.3743 -0.2036  0.0992
11868TIP3    H157019   5.770   3.955  16.230 -1.8484 -2.3750  1.9844
11868TIP3    H257020   5.624   3.980  16.198 -0.8160 -0.5872 -1.9914
11869TIP3   OH257021   6.670   2.778  11.240  0.3164 -0.3415 -0.2157
11869TIP3    H157022   6.639   2.799  11.151 -0.8235  0.7815  0.4022
11869TIP3    H257023   6.649   2.686  11.252 -0.1583 -0.3288 -0.8804
11870TIP3   OH257024   2.837   3.011  15.282 -0.0521 -0.4527  0.0564
11870TIP3    H157025   2.751   2.969  15.277 -0.2206 -0.1103  0.0634
11870TIP3    H257026   2.893   2.946  15.325 -0.1313 -0.9449 -0.5815
11871TIP3   OH257027   0.804   4.964  12.322 -0.0177  0.0038  0.2098
11871TIP3    H157028   0.797   4.914  12.404 -1.9210 -2.3649 -1.2619
11871TIP3    H257029   0.876   4.922  12.275  1.1812  1.4682  0.6523
11872TIP3   OH257030   2.520   0.200   0.606  0.2826 -0.4132 -0.4019
11872TIP3    H157031   2.571   0.242   0.536  0.5555 -0.2599 -0.1121
11872TIP3    H257032   2.498   0.114   0.571 -0.2201 -0.0565 -0.9752
11873TIP3   OH257033   0.903   5.184  16.410 -0.6748 -0.6408 -0.0996
11873TIP3    H157034   0.997   5.168  16.407 -0.4226  0.8539 -1.1799
11873TIP3    H257035   0.894   5.268  16.456 -1.5522 -1.1382  0.6756
11874TIP3   OH257036   5.464   1.499   1.014  0.2573  0.2713  0.3173
11874TIP3    H157037   5.457   1.496   0.919  0.0213 -4.6105  0.2736
11874TIP3    H257038   5.378   1.529   1.044 -0.1724  0.3595 -0.9559
11875TIP3   OH257039   1.063   5.975  16.468 -0.4514 -0.1479 -0.2157
11875TIP3    H157040   1.088   5.947  16.380 -1.4689  0.8063 -0.8360
11875TIP3    H257041   0.968   5.978  16.465 -0.4458  1.7640  0.2969
11876TIP3   OH257042   5.818   3.711  13.306 -0.2054 -0.1256 -0.0766
11876TIP3    H157043   5.806   3.634  13.362  0.8414 -0.5141 -0.3752
11876TIP3    H257044   5.902   3.697  13.263 -0.6073  0.5695 -1.1292
11877TIP3   OH257045   5.040   5.405  14.496 -0.2982 -0.3950  0.1377
11877TIP3    H157046   5.130   5.403  14.528  0.3213  0.1789 -1.4396
11877TIP3    H257047   4.991   5.452  14.564  1.0819  1.4247 -0.0304
11878TIP3   OH257048   4.476   4.670   2.145 -0.5243  0.4824 -0.1243
11878TIP3    H157049   4.499   4.694   2.235 -1.3601 -0.0347  0.2457
11878TIP3    H257050   4.387   4.634   2.152 -0.2233 -0.4982 -0.9987
11879TIP3   OH257051   4.125   2.078  15.907 -0.1295 -0.1321  0.9087
11879TIP3    H157052   4.203   2.103  15.956  0.1890 -3.0072  2.0794
11879TIP3    H257053   4.060   2.144  15.930  2.0394  2.8327 -0.7398
11880TIP3   OH257054   3.746   5.308  13.033 -0.7592  0.2899 -0.1733
11880TIP3    H157055   3.682   5.240  13.010  0.7953 -0.3374 -3.0836
11880TIP3    H257056   3.737   5.374  12.964  0.0163  1.4576  0.7964
11881TIP3   OH257057   0.924   0.869  11.828 -0.3412  0.0553  0.2149
11881TIP3    H157058   0.939   0.958  11.860 -0.0975 -0.2827  1.0902
11881TIP3    H257059   0.862   0.879  11.755  2.5209  1.3051 -2.2316
11882TIP3   OH257060   3.812   6.695   6.241  0.1791 -0.4759  0.2089
11882TIP3    H157061   3.792   6.789   6.235  0.8358 -0.1307  2.4947
11882TIP3    H257062   3.736   6.652   6.204  0.4296  0.9522 -2.1800
11883TIP3   OH257063   6.534   4.083   0.471  0.2268 -0.2559 -0.3783
11883TIP3    H157064   6.588   4.148   0.515 -1.3096  1.7817 -1.3435
11883TIP3    H257065   6.568   4.080   0.381 -1.0965  0.9532 -0.9584
11884TIP3   OH257066   1.869   5.375   2.032  0.1362 -0.4112 -0.4643
11884TIP3    H157067   1.928   5.299   2.029 -2.0020 -2.2190  0.4365
11884TIP3    H257068   1.873   5.412   1.943  1.5621 -1.2864 -0.8008
11885TIP3   OH257069   2.883   5.120   3.103  0.5686  0.0376  0.4807
11885TIP3    H157070   2.851   5.132   3.014  2.1033 -2.4062 -0.5216
11885TIP3    H257071   2.810   5.082   3.151  0.4450 -0.8926 -0.4247
11886TIP3   OH257072   5.686   3.762   4.312  0.2931  0.3659  0.1233
11886TIP3    H157073   5.612   3.784   4.256 -0.5481 -2.1509  0.1187
11886TIP3    H257074   5.710   3.673   4.285 -0.0092 -0.8778  3.5225
11887TIP3   OH257075   4.152   1.485  13.094 -0.3379  0.4902 -0.3072
11887TIP3    H157076   4.223   1.423  13.111 -1.0933  0.0570  1.5331
11887TIP3    H257077   4.171   1.559  13.152 -0.6843  0.9770 -0.8037
11888TIP3   OH257078   1.279   3.348   1.628 -0.0564 -0.0210 -0.5933
11888TIP3    H157079   1.339   3.372   1.699  0.4022  0.3360 -1.0982
11888TIP3    H257080   1.323   3.278   1.581 -0.4070 -0.3275 -0.4717
11889TIP3   OH257081   4.411   0.695   4.138  0.0117 -0.2813  0.1136
11889TIP3    H157082   4.446   0.608   4.158  0.2063 -0.7673 -2.1456
11889TIP3    H257083   4.322   0.694   4.173  0.2924 -1.0774  0.8327
11890TIP3   OH257084   1.228   3.121   5.076 -0.5268 -0.7121  0.0118
11890TIP3    H157085   1.297   3.123   5.141 -0.1742 -1.1148 -0.3413
11890TIP3    H257086   1.164   3.186   5.106  0.6205  0.6338 -0.3445
11891TIP3   OH257087   2.704   4.303  12.259  0.0856  0.4272 -0.1853
11891TIP3    H157088   2.645   4.234  12.229  0.7174 -0.5357  0.7025
11891TIP3    H257089   2.653   4.383  12.253 -0.8092 -0.1757 -0.8399
11892TIP3   OH257090   4.042   5.727  16.625 -0.0801  0.2366  0.6986
11892TIP3    H157091   4.021   5.670  16.700 -0.6791 -0.7665 -0.1947
11892TIP3    H257092   4.061   5.666  16.554  2.6499  1.1424  0.5526
11893TIP3   OH257093   1.263   4.367  12.571 -0.2577 -0.1872 -0.4043
11893TIP3    H157094   1.198   4.299  12.591 -1.8963  0.6638 -2.4436
11893TIP3    H257095   1.324   4.364  12.644 -1.1211 -2.8227  0.3131
11894TIP3   OH257096   2.908   2.883  11.118 -0.3346  0.2166 -0.3917
11894TIP3    H157097   2.846   2.815  11.092  1.0040 -0.7417 -1.2751
11894TIP3    H257098   2.994   2.847  11.093  0.4207  2.2588 -0.9580
11895TIP3   OH257099   4.839   1.874   3.614  0.0423  0.0372 -0.2759
11895TIP3    H157100   4.800   1.857   3.700 -0.5282  0.0842 -0.5202
11895TIP3    H257101   4.930   1.895   3.633  0.3223 -1.4830  0.1920
11896TIP3   OH257102   0.232   1.653  14.918  0.8235 -0.3073 -0.1801
11896TIP3    H157103   0.142   1.653  14.950  0.0384 -0.9353 -2.1926
11896TIP3    H257104   0.240   1.735  14.869  1.2409 -0.3684 -0.2145
11897TIP3   OH257105   3.219   2.581   0.193 -0.3034  0.6290  0.1312
11897TIP3    H157106   3.275   2.545   0.125  1.7527  3.5392  0.1143
11897TIP3    H257107   3.136   2.598   0.148  0.0902 -0.0369 -0.8944
11898TIP3   OH257108   3.350   0.234  17.027 -0.0097 -0.4741  0.4974
11898TIP3    H157109   3.256   0.249  17.013  0.1730  0.3714  0.1140
11898TIP3    H257110   3.354   0.148  17.068 -0.7101 -2.3133 -2.8828
11899TIP3   OH257111   2.505   6.506  11.698  0.0013  0.9699 -0.9035
11899TIP3    H157112   2.460   6.437  11.649 -1.2548  0.6926  0.5554
11899TIP3    H257113   2.563   6.547  11.634 -1.6046  0.6873 -2.6301
11900TIP3   OH257114   0.811   1.555  16.913 -0.8156 -0.4397  0.0375
11900TIP3    H157115   0.856   1.572  16.830  0.5543 -0.1831  0.7982
11900TIP3    H257116   0.718   1.555  16.890 -0.6283  2.0536 -1.1079
11901TIP3   OH257117   4.170   0.645  10.693 -0.1570  0.2938  0.4687
11901TIP3    H157118   4.155   0.739  10.697  1.1542  0.4982  1.2015
11901TIP3    H257119   4.137   0.619  10.607  4.1232  2.3713 -2.1394
11902TIP3   OH257120   2.027   5.696   0.038  0.1682  0.8779 -0.5555
11902TIP3    H157121   2.113   5.686   0.077 -0.3019  1.0243  0.5376
11902TIP3    H257122   1.985   5.610   0.048 -0.5049  1.3209  0.6518
11903TIP3   OH257123   3.247   0.888  13.057  0.1918 -0.2111 -0.1368
11903TIP3    H157124   3.246   0.972  13.103  0.1716 -0.2637 -0.0402
11903TIP3    H257125   3.219   0.908  12.968  1.3303  0.0859 -0.4493
11904TIP3   OH257126   2.631   3.154  12.118  0.4584 -0.6084  0.4641
11904TIP3    H157127   2.574   3.078  12.107 -0.7212  0.0170  1.9406
11904TIP3    H257128   2.571   3.227  12.133  1.3879  1.1818 -3.2561
11905TIP3   OH257129   3.752   0.042   4.748  0.2194  0.5289 -0.3192
11905TIP3    H157130   3.835   0.023   4.703  1.2196 -0.2914  1.7348
11905TIP3    H257131   3.688  -0.012   4.703  1.4750 -1.4641  0.1723
11906TIP3   OH257132   1.526   2.033   1.304 -0.1637 -0.8803 -0.2928
11906TIP3    H157133   1.515   2.128   1.310 -0.9538 -0.9883  0.2591
11906TIP3    H257134   1.556   2.007   1.391  1.3024 -1.0039 -0.8128
11907TIP3   OH257135   3.882   1.037   1.266  1.3561 -0.1425  0.1534
11907TIP3    H157136   3.790   1.019   1.283  1.2227  0.0211 -0.3643
11907TIP3    H257137   3.881   1.103   1.197  1.8162  2.2567  2.2889
11908TIP3   OH257138   1.527   4.150  11.973 -0.6113 -0.5182  0.4544
11908TIP3    H157139   1.544   4.106  12.056  0.4380 -2.1939 -0.5813
11908TIP3    H257140   1.534   4.244  11.993 -1.0964 -0.8401  2.3589
11909TIP3   OH257141   0.810   5.975  14.016 -0.0058  0.1370  0.4475
11909TIP3    H157142   0.834   6.049  13.961 -0.0578  0.2673  0.6018
11909TIP3    H257143   0.843   5.898  13.968 -0.7069  0.1894 -0.1361
11910TIP3   OH257144   5.550   2.102   5.830 -0.3083  0.2519 -0.1724
11910TIP3    H157145   5.459   2.104   5.799  0.6176 -0.6065 -3.1959
11910TIP3    H257146   5.545   2.054   5.913 -2.4105 -1.1420 -1.0243
11911TIP3   OH257147   5.199   3.753  12.123 -0.0802 -0.2389 -0.0534
11911TIP3    H157148   5.104   3.744  12.126 -0.4400  2.3693 -0.5645
11911TIP3    H257149   5.218   3.821  12.187  1.3769 -0.3467 -0.3423
11912TIP3   OH257150   6.001   5.629   5.804  0.0092  0.0573  0.5222
11912TIP3    H157151   5.989   5.656   5.713  0.1725 -0.3380  0.3838
11912TIP3    H257152   5.979   5.707   5.855  3.1178  1.3840  0.0516
11913TIP3   OH257153   4.561   3.523  14.922  0.3559 -0.1715  0.0038
11913TIP3    H157154   4.572   3.513  14.827  0.9940 -0.9165  0.1443
11913TIP3    H257155   4.528   3.438  14.951  0.7428 -0.1517  0.5225
11914TIP3   OH257156   1.789   4.410  13.445 -0.3553  0.6446 -0.2039
11914TIP3    H157157   1.814   4.496  13.413  0.6947  0.5403  0.2868
11914TIP3    H257158   1.721   4.426  13.510 -0.4958  1.0584 -0.4536
11915TIP3   OH257159   3.924   3.923   2.792  0.4324 -0.2082  0.3328
11915TIP3    H157160   3.892   3.860   2.856  0.1081  0.5188  0.9123
11915TIP3    H257161   3.852   3.986   2.782  1.6882  1.5675  1.7850
11916TIP3   OH257162   3.492   3.465   1.226  0.3651  0.0877 -0.4858
11916TIP3    H157163   3.492   3.421   1.310  2.6685  1.0097  0.0530
11916TIP3    H257164   3.565   3.427   1.178  0.3149  0.9716 -1.2946
11917TIP3   OH257165   3.332   1.158  13.146 -0.0658 -0.0282 -0.7874
11917TIP3    H157166   3.400   1.133  13.084  2.9978  1.4908  1.6617
11917TIP3    H257167   3.320   1.252  13.131 -1.2021 -0.1638 -0.7763
11918TIP3   OH257168   0.511   0.065   5.570 -0.3713 -0.5054  0.2299
11918TIP3    H157169   0.446   0.021   5.625  0.6700  0.0844  2.0342
11918TIP3    H257170   0.490   0.158   5.580 -0.8156 -0.4209 -1.2749
11919TIP3   OH257171   6.073   0.666   2.104 -0.5967 -0.3421 -0.3008
11919TIP3    H157172   6.010   0.681   2.175  2.7009  0.9005  2.6597
11919TIP3    H257173   6.115   0.583   2.127  0.7343  0.2329 -0.5851
11920TIP3   OH257174   6.232   0.440   0.936  0.3119 -0.5636  0.5472
11920TIP3    H157175   6.180   0.509   0.895  1.9083  0.1609 -0.3557
11920TIP3    H257176   6.168   0.382   0.976 -1.2432 -0.1735 -1.2308
11921TIP3   OH257177   5.804   3.460   0.001 -0.6360 -0.3870  0.0464
11921TIP3    H157178   5.850   3.400  -0.057 -1.6904 -1.7849  0.5926
11921TIP3    H257179   5.872   3.519   0.035  0.7412 -2.2925  0.7390
11922TIP3   OH257180   3.185   3.795  13.214  0.0211  0.2212 -0.7243
11922TIP3    H157181   3.207   3.733  13.284  0.8843  0.3612 -0.8545
11922TIP3    H257182   3.269   3.814  13.173 -0.5625 -0.3645 -2.2363
11923TIP3   OH257183   3.286   2.254  11.089 -0.3985  0.0808  0.1597
11923TIP3    H157184   3.288   2.335  11.036  0.8490 -0.5140 -0.7528
11923TIP3    H257185   3.354   2.267  11.155  0.1382 -0.4098 -0.2905
11924TIP3   OH257186   5.358   1.595  14.314 -0.1477  0.2500  0.7382
11924TIP3    H157187   5.336   1.639  14.231  1.2105  1.1610  0.8334
11924TIP3    H257188   5.344   1.502  14.296 -1.9703  0.5849  0.1675
11925TIP3   OH257189   6.664   5.364  11.854  0.0027  0.4647  0.2301
11925TIP3    H157190   6.727   5.429  11.887 -1.2315  0.9616  1.7535
11925TIP3    H257191   6.702   5.280  11.879  0.1101  0.7523  1.0815
11926TIP3   OH257192   6.552   4.777  12.603 -0.2187 -0.4066 -0.3026
11926TIP3    H157193   6.553   4.716  12.529 -1.9868 -1.0415  0.1542
11926TIP3    H257194   6.576   4.861  12.565  2.5895 -1.3575 -0.8975
11927TIP3   OH257195   3.822   5.417   0.587 -0.0692  0.0634 -0.0500
11927TIP3    H157196   3.904   5.417   0.636  0.9771  0.2665 -1.7140
11927TIP3    H257197   3.849   5.413   0.495 -1.9354 -0.0375 -0.6402
11928TIP3   OH257198   1.426   4.450   2.642  0.0622 -0.4927 -0.6831
11928TIP3    H157199   1.422   4.397   2.722  0.4246 -0.6035 -0.7345
11928TIP3    H257200   1.500   4.413   2.593 -1.2658 -1.6206 -1.9189
11929TIP3   OH257201   4.346   3.474  15.825 -0.0266  0.1292 -0.6748
11929TIP3    H157202   4.358   3.482  15.730  2.9407  0.4601 -0.3640
11929TIP3    H257203   4.251   3.480  15.838 -0.4009  1.8264 -3.4444
11930TIP3   OH257204   0.900   5.138   0.516 -0.2952  0.2715 -0.4864
11930TIP3    H157205   0.820   5.100   0.479 -0.0142  0.2345 -1.0592
11930TIP3    H257206   0.884   5.233   0.516 -0.5091  0.2363 -0.1965
11931TIP3   OH257207   6.107   4.623   3.299  0.0349 -0.0842 -0.0670
11931TIP3    H157208   6.172   4.553   3.300 -1.6319 -1.7355  1.1944
11931TIP3    H257209   6.075   4.626   3.209 -0.9027 -2.0511  0.1389
11932TIP3   OH257210   0.028   0.073  11.495  0.1888 -0.4343  0.3174
11932TIP3    H157211  -0.047   0.083  11.435  1.8471 -1.3814 -2.0658
11932TIP3    H257212   0.022   0.149  11.553 -1.4260  0.6545 -1.1688
11933TIP3   OH257213   3.865   4.299  14.788 -0.5896  0.2513 -0.0272
11933TIP3    H157214   3.863   4.219  14.735 -1.9240  0.5180 -0.4367
11933TIP3    H257215   3.939   4.349  14.754  0.9327 -1.2534  0.9502
11934TIP3   OH257216   3.219   1.634  14.274  0.3104  0.0149 -0.1400
11934TIP3    H157217   3.147   1.695  14.293  0.3808  0.0157  0.1292
11934TIP3    H257218   3.205   1.562  14.335  1.3454  0.6660  0.8936
11935TIP3   OH257219   2.029   3.027   4.917  0.2633  0.4085 -0.0832
11935TIP3    H157220   2.016   2.989   4.830 -0.4042  0.4588 -0.0085
11935TIP3    H257221   1.987   2.965   4.977  1.9189 -0.3451  0.3615
11936TIP3   OH257222   3.880   5.028  12.309 -0.0906  0.2599  0.4240
11936TIP3    H157223   3.927   5.029  12.226 -0.5791 -0.0257  0.1330
11936TIP3    H257224   3.789   5.047  12.284 -0.0553  1.2528  1.0251
11937TIP3   OH257225   6.725   5.637  10.792 -0.0428  0.1315 -0.1381
11937TIP3    H157226   6.770   5.703  10.845 -2.7900  0.5423  1.9030
11937TIP3    H257227   6.705   5.566  10.853 -2.3147  0.1086 -0.8012
11938TIP3   OH257228   1.184   3.648   2.305  0.0570  0.9394  0.4194
11938TIP3    H157229   1.177   3.583   2.375 -0.3597  0.3807 -0.1259
11938TIP3    H257230   1.242   3.716   2.340  3.5192 -1.4288 -0.2928
11939TIP3   OH257231   1.859   1.166   3.213 -0.2642 -0.1641  0.3176
11939TIP3    H157232   1.800   1.118   3.271 -0.7037 -1.6923 -1.2910
11939TIP3    H257233   1.838   1.133   3.125 -0.3948  2.8208 -0.8934
11940TIP3   OH257234   4.833   5.940  15.615  0.3211 -0.0063  0.3752
11940TIP3    H157235   4.913   5.949  15.564  0.6099 -0.9313  0.6392
11940TIP3    H257236   4.780   5.877  15.566 -0.1652  0.4592  0.3003
11941TIP3   OH257237   0.021   3.957  11.337  0.6835 -0.0890  0.7030
11941TIP3    H157238  -0.060   3.929  11.380 -1.3483  0.8809 -2.1366
11941TIP3    H257239   0.022   3.907  11.255  1.5945  1.7302 -0.4486
11942TIP3   OH257240   0.378   2.757  11.243  0.3345  0.2248  0.4853
11942TIP3    H157241   0.361   2.756  11.149  0.1059 -1.0336  0.5261
11942TIP3    H257242   0.300   2.795  11.282 -0.1147 -0.4321  0.2474
11943TIP3   OH257243   2.593   4.003   1.518 -0.3338  0.1102 -0.2507
11943TIP3    H157244   2.519   4.001   1.457 -0.1166  0.5745 -0.5369
11943TIP3    H257245   2.636   4.087   1.501  1.8005 -1.1941 -1.9523
11944TIP3   OH257246   4.368   4.156   4.746  0.0227  0.0759  0.8371
11944TIP3    H157247   4.302   4.189   4.808 -0.7794 -0.5821  0.3411
11944TIP3    H257248   4.318   4.107   4.681  0.9852 -0.2390  0.3210
11945TIP3   OH257249   4.972   3.030   0.590 -0.0044 -0.1436 -0.6608
11945TIP3    H157250   4.970   2.985   0.506  0.7215  1.9415 -1.8590
11945TIP3    H257251   5.048   2.994   0.635  1.2470  0.6736 -2.0695
11946TIP3   OH257252   4.820   0.069   4.130 -0.3732  0.4956 -0.1070
11946TIP3    H157253   4.899   0.022   4.103 -0.9981 -0.6883  0.0521
11946TIP3    H257254   4.841   0.104   4.216 -0.3860 -0.7841  0.4367
11947TIP3   OH257255   0.961   3.016   1.389  0.4955  0.2541  0.8248
11947TIP3    H157256   0.919   3.016   1.476 -0.8850  1.4288  0.2081
11947TIP3    H257257   0.998   2.928   1.380 -0.7560 -0.4338  1.9502
11948TIP3   OH257258   0.277   0.796   2.078 -0.3702 -0.5604 -0.1488
11948TIP3    H157259   0.229   0.879   2.071  2.0835  1.0225  0.6603
11948TIP3    H257260   0.258   0.765   2.167 -1.7964 -1.2875 -0.6593
11949TIP3   OH257261   3.580   4.378  12.975  0.2740 -0.4535  0.0843
11949TIP3    H157262   3.663   4.408  13.013 -0.2328 -1.0197  1.7452
11949TIP3    H257263   3.583   4.283  12.984 -0.0987 -0.5638 -0.8729
11950TIP3   OH257264   6.778   4.274  16.352  0.0116  0.4273  0.6660
11950TIP3    H157265   6.738   4.187  16.342  0.4429  0.3664 -0.7579
11950TIP3    H257266   6.861   4.257  16.397 -0.0238  0.1331  0.6233
11951TIP3   OH257267   0.825   0.851  12.452 -0.4091 -0.1928  0.4782
11951TIP3    H157268   0.791   0.931  12.493 -0.1073  0.4390 -0.4715
11951TIP3    H257269   0.824   0.786  12.522  0.1187  0.8566  1.4877
11952TIP3   OH257270   5.784   1.545  14.998  0.7549  0.2219 -0.2997
11952TIP3    H157271   5.844   1.570  15.068 -0.7557 -0.4024  1.2917
11952TIP3    H257272   5.732   1.473  15.035 -0.3608  0.1327 -1.9192
11953TIP3   OH257273   5.246   3.820  13.462 -0.3098  0.2445  0.3775
11953TIP3    H157274   5.301   3.784  13.531 -0.1341 -0.7730 -0.2755
11953TIP3    H257275   5.162   3.775  13.472 -1.3569  2.3710  1.8822
11954TIP3   OH257276   1.092   2.147   3.304  0.0762  0.3808 -0.6489
11954TIP3    H157277   1.106   2.235   3.339 -0.1513  0.1003  0.1697
11954TIP3    H257278   1.056   2.097   3.377 -0.5713 -0.1857 -1.3326
11955TIP3   OH257279   6.292   5.672   3.974 -0.2075 -0.4706  0.2790
11955TIP3    H157280   6.212   5.664   4.025 -1.0695 -3.0694 -1.3133
11955TIP3    H257281   6.263   5.695   3.885  0.6295 -2.5660 -0.6059
11956TIP3   OH257282   5.306   5.131  11.143  0.1313  0.2151 -0.0283
11956TIP3    H157283   5.308   5.174  11.058 -0.6357 -1.5490 -1.0007
11956TIP3    H257284   5.216   5.099  11.152  0.0514  0.7946  1.6923
11957TIP3   OH257285   1.575   5.771   2.514  0.4957  0.3270 -0.7223
11957TIP3    H157286   1.651   5.829   2.526 -1.1921  2.3959  0.6103
11957TIP3    H257287   1.568   5.723   2.596 -0.6538  1.4718 -0.1228
11958TIP3   OH257288   5.847   4.462  14.787 -0.6878 -0.3969  0.3877
11958TIP3    H157289   5.755   4.484  14.800 -0.8751 -1.2384  0.5747
11958TIP3    H257290   5.881   4.531  14.730 -1.4235 -0.0635  0.3431
11959TIP3   OH257291   1.772   0.744  15.145  0.5533 -0.7350 -0.2265
11959TIP3    H157292   1.741   0.663  15.105  0.7389 -0.7146 -0.4149
11959TIP3    H257293   1.719   0.813  15.105  0.7359 -0.7152 -0.4320
11960TIP3   OH257294   3.069   6.634   4.542 -0.3520  0.0902  0.1511
11960TIP3    H157295   3.027   6.691   4.606 -1.7436 -0.4271 -0.2701
11960TIP3    H257296   3.126   6.578   4.595  0.1680  1.0852  0.6870
11961TIP3   OH257297   5.987   2.021  16.740 -0.1663  0.1571 -0.3504
11961TIP3    H157298   6.011   2.072  16.818 -0.9810  0.6706 -0.4130
11961TIP3    H257299   6.046   1.946  16.741  0.6775  0.8061  0.0709
11962TIP3   OH257300   5.375   5.278  12.207  0.2224  0.3713 -0.2292
11962TIP3    H157301   5.313   5.283  12.279 -1.2452 -0.8751 -1.3508
11962TIP3    H257302   5.414   5.366  12.203  0.3109  0.4860  1.9953
11963TIP3   OH257303   2.408   4.948   2.994 -0.5563 -0.1934  0.3141
11963TIP3    H157304   2.426   4.890   3.068 -1.2184  1.1081  1.5467
11963TIP3    H257305   2.380   5.031   3.035 -0.1697  0.8152 -1.3806
11964TIP3   OH257306   5.621   0.225  11.242 -0.7181 -0.0020  0.2334
11964TIP3    H157307   5.538   0.223  11.290 -2.0825  0.7829 -1.9953
11964TIP3    H257308   5.635   0.317  11.222  0.1138 -0.2569 -0.3997
11965TIP3   OH257309   2.877   2.619   1.106 -0.0374  0.5620  0.3713
11965TIP3    H157310   2.785   2.643   1.111 -0.2615 -0.4317  1.5973
11965TIP3    H257311   2.917   2.686   1.049 -1.2186  1.8846  1.0331
11966TIP3   OH257312   2.338   2.680  14.138 -0.1166  0.1641  0.7033
11966TIP3    H157313   2.392   2.671  14.059 -2.0390  1.3345 -0.8400
11966TIP3    H257314   2.338   2.774  14.157  0.4816 -0.1234  2.2547
11967TIP3   OH257315   0.417   0.895   1.549  0.2783 -0.2821 -0.4843
11967TIP3    H157316   0.494   0.943   1.581 -0.6861  0.0411  1.5404
11967TIP3    H257317   0.376   0.861   1.629 -1.1768 -1.2395 -1.5934
11968TIP3   OH257318   6.034   1.349   5.485  0.5796  0.1827 -0.0061
11968TIP3    H157319   6.087   1.422   5.519 -0.4454  1.2388 -0.5896
11968TIP3    H257320   6.083   1.318   5.408  0.4075  1.1144 -0.5104
11969TIP3   OH257321   1.830   2.136   3.783  0.1466  0.3070 -0.1063
11969TIP3    H157322   1.907   2.105   3.736  0.6330  0.8535  0.3126
11969TIP3    H257323   1.791   2.202   3.726  0.0483  0.1039 -0.2732
11970TIP3   OH257324   1.867   1.619   3.707  0.1226 -0.3958 -0.1101
11970TIP3    H157325   1.804   1.650   3.772 -0.3247  2.3933 -1.6781
11970TIP3    H257326   1.935   1.574   3.757 -1.6329 -0.9251  1.9192
11971TIP3   OH257327   0.737   2.171   4.116 -0.6864  0.1492 -0.1137
11971TIP3    H157328   0.770   2.212   4.196 -2.0371  0.7041  0.1754
11971TIP3    H257329   0.690   2.093   4.147  0.0941 -0.5016 -0.5064
11972TIP3   OH257330   3.506   6.054  15.969 -0.4446 -0.8145 -0.0377
11972TIP3    H157331   3.445   6.113  16.014  1.8537  1.4944  0.2969
11972TIP3    H257332   3.559   6.017  16.038  0.7010 -0.1359 -0.5282
11973TIP3   OH257333   6.256   5.596  16.522 -0.1379  0.0666  0.2347
11973TIP3    H157334   6.184   5.584  16.584 -0.4548  0.3676 -0.0731
11973TIP3    H257335   6.221   5.654  16.455  0.2494 -0.1376 -0.1513
11974TIP3   OH257336   2.740   4.383   5.590  0.1586  0.2165 -0.5004
11974TIP3    H157337   2.826   4.382   5.548  0.4626 -2.7546 -0.0390
11974TIP3    H257338   2.757   4.417   5.678  1.4749 -2.6760  0.4847
11975TIP3   OH257339   5.023   1.623   2.495  0.2324 -0.5083 -0.0092
11975TIP3    H157340   4.990   1.535   2.479 -0.7684 -0.7310  2.8123
11975TIP3    H257341   4.999   1.672   2.416  0.0515 -2.5021 -1.2756
11976TIP3   OH257342   4.997   5.961   2.248 -0.9611 -0.1290  0.0734
11976TIP3    H157343   4.930   5.977   2.182 -0.8651 -0.4650 -0.1116
11976TIP3    H257344   4.993   5.866   2.264  0.6066 -0.4706 -1.2152
11977TIP3   OH257345   4.111   2.315   5.909 -0.3363  0.0783 -0.0755
11977TIP3    H157346   4.100   2.410   5.897 -1.8627  0.2324  1.9025
11977TIP3    H257347   4.173   2.307   5.982 -0.0618 -0.4474 -0.3668
11978TIP3   OH257348   2.426   6.058   4.269 -0.0688  0.1388  0.0947
11978TIP3    H157349   2.464   6.029   4.352 -2.3458 -1.0674  0.7858
11978TIP3    H257350   2.342   6.097   4.293 -0.0887  1.1812 -1.5129
11979TIP3   OH257351   6.459   3.526  16.054  0.4014  0.2109  0.4626
11979TIP3    H157352   6.370   3.557  16.072 -0.2624 -1.4024  0.1348
11979TIP3    H257353   6.448   3.433  16.033  1.9512  0.3848 -1.3668
11980TIP3   OH257354   6.418   4.907   1.270 -0.1508 -0.7512  0.0692
11980TIP3    H157355   6.463   4.888   1.352 -0.9026 -0.7044  0.4986
11980TIP3    H257356   6.327   4.884   1.286 -0.7266  1.2639 -0.0454
11981TIP3   OH257357   3.157   4.134   3.412  0.2248 -0.1276  0.0508
11981TIP3    H157358   3.179   4.113   3.503  0.7664 -1.5964 -0.3849
11981TIP3    H257359   3.071   4.095   3.398 -0.0427  0.4590  0.0464
11982TIP3   OH257360   4.697   3.360  16.593 -0.3244  0.2931  0.2642
11982TIP3    H157361   4.690   3.297  16.665 -0.7480 -0.0687 -0.0834
11982TIP3    H257362   4.766   3.325  16.537 -2.0824 -1.1667 -1.1534
11983TIP3   OH257363   1.408   1.658   0.214  0.4848 -0.1014  0.1553
11983TIP3    H157364   1.456   1.643   0.133 -0.3257  0.9427 -0.5373
11983TIP3    H257365   1.343   1.587   0.216 -1.0337  1.1509 -1.3359
11984TIP3   OH257366   2.806   3.142   1.587 -0.3802 -0.1421  0.8453
11984TIP3    H157367   2.871   3.096   1.640 -1.4224 -1.7317  0.8222
11984TIP3    H257368   2.736   3.165   1.649 -0.5471  0.0707  0.5812
11985TIP3   OH257369   3.036   3.746   2.672 -0.3202 -0.5106 -0.5933
11985TIP3    H157370   3.079   3.826   2.643  0.9723 -0.9119  0.1190
11985TIP3    H257371   3.048   3.685   2.600 -0.4602 -0.3529 -0.7495
11986TIP3   OH257372   3.126   5.008   1.691 -0.0549  0.4486  0.3716
11986TIP3    H157373   3.219   5.011   1.668  0.2773  0.7007  1.6756
11986TIP3    H257374   3.101   5.100   1.702  0.0311  0.3213  1.8185
11987TIP3   OH257375   4.640   1.387  12.568 -0.0849  0.1300 -0.3735
11987TIP3    H157376   4.639   1.416  12.659 -3.4941  2.1134 -0.8319
11987TIP3    H257377   4.657   1.467  12.518  2.6716 -1.0834 -1.5686
11988TIP3   OH257378   5.263   1.049   2.612  0.7127  0.5700 -0.0170
11988TIP3    H157379   5.312   1.045   2.529  0.0897  1.2505 -0.4303
11988TIP3    H257380   5.229   0.960   2.623  2.3231 -0.0259  0.4728
11989TIP3   OH257381   2.217   2.152   4.254  0.1463  0.5734 -0.3263
11989TIP3    H157382   2.188   2.181   4.340  1.0615  1.3397 -0.2671
11989TIP3    H257383   2.165   2.203   4.192  0.3417  0.8906 -0.2270
11990TIP3   OH257384   2.550   1.978  13.053  0.0603  0.6447 -0.3758
11990TIP3    H157385   2.462   1.942  13.063  0.2507 -0.0925 -1.2749
11990TIP3    H257386   2.560   1.989  12.958  1.3675 -0.3750 -0.3749
11991TIP3   OH257387   3.066   0.659   0.507 -0.0429 -0.7412  0.0635
11991TIP3    H157388   3.120   0.687   0.434  1.0460 -0.2848  1.0031
11991TIP3    H257389   3.124   0.606   0.561 -0.6558 -0.6269  0.8623
11992TIP3   OH257390   0.685   6.102   0.744 -0.0698  0.1171 -0.3877
11992TIP3    H157391   0.617   6.036   0.728  0.1569 -0.7570  1.8067
11992TIP3    H257392   0.639   6.186   0.740 -0.6999 -0.2743 -1.6297
11993TIP3   OH257393   3.787   3.064   3.206 -0.5267 -0.4995  0.3627
11993TIP3    H157394   3.784   3.159   3.221 -1.2095 -0.2827 -0.9791
11993TIP3    H257395   3.868   3.050   3.158 -1.0962 -0.3863 -0.6535
11994TIP3   OH257396   2.230   5.421   5.740 -0.7136  0.0049 -0.5615
11994TIP3    H157397   2.171   5.348   5.723 -0.6520 -0.0281 -0.6337
11994TIP3    H257398   2.196   5.493   5.686  0.5379 -0.6264 -2.2771
11995TIP3   OH257399   0.737   0.472  15.571  0.6855  0.4518 -0.2690
11995TIP3    H157400   0.783   0.389  15.558 -0.3509 -0.7120  2.6593
11995TIP3    H257401   0.645   0.447  15.579  0.3827  1.8280  0.9533
11996TIP3   OH257402   2.417   3.429   4.335 -0.0998 -0.5026  0.4013
11996TIP3    H157403   2.387   3.339   4.331  0.4235 -0.6707  0.1531
11996TIP3    H257404   2.467   3.434   4.417  2.6548 -1.3508 -1.0732
11997TIP3   OH257405   4.105   2.289   3.868 -0.3420 -0.4731  0.1230
11997TIP3    H157406   4.033   2.278   3.931 -1.3019  1.1003 -0.6178
11997TIP3    H257407   4.078   2.364   3.814 -1.0235 -3.4529 -4.1636
11998TIP3   OH257408   2.743   1.024  17.016  0.4843 -0.0230 -0.3534
11998TIP3    H157409   2.690   1.046  17.093  0.5285  0.6779 -0.5157
11998TIP3    H257410   2.718   1.089  16.950  0.3011 -0.7456 -0.9993
11999TIP3   OH257411   1.612   1.083   6.534  0.1234  0.1229 -0.3357
11999TIP3    H157412   1.680   1.071   6.468  1.0169 -0.3730  0.6573
11999TIP3    H257413   1.554   1.149   6.496  0.0352 -0.8818 -2.0606
12000TIP3   OH257414   2.763   1.260   0.901  0.3809  0.1064  0.5566
12000TIP3    H157415   2.678   1.217   0.906  1.2980 -1.6694  2.1856
12000TIP3    H257416   2.750   1.333   0.840 -1.8826 -1.0267 -0.4187
12001TIP3   OH257417   0.481   3.119  12.345 -0.1330 -0.2474  0.3505
12001TIP3    H157418   0.468   3.032  12.382  1.0581 -0.3879  0.4805
12001TIP3    H257419   0.470   3.106  12.250 -0.6536 -0.3922  0.4276
12002TIP3   OH257420   3.182   4.439   1.812 -0.2587 -0.3890  0.2217
12002TIP3    H157421   3.090   4.466   1.815 -0.1404 -0.0217  2.5575
12002TIP3    H257422   3.183   4.353   1.856  0.3011 -1.1945 -1.3095
12003TIP3   OH257423   3.690   0.314  17.075 -0.2102  0.1212 -0.1241
12003TIP3    H157424   3.668   0.266  17.154 -0.1405  1.2776  0.6119
12003TIP3    H257425   3.785   0.309  17.069  0.0129  1.8941  1.1205
12004TIP3   OH257426   2.735   6.461   2.778  0.0108  0.2909 -0.1453
12004TIP3    H157427   2.666   6.395   2.792 -0.5344  0.8802  0.0142
12004TIP3    H257428   2.770   6.477   2.865 -0.5586  0.9457 -0.0245
12005TIP3   OH257429   6.021   5.893  13.306  0.1140 -0.2007  0.5623
12005TIP3    H157430   6.092   5.881  13.243 -0.1413 -3.3969  0.6998
12005TIP3    H257431   5.941   5.870  13.258 -0.4043 -0.0975  1.3434
12006TIP3   OH257432   1.855   0.654  13.646 -0.0740 -0.1446 -0.8298
12006TIP3    H157433   1.804   0.615  13.717 -0.1340  0.9069 -0.2716
12006TIP3    H257434   1.838   0.748  13.653  2.2799  0.3171 -0.3172
12007TIP3   OH257435   3.873   0.964  16.291 -0.1877 -0.1615 -0.3141
12007TIP3    H157436   3.877   1.060  16.299 -0.5396  0.0792 -2.4755
12007TIP3    H257437   3.780   0.944  16.286 -0.0719 -0.2786 -2.8225
12008TIP3   OH257438   0.914   6.254   6.700 -0.4747 -0.2372 -0.4028
12008TIP3    H157439   0.950   6.183   6.753  0.4910  2.3197  2.6798
12008TIP3    H257440   0.975   6.261   6.626  1.6236 -0.2110  1.2585
12009TIP3   OH257441   0.509   4.067  15.501  0.4714 -0.0270 -0.2872
12009TIP3    H157442   0.535   3.975  15.503  2.3660  0.4634  2.0968
12009TIP3    H257443   0.420   4.067  15.536  0.3624 -0.9595 -0.5315
12010TIP3   OH257444   2.861   1.173  12.754  0.1069 -0.0921 -0.3243
12010TIP3    H157445   2.821   1.215  12.678 -0.5365  0.3092  0.2231
12010TIP3    H257446   2.954   1.195  12.748  0.3816 -1.4683 -1.9008
12011TIP3   OH257447   5.502   2.804   6.047  0.3950  0.3642  0.6865
12011TIP3    H157448   5.484   2.896   6.028 -0.2519  0.5454  2.0650
12011TIP3    H257449   5.551   2.773   5.971 -0.2140  1.5859 -0.2453
12012TIP3   OH257450   2.254   2.295  14.222 -0.3279  0.3139  0.5744
12012TIP3    H157451   2.199   2.355  14.172  0.0770 -1.7861 -2.6987
12012TIP3    H257452   2.212   2.210  14.213  1.0059 -0.5453  1.9575
12013TIP3   OH257453   2.718   4.412   0.308 -0.1462  0.0406  0.8162
12013TIP3    H157454   2.702   4.347   0.376  0.7878 -1.8799 -0.6881
12013TIP3    H257455   2.652   4.392   0.240  0.2166  0.5882  0.2941
12014TIP3   OH257456   4.558   6.100   4.296 -0.1765  0.4505 -0.1345
12014TIP3    H157457   4.626   6.147   4.248  0.0032  0.6531  0.3103
12014TIP3    H257458   4.518   6.042   4.231  1.4110 -0.7641 -0.0748
12015TIP3   OH257459   0.511   2.009  16.452  0.1785  0.4484  0.4838
12015TIP3    H157460   0.459   1.972  16.523  0.5672 -1.2852 -0.1085
12015TIP3    H257461   0.521   1.938  16.389 -0.1067  1.9209 -1.3029
12016TIP3   OH257462   6.008   2.288  11.988 -0.0327  0.2589  0.3119
12016TIP3    H157463   5.951   2.326  11.921 -1.4032  0.1243  1.3535
12016TIP3    H257464   5.971   2.320  12.071 -1.6044 -3.6291  1.3133
12017TIP3   OH257465   0.123   5.432   1.973 -0.3056  0.1490 -0.1068
12017TIP3    H157466   0.153   5.518   2.003 -1.0171  0.5614 -0.5367
12017TIP3    H257467   0.092   5.389   2.053 -1.7752  1.0704 -0.1242
12018TIP3   OH257468   2.032   4.154  11.398 -0.1986  0.4314  0.0066
12018TIP3    H157469   1.983   4.195  11.469 -0.1923  0.5573 -0.0614
12018TIP3    H257470   2.095   4.220  11.371  0.6337 -0.0495  0.7026
12019TIP3   OH257471   4.150   6.401  10.951 -0.5794 -0.2783 -0.4043
12019TIP3    H157472   4.181   6.492  10.948  1.3064 -0.8383  0.1559
12019TIP3    H257473   4.063   6.404  10.912 -0.7587  1.8365  0.0031
12020TIP3   OH257474   0.092   6.205  12.389 -0.6258  0.8377  0.3255
12020TIP3    H157475  -0.001   6.197  12.367 -0.2865 -0.5181 -0.8486
12020TIP3    H257476   0.099   6.167  12.477 -0.6961 -2.9125 -1.0808
12021TIP3   OH257477   1.422   1.120   1.168  0.3384 -0.1195  1.1034
12021TIP3    H157478   1.393   1.089   1.083  2.1966  0.4453  0.2180
12021TIP3    H257479   1.344   1.163   1.205 -0.4785 -0.2932 -0.3275
12022TIP3   OH257480   4.114   1.197   0.084  0.6681 -0.0683 -0.2739
12022TIP3    H157481   4.046   1.139   0.118 -0.7058  1.0524 -1.0164
12022TIP3    H257482   4.088   1.285   0.112  0.7031  0.6123 -2.2245
12023TIP3   OH257483   5.750   1.898   0.031 -0.1163  0.0373 -0.3850
12023TIP3    H157484   5.791   1.866  -0.049  0.7305  2.3079 -0.9370
12023TIP3    H257485   5.656   1.899   0.012 -0.1013 -1.2666 -0.6131
12024TIP3   OH257486   1.964   0.822   5.452 -0.3945  0.5709 -0.9935
12024TIP3    H157487   2.058   0.811   5.467 -0.8282 -1.7591  0.7266
12024TIP3    H257488   1.941   0.902   5.499  0.8997  1.8333 -2.4591
12025TIP3   OH257489   5.824   5.193  11.657  0.2593  0.9855  0.4113
12025TIP3    H157490   5.810   5.099  11.660 -1.5304  1.2244  3.4560
12025TIP3    H257491   5.919   5.203  11.648  0.3863 -1.0528 -0.9504
12026TIP3   OH257492   5.941   1.511   6.425  0.0318  0.1220 -0.2756
12026TIP3    H157493   5.975   1.433   6.468 -2.3293 -0.8731 -0.0348
12026TIP3    H257494   5.939   1.578   6.493 -1.7707 -0.8563  0.7134
12027TIP3   OH257495   2.687   2.251   3.282 -0.0563  0.4024  0.2389
12027TIP3    H157496   2.692   2.231   3.189  0.1614  1.6606 -0.0338
12027TIP3    H257497   2.679   2.165   3.324  0.4810 -0.2237 -0.8821
12028TIP3   OH257498   4.477   3.843  16.442 -0.1948 -0.1973  0.4002
12028TIP3    H157499   4.463   3.885  16.357  0.7798 -0.6128  0.0158
12028TIP3    H257500   4.438   3.756  16.432 -0.9198  0.0863  0.7043
12029TIP3   OH257501   4.239   1.603   4.695 -0.0089  0.0584 -0.0410
12029TIP3    H157502   4.298   1.530   4.713 -1.6675 -1.8191 -1.8105
12029TIP3    H257503   4.210   1.589   4.605 -2.8619  1.0885  0.6065
12030TIP3   OH257504   1.983   0.746   1.947  0.5088 -0.4825  0.0768
12030TIP3    H157505   1.942   0.718   2.029 -1.0751  2.6015  0.4807
12030TIP3    H257506   2.073   0.713   1.953  0.4263 -0.4166  3.0659
12031TIP3   OH257507   4.582   2.806   5.044  0.0297  0.0725  0.0327
12031TIP3    H157508   4.568   2.856   5.125  0.9740  0.1476  0.1644
12031TIP3    H257509   4.541   2.722   5.060  2.0558 -0.7401  1.4779
12032TIP3   OH257510   2.947   1.948   2.100 -0.2515 -0.1991 -0.1680
12032TIP3    H157511   2.884   2.003   2.146  2.2240  1.4068  1.5549
12032TIP3    H257512   2.929   1.859   2.130 -0.7765  0.4257  1.4381
12033TIP3   OH257513   4.140   6.249   4.465  0.5541  0.1427 -0.7746
12033TIP3    H157514   4.180   6.328   4.427 -1.2043  1.0764 -0.7798
12033TIP3    H257515   4.191   6.233   4.544  1.3047  0.9492 -1.0719
12034TIP3   OH257516   4.438   2.286   5.038  0.0476 -0.2727  0.1940
12034TIP3    H157517   4.505   2.218   5.037  1.1728  0.7980 -1.8562
12034TIP3    H257518   4.374   2.257   4.973 -0.3430 -0.1644  0.5210
12035TIP3   OH257519   1.773   2.015  13.740  0.5679  0.3319  0.3082
12035TIP3    H157520   1.717   2.093  13.745 -0.5655 -0.4314  0.0167
12035TIP3    H257521   1.775   1.981  13.829 -1.2792 -0.8430 -0.0312
12036TIP3   OH257522   3.777   5.027  16.382  0.7174  0.2750 -0.0315
12036TIP3    H157523   3.688   4.995  16.393  0.7787 -0.8524 -2.1866
12036TIP3    H257524   3.779   5.109  16.431 -1.5944  0.4770 -0.1434
12037TIP3   OH257525   1.881   4.183   3.616  0.0275  0.1290 -0.2899
12037TIP3    H157526   1.957   4.131   3.591 -0.4689  0.4870 -2.8236
12037TIP3    H257527   1.815   4.162   3.550 -1.3938  1.3336  0.6806
12038TIP3   OH257528   2.740   5.511   0.518  0.4108  0.5786  0.3334
12038TIP3    H157529   2.735   5.590   0.463 -2.0009  1.3693  1.5359
12038TIP3    H257530   2.716   5.440   0.459 -0.9293  1.2553  0.0067
12039TIP3   OH257531   2.423   5.258  16.003 -0.0164 -0.0846  0.5077
12039TIP3    H157532   2.352   5.240  16.065 -0.4388  0.4454  0.1818
12039TIP3    H257533   2.432   5.177  15.953 -0.2170 -0.2416  0.7237
12040TIP3   OH257534   3.206   3.057  16.105 -0.5585  0.6807 -0.1220
12040TIP3    H157535   3.292   3.080  16.139 -1.2374  1.2922  1.2646
12040TIP3    H257536   3.222   3.033  16.014  1.3155 -0.8838  0.5491
12041TIP3   OH257537   1.270   2.383   5.072  0.3351  0.5240 -0.0165
12041TIP3    H157538   1.216   2.388   5.152  0.7891  1.4482  0.2518
12041TIP3    H257539   1.293   2.474   5.054 -0.2611  0.3835 -1.5632
12042TIP3   OH257540   3.213   1.811   4.481  0.3620 -0.5405 -0.4167
12042TIP3    H157541   3.216   1.892   4.531 -0.5217 -0.2769 -0.7604
12042TIP3    H257542   3.280   1.822   4.413  2.1435 -1.2397  1.1511
12043TIP3   OH257543   3.219   6.769   1.984  0.2182 -1.0535 -0.0926
12043TIP3    H157544   3.159   6.707   2.026 -0.3530 -0.9767 -0.7622
12043TIP3    H257545   3.164   6.844   1.961  0.7896 -0.5352  0.1977
12044TIP3   OH257546   1.293   1.470   5.892  0.3347 -0.5857 -0.2651
12044TIP3    H157547   1.302   1.515   5.808  1.6495 -0.6322 -0.1700
12044TIP3    H257548   1.304   1.539   5.957 -0.3884 -0.5993 -0.1234
12045TIP3   OH257549   6.148   3.908  12.235 -0.5279  0.1215  0.0849
12045TIP3    H157550   6.074   3.881  12.182 -0.2525 -0.9488  0.2293
12045TIP3    H257551   6.206   3.832  12.238 -0.4796  0.1785  1.8036
12046TIP3   OH257552   2.372   4.076   4.481  0.6397 -0.1875  0.1179
12046TIP3    H157553   2.321   4.003   4.445 -0.9482  0.9715 -0.0898
12046TIP3    H257554   2.333   4.092   4.567  2.5351 -1.0748  1.2148
12047TIP3   OH257555   3.001   5.306  10.706  0.2105 -0.2503  0.3179
12047TIP3    H157556   2.949   5.256  10.642 -0.1850 -0.2023  0.5954
12047TIP3    H257557   2.981   5.398  10.686  1.9038 -0.1316 -1.0052
12048TIP3   OH257558   0.937   3.676   4.611  0.1533 -0.5415  0.3181
12048TIP3    H157559   0.927   3.611   4.542  0.4996 -1.5226  1.1765
12048TIP3    H257560   0.889   3.753   4.578  1.1750 -0.6126 -1.4483
12049TIP3   OH257561   0.059   3.122   5.298 -0.3090  0.5994 -0.0448
12049TIP3    H157562   0.058   3.039   5.346  1.4352 -0.4425 -1.6548
12049TIP3    H257563   0.130   3.172   5.338  0.8025 -0.0604 -1.1161
12050TIP3   OH257564   2.783   6.579   4.850 -0.6932 -0.3216 -0.0792
12050TIP3    H157565   2.822   6.492   4.852  3.5126  1.2938 -0.7686
12050TIP3    H257566   2.794   6.609   4.760 -0.9905  1.3484  0.3924
12051TIP3   OH257567   2.452   3.971   4.804  0.7483  0.0338 -0.1879
12051TIP3    H157568   2.404   3.915   4.744  1.3961 -1.0849  0.3064
12051TIP3    H257569   2.401   3.969   4.885  1.0792 -0.3297  0.0158
12052TIP3   OH257570   4.747   1.146  11.945 -0.0544  0.6067 -0.1131
12052TIP3    H157571   4.724   1.164  12.036  0.7663  2.5786 -0.2542
12052TIP3    H257572   4.784   1.228  11.913  2.0663 -0.7896 -1.4646
12053TIP3   OH257573   2.382   4.489   5.174  0.2179  0.5050 -0.0926
12053TIP3    H157574   2.383   4.419   5.109  1.6820  2.0666 -1.8625
12053TIP3    H257575   2.473   4.496   5.204 -0.4045 -0.1494  2.1970
12054TIP3   OH257576   6.657   2.413   3.003  0.4082 -0.1014  0.1250
12054TIP3    H157577   6.606   2.441   3.079 -1.0543  0.2363 -0.9274
12054TIP3    H257578   6.738   2.463   3.007  0.4141 -0.1967  1.5174
12055TIP3   OH257579   4.493   4.455  14.332  0.0473  0.3584 -0.0744
12055TIP3    H157580   4.461   4.545  14.327 -2.0942 -0.2199  1.8222
12055TIP3    H257581   4.570   4.459  14.388  0.4947  1.1113 -0.7278
12056TIP3   OH257582   3.785   0.828   4.770 -0.3725  0.1280 -0.5098
12056TIP3    H157583   3.847   0.792   4.707  1.0309 -1.3422  1.5859
12056TIP3    H257584   3.812   0.919   4.782  0.8858 -0.2558 -0.2627
12057TIP3   OH257585   0.122   5.961   4.864 -0.4373  0.2192 -0.2694
12057TIP3    H157586   0.137   5.909   4.785  0.7302 -2.1683  1.4081
12057TIP3    H257587   0.032   5.940   4.889 -0.4154  0.0640 -0.3171
12058TIP3   OH257588   2.829   2.976   3.559 -0.0505 -0.3131 -0.2996
12058TIP3    H157589   2.826   2.928   3.642  1.0068 -0.4993 -0.3490
12058TIP3    H257590   2.902   3.037   3.570 -1.6571  1.6649 -0.0636
12059TIP3   OH257591   0.057   4.190   1.564 -0.0044  0.5558  0.0466
12059TIP3    H157592   0.045   4.136   1.486 -1.4902  0.4786  0.3032
12059TIP3    H257593   0.141   4.234   1.550 -0.0095  0.1729 -1.3621
12060TIP3   OH257594   4.215   2.573  13.990  0.7689 -0.2612  0.0730
12060TIP3    H157595   4.174   2.651  14.026 -1.0250 -0.7831 -0.7575
12060TIP3    H257596   4.269   2.605  13.918  1.4545  0.3733  0.8460
12061TIP3   OH257597   2.100   0.611   3.213  0.0535 -0.3621  0.0054
12061TIP3    H157598   2.063   0.681   3.267 -0.3209 -0.2265 -0.4163
12061TIP3    H257599   2.195   0.617   3.228  0.2740  1.6301 -1.6036
12062TIP3   OH257600   1.118   0.518  13.034 -0.0667  0.1704  0.3472
12062TIP3    H157601   1.052   0.462  13.074 -0.6704  0.2507 -0.5151
12062TIP3    H257602   1.108   0.503  12.940  2.1345 -0.9463  0.2297
12063TIP3   OH257603   0.535   1.306   4.125  0.6622 -0.4989  0.1944
12063TIP3    H157604   0.452   1.331   4.084  0.7639 -0.2201  0.1517
12063TIP3    H257605   0.601   1.355   4.076  0.6898  0.7811  1.4262
12064TIP3   OH257606   1.263   0.317   3.433 -0.3468  0.2068 -0.0580
12064TIP3    H157607   1.281   0.402   3.475 -0.7012  0.7396 -0.9588
12064TIP3    H257608   1.264   0.254   3.505 -1.5643  1.1816  0.8624
12065TIP3   OH257609   6.316   4.102   2.714  0.6500  0.1954 -0.0891
12065TIP3    H157610   6.229   4.130   2.688  0.3324 -1.0400 -0.4552
12065TIP3    H257611   6.305   4.010   2.739  1.6493  0.3112  0.8648
12066TIP3   OH257612   6.802   3.451  12.163  0.2584  0.3497  0.0870
12066TIP3    H157613   6.854   3.440  12.083  1.2926 -0.2075  0.8148
12066TIP3    H257614   6.715   3.477  12.131  0.6115  0.0201 -1.2182
12067TIP3   OH257615   4.957   0.007  11.907 -0.7547 -0.0189 -0.0026
12067TIP3    H157616   5.006  -0.075  11.916  0.9297  1.0512  1.2798
12067TIP3    H257617   4.948   0.040  11.997  0.1495  2.0209 -0.5994
12068TIP3   OH257618   6.049   0.107  10.900  0.0974  0.7508 -0.1756
12068TIP3    H157619   5.995   0.172  10.856  0.0091  0.8246  0.0376
12068TIP3    H257620   6.044   0.029  10.845 -1.3965  0.2822  0.5596
12069TIP3   OH257621   3.704   6.397   2.092  0.2654  0.1820  0.0571
12069TIP3    H157622   3.722   6.488   2.116  2.8075  0.0295 -1.0324
12069TIP3    H257623   3.755   6.345   2.155  0.9791 -0.3988 -0.9806
12070TIP3   OH257624   2.729   1.842   6.212 -0.3496 -0.0465  0.6761
12070TIP3    H157625   2.805   1.848   6.269  1.2884  0.2240 -1.3822
12070TIP3    H257626   2.658   1.883   6.261  1.6208  2.7688  1.4170
12071TIP3   OH257627   0.328   5.996   5.527  0.0150  0.4918  0.2392
12071TIP3    H157628   0.356   5.961   5.442 -0.7285  1.8477 -0.5934
12071TIP3    H257629   0.406   5.988   5.582  0.2366 -1.2782 -0.2527
12072TIP3   OH257630   6.394   5.079  11.851 -0.2294 -0.5349 -0.2635
12072TIP3    H157631   6.481   5.039  11.858 -0.4278 -1.0669 -0.7407
12072TIP3    H257632   6.370   5.066  11.759 -0.4912  0.2875 -0.3105
12073TIP3   OH257633   2.988   2.107   3.331  0.3615  0.6021  0.3112
12073TIP3    H157634   2.910   2.057   3.309  0.1570  1.4224 -0.8941
12073TIP3    H257635   3.054   2.078   3.268  0.9399  0.1766  1.0900
12074TIP3   OH257636   6.034   3.319   6.265 -0.9329 -0.1335  0.4862
12074TIP3    H157637   6.033   3.248   6.201 -0.8988  0.4722 -0.1974
12074TIP3    H257638   5.943   3.345   6.275 -0.7882  0.8663 -0.5742
12075TIP3   OH257639   4.136   5.310   1.032  0.0314  1.1551  0.1992
12075TIP3    H157640   4.061   5.270   0.988  1.6375 -1.8698 -0.0521
12075TIP3    H257641   4.114   5.306   1.125 -0.1105  0.1904  0.1316
12076TIP3   OH257642   1.729   1.777   3.443 -0.2180 -0.1627 -0.3330
12076TIP3    H157643   1.716   1.704   3.503  0.1890 -1.2054 -1.4738
12076TIP3    H257644   1.671   1.759   3.369 -2.0886  2.0370  0.4652
12077TIP3   OH257645   3.457   6.422   1.994  0.0010 -0.1430 -0.0343
12077TIP3    H157646   3.466   6.505   1.947 -0.8072  0.2897  0.5477
12077TIP3    H257647   3.532   6.420   2.054 -0.4890  0.6393  0.6288
12078TIP3   OH257648   2.220   3.689  15.693 -0.0241 -0.3427 -0.5666
12078TIP3    H157649   2.135   3.653  15.668 -1.1152  0.4717  1.6200
12078TIP3    H257650   2.280   3.661  15.625 -1.6072 -2.7890 -1.0703
12079TIP3   OH257651   2.788   3.319   3.399  0.1420 -0.2445 -0.1990
12079TIP3    H157652   2.763   3.314   3.491  0.3992 -0.0721 -0.1180
12079TIP3    H257653   2.818   3.409   3.387  0.3662 -0.3427 -0.3840
12080TIP3   OH257654   3.130   1.178   3.250 -0.3110 -0.0088  0.0002
12080TIP3    H157655   3.058   1.219   3.202 -0.7472  0.3749  0.9464
12080TIP3    H257656   3.093   1.096   3.282  0.0589 -0.3872 -0.5312
12081TIP3   OH257657   2.049   5.315   4.525 -0.8026 -0.2503 -0.3563
12081TIP3    H157658   2.071   5.249   4.591 -0.1075  0.3452  0.0128
12081TIP3    H257659   2.017   5.264   4.450  1.5533 -1.1562 -0.8405
12082TIP3   OH257660   5.767   3.515   1.510 -1.0630  0.1012  0.0389
12082TIP3    H157661   5.720   3.582   1.560 -1.4007 -0.3125  0.2763
12082TIP3    H257662   5.701   3.474   1.455 -0.7358  0.3875 -0.5714
12083TIP3   OH257663   3.801   4.575   3.760  0.2057  0.7626  0.0201
12083TIP3    H157664   3.839   4.542   3.678 -0.7517  0.6596 -0.3885
12083TIP3    H257665   3.868   4.634   3.795  3.0190 -3.1670  1.9274
12084TIP3   OH257666   3.547   1.722   3.041 -0.1077  0.2400  0.4300
12084TIP3    H157667   3.551   1.699   2.949 -0.1875  0.4035  0.3850
12084TIP3    H257668   3.538   1.817   3.042  3.1541  0.6675  0.6240
12085TIP3   OH257669   5.750   1.259   5.980  0.2298 -0.0909  0.4904
12085TIP3    H157670   5.778   1.349   6.002 -1.5747  1.0317 -1.4721
12085TIP3    H257671   5.831   1.208   5.981  1.2414  1.4396  2.1161
12086TIP3   OH257672   1.263   0.515   3.808  0.2043 -0.0074 -0.5983
12086TIP3    H157673   1.294   0.574   3.877  1.9032 -0.1054 -1.2305
12086TIP3    H257674   1.189   0.561   3.769  2.2099  2.3935 -1.8805
12087TIP3   OH257675   2.734   3.375  15.953  0.2597  0.1385 -0.5324
12087TIP3    H157676   2.714   3.368  16.046  1.5259  2.1163 -0.0668
12087TIP3    H257677   2.783   3.295  15.934 -0.7084 -0.6789  0.2784
12088TIP3   OH257678   4.199   2.281   0.190 -0.3801  0.2561  0.3487
12088TIP3    H157679   4.228   2.372   0.190 -1.9899  0.8164  0.0832
12088TIP3    H257680   4.276   2.230   0.215  0.4429  1.7245  0.9098
12089TIP3   OH257681   3.018   4.669   4.764 -0.3985  0.7365 -0.4344
12089TIP3    H157682   2.984   4.659   4.675 -0.3207 -0.7285 -0.3249
12089TIP3    H257683   2.961   4.735   4.804 -2.2485 -0.6057 -0.7081
12090TIP3   OH257684   6.649   1.528   5.692  0.8274  0.6472  0.2416
12090TIP3    H157685   6.625   1.462   5.627  0.7592  1.1084 -0.2068
12090TIP3    H257686   6.713   1.484   5.748 -3.2009 -1.8099  3.4917
12091TIP3   OH257687   6.214   2.308   2.205 -0.1308  0.0265 -0.9727
12091TIP3    H157688   6.142   2.257   2.168 -1.0825  1.0628 -0.5898
12091TIP3    H257689   6.291   2.251   2.196 -1.4406 -2.1904  1.0207
12092TIP3   OH257690   3.098   0.540  13.308  0.3863 -0.0627  0.3095
12092TIP3    H157691   3.100   0.552  13.213  1.1562  0.3921  0.3735
12092TIP3    H257692   3.006   0.523  13.329  0.3982 -1.5559 -0.6820
12093TIP3   OH257693   2.146   0.560   3.896  0.1891 -0.3598  0.4964
12093TIP3    H157694   2.117   0.527   3.811 -1.4775  0.9008  0.5041
12093TIP3    H257695   2.180   0.647   3.877  0.6145 -0.4125  1.0076
12094TIP3   OH257696   2.967   4.422   5.444 -0.1328 -0.3310 -0.2995
12094TIP3    H157697   3.058   4.395   5.433 -0.2966 -0.5995 -1.0552
12094TIP3    H257698   2.926   4.403   5.360 -0.5234  1.2253 -0.4809
12095TIP3   OH257699   1.253   2.998   5.459  0.2764 -0.1665 -0.5475
12095TIP3    H157700   1.209   3.023   5.540  0.6556 -0.4796 -0.2395
12095TIP3    H257701   1.214   3.055   5.392 -1.6239 -1.3978 -0.5615
12096TIP3   OH257702   6.707   6.306  14.174  0.1380  0.0890 -0.1261
12096TIP3    H157703   6.769   6.282  14.106 -0.3849 -4.4000  0.6850
12096TIP3    H257704   6.759   6.308  14.254  0.3285  3.1449 -0.2053
12097TIP3   OH257705   2.209   5.643   2.496 -0.0320  0.4126 -0.1475
12097TIP3    H157706   2.176   5.646   2.586 -2.0807 -0.1920 -0.8369
12097TIP3    H257707   2.284   5.584   2.500 -0.8775 -0.6276  0.9468
12098TIP3   OH257708   5.471   1.188  13.129  0.7109 -0.2570 -0.1271
12098TIP3    H157709   5.405   1.144  13.184  0.1505 -0.9646 -1.3087
12098TIP3    H257710   5.422   1.214  13.051  1.3576  1.2742 -0.0448
12099TIP3   OH257711   5.608   4.740   3.374  0.9478  0.1372 -0.1762
12099TIP3    H157712   5.627   4.672   3.309  2.0016  0.2940 -0.0472
12099TIP3    H257713   5.694   4.764   3.409  0.4792  0.7532  0.5726
12100TIP3   OH257714   4.024   6.040  14.624 -0.1171  0.1982 -0.6201
12100TIP3    H157715   3.957   6.054  14.691  1.8716  1.9783  1.1156
12100TIP3    H257716   3.976   5.999  14.552 -2.7712  0.0758  1.0544
12101TIP3   OH257717   6.232   1.426   2.777 -0.0666 -0.0716 -0.0817
12101TIP3    H157718   6.217   1.511   2.818 -0.1017  0.2723 -0.7990
12101TIP3    H257719   6.150   1.407   2.730 -0.6732 -1.2480  1.3487
12102TIP3   OH257720   2.552   4.946  12.711  0.5395 -0.0995  0.4987
12102TIP3    H157721   2.610   4.995  12.652  0.9699 -0.5396  0.5503
12102TIP3    H257722   2.489   4.904  12.653  1.0891 -0.7026  0.3251
12103TIP3   OH257723   0.590   2.223  13.126 -0.3842 -0.2471 -0.4684
12103TIP3    H157724   0.572   2.157  13.059 -1.6025 -0.3771 -0.0258
12103TIP3    H257725   0.528   2.294  13.107  0.4392  0.4807 -0.5207
12104TIP3   OH257726   6.012   1.549   3.986  0.0021  0.0422 -0.4900
12104TIP3    H157727   6.034   1.536   3.894 -0.9906 -0.9961 -0.6023
12104TIP3    H257728   6.079   1.501   4.035 -0.0005 -0.1734 -0.7006
12105TIP3   OH257729   6.040   1.834  16.155 -0.0699 -0.4699 -0.0376
12105TIP3    H157730   5.964   1.892  16.153 -0.8667 -1.4980  0.0022
12105TIP3    H257731   6.035   1.790  16.240 -0.3378 -1.7068 -0.6716
12106TIP3   OH257732   2.342   3.303  17.078  0.8470  0.0515 -0.2425
12106TIP3    H157733   2.359   3.238  17.009 -0.1107 -1.1144  0.5746
12106TIP3    H257734   2.429   3.328  17.108  1.2650 -1.6455  0.1070
12107TIP3   OH257735   2.281   2.697   4.470 -0.4947  0.4367 -0.1854
12107TIP3    H157736   2.204   2.701   4.526 -0.1786 -0.2445  0.3134
12107TIP3    H257737   2.289   2.605   4.445  0.0367  0.5325 -0.3997
12108TIP3   OH257738   0.149   5.508  13.229 -0.0611 -0.2721  0.1731
12108TIP3    H157739   0.163   5.556  13.147 -0.0222 -1.3305 -0.4641
12108TIP3    H257740   0.236   5.497  13.266  0.5788 -3.4555 -1.8235
12109TIP3   OH257741   6.088   4.278  13.827  0.7129 -0.6731 -0.5197
12109TIP3    H157742   6.123   4.358  13.867 -0.4111 -0.3350 -0.1957
12109TIP3    H257743   6.126   4.277  13.739  0.0919  0.6658 -0.8324
12110TIP3   OH257744   6.353   3.428  10.683  0.7323 -0.2980 -0.4429
12110TIP3    H157745   6.405   3.347  10.685  1.6465  0.2853 -0.2999
12110TIP3    H257746   6.269   3.401  10.645  1.3526 -1.1357 -1.2579
12111TIP3   OH257747   5.680   3.134   3.254 -0.4641  0.0901  0.2947
12111TIP3    H157748   5.617   3.143   3.326  1.4758  0.6408  2.0383
12111TIP3    H257749   5.667   3.045   3.221  0.0879 -1.0330  2.8770
12112TIP3   OH257750   1.677   4.283  16.593  0.1559  0.0828 -0.2946
12112TIP3    H157751   1.706   4.212  16.650  0.9249 -0.9992 -1.9492
12112TIP3    H257752   1.582   4.269  16.586  0.5042 -1.9930 -2.0473
12113TIP3   OH257753   2.226   4.386   0.294  0.2993 -0.0116 -0.0008
12113TIP3    H157754   2.222   4.290   0.301  0.6689  0.0482  1.3577
12113TIP3    H257755   2.262   4.403   0.207 -0.5771 -1.0801 -0.6004
12114TIP3   OH257756   0.857   0.717  15.697  0.4470  0.0409  0.2572
12114TIP3    H157757   0.859   0.621  15.697  0.5941  0.0433  0.2844
12114TIP3    H257758   0.893   0.742  15.782 -1.9221  0.0869  1.3117
12115TIP3   OH257759   3.053   1.556   2.457 -0.2165  0.0573  0.2067
12115TIP3    H157760   3.088   1.472   2.488 -0.3047 -0.8012 -1.8519
12115TIP3    H257761   3.126   1.596   2.410 -1.1582 -0.6059 -1.9622
12116TIP3   OH257762   3.596   2.054  15.342  0.3772  0.1744 -0.0979
12116TIP3    H157763   3.676   2.107  15.334  0.3578  0.1368 -0.5730
12116TIP3    H257764   3.627   1.963  15.341  0.3688  0.1695  0.1930
12117TIP3   OH257765   0.559   4.686  11.469 -0.1955  0.0112  0.6177
12117TIP3    H157766   0.580   4.604  11.513 -0.0921 -0.2419  0.0968
12117TIP3    H257767   0.495   4.663  11.402  0.9667  0.0856 -0.5519
12118TIP3   OH257768   4.883   3.792  12.195 -0.1282  0.3595  0.6394
12118TIP3    H157769   4.842   3.872  12.228 -1.8657 -0.4846  0.6270
12118TIP3    H257770   4.840   3.721  12.243 -0.2157 -0.6958 -0.9160
12119TIP3   OH257771   2.139   6.385  10.152  0.1256 -0.3963  0.0724
12119TIP3    H157772   2.121   6.305  10.201 -2.1318  1.0004  1.7475
12119TIP3    H257773   2.052   6.422  10.135  1.0443  1.0348 -1.8307
12120TIP3   OH257774   4.273   3.296   2.719 -0.2216 -0.1865 -0.4871
12120TIP3    H157775   4.254   3.367   2.781  2.7514 -0.1705  0.5603
12120TIP3    H257776   4.204   3.303   2.653 -2.8843  0.5122  2.1596
12121TIP3   OH257777   6.420   1.534   3.114 -0.2777 -0.7492 -0.0192
12121TIP3    H157778   6.396   1.604   3.175 -0.6177 -1.0958  0.2507
12121TIP3    H257779   6.338   1.514   3.068 -0.0184 -0.4763 -0.6089
12122TIP3   OH257780   5.341   2.722   1.998  0.4466 -0.1959  0.3014
12122TIP3    H157781   5.329   2.727   1.903 -1.9127 -1.7910  0.4354
12122TIP3    H257782   5.410   2.657   2.010  0.9418  0.2022 -0.2963
12123TIP3   OH257783   6.376   6.188  10.246  0.2321  0.2585  0.5851
12123TIP3    H157784   6.366   6.109  10.299 -0.5385 -0.8604 -1.1464
12123TIP3    H257785   6.359   6.159  10.156 -1.4093  2.6587  0.0323
12124TIP3   OH257786   1.266   4.889   6.299 -0.2921 -0.1803  0.3774
12124TIP3    H157787   1.212   4.838   6.238  0.3405 -0.3183 -0.0773
12124TIP3    H257788   1.214   4.967   6.318 -0.0122  0.4586 -1.2940
12125TIP3   OH257789   5.808   4.751  13.965 -0.1983  0.4092  0.1722
12125TIP3    H157790   5.732   4.792  13.924 -0.1019  0.0505 -0.3729
12125TIP3    H257791   5.785   4.659  13.973  0.3483  0.2065 -0.4288
12126TIP3   OH257792   4.819   3.163   3.635  0.5772  0.1564 -0.1496
12126TIP3    H157793   4.825   3.169   3.540 -1.1130  1.5007 -0.2220
12126TIP3    H257794   4.909   3.151   3.664  1.2645  0.9090 -1.8532
12127TIP3   OH257795   5.962   1.315   4.533  0.0262 -0.3870 -0.1156
12127TIP3    H157796   5.998   1.404   4.539 -0.9446  0.0023  0.2177
12127TIP3    H257797   6.022   1.261   4.585  1.3830 -0.1946 -1.4356
12128TIP3   OH257798   1.955   4.688   0.672 -0.3285  0.2879 -0.1850
12128TIP3    H157799   1.985   4.608   0.629  0.9107  0.6146  0.0163
12128TIP3    H257800   1.949   4.665   0.765  1.8453  0.8780  0.1559
12129TIP3   OH257801   5.643   3.820  13.715  0.6857 -0.4586 -0.3934
12129TIP3    H157802   5.728   3.796  13.678  1.0151 -0.5463  0.4113
12129TIP3    H257803   5.661   3.841  13.807 -0.4683 -2.4190  0.3291
12130TIP3   OH257804   2.522   5.757  14.395 -0.1374 -0.5044  0.2669
12130TIP3    H157805   2.524   5.729  14.486  1.7050 -2.1237 -0.1975
12130TIP3    H257806   2.588   5.826  14.389 -2.9429  2.4670  0.8743
12131TIP3   OH257807   5.681   6.034   2.708  0.2988  0.5402  0.1460
12131TIP3    H157808   5.607   6.095   2.716  0.5935  1.0678 -0.9485
12131TIP3    H257809   5.690   6.020   2.614  1.9074  0.8674  0.2230
12132TIP3   OH257810   4.647   3.147   2.224  0.6318 -0.1621  0.1999
12132TIP3    H157811   4.570   3.163   2.279 -0.1254  0.9180 -1.1100
12132TIP3    H257812   4.632   3.061   2.186 -0.3916  0.4035 -0.7274
12133TIP3   OH257813   5.446   4.516  14.016  0.6057  0.0551 -0.4650
12133TIP3    H157814   5.427   4.424  13.997  0.7863 -0.3656  1.1855
12133TIP3    H257815   5.386   4.566  13.960  0.4410 -1.0631 -1.3130
12134TIP3   OH257816   6.285   0.611  10.396 -0.4963  0.7670 -0.0716
12134TIP3    H157817   6.221   0.541  10.382  1.3230 -0.8559 -0.7921
12134TIP3    H257818   6.313   0.600  10.487 -0.4461  0.7802 -0.0858
12135TIP3   OH257819   0.089   6.534   2.024  0.4684 -0.1577  0.2008
12135TIP3    H157820   0.150   6.499   2.089  1.6222 -0.1032 -0.8133
12135TIP3    H257821   0.121   6.499   1.940  1.4063  2.8381 -0.8317
12136TIP3   OH257822   0.333   5.778  16.768  0.5503 -0.3906  0.1454
12136TIP3    H157823   0.400   5.834  16.729  0.2492  0.3602  0.6940
12136TIP3    H257824   0.252   5.805  16.724  0.4182 -0.4603  0.3500
12137TIP3   OH257825   1.512   2.847   2.617  0.2116 -0.3438  0.0901
12137TIP3    H157826   1.598   2.817   2.646  1.5723  1.9716 -1.2764
12137TIP3    H257827   1.494   2.924   2.671  0.3674  0.8589 -1.4897
12138TIP3   OH257828   0.801   1.717  14.355  0.2159  0.5209  0.5950
12138TIP3    H157829   0.804   1.633  14.309  0.7286 -0.7311  2.7699
12138TIP3    H257830   0.868   1.709  14.424  0.4878  2.8462  0.6781
12139TIP3   OH257831   3.273   0.346  13.433 -0.3573 -0.1622 -0.2050
12139TIP3    H157832   3.184   0.318  13.455 -0.3124 -0.6562 -0.6574
12139TIP3    H257833   3.261   0.432  13.393 -0.3757  1.2556  2.5787
12140TIP3   OH257834   0.314   1.344   0.889 -0.6502  0.1365 -0.2807
12140TIP3    H157835   0.353   1.261   0.915  1.7265  1.5540  1.0362
12140TIP3    H257836   0.220   1.326   0.886 -0.4915 -1.9416  2.6186
12141TIP3   OH257837   3.225   1.631  15.816  0.6847 -0.0351 -0.4374
12141TIP3    H157838   3.289   1.688  15.773 -1.8440  2.4736 -1.1377
12141TIP3    H257839   3.140   1.666  15.790 -1.0432 -2.9335  0.8137
12142TIP3   OH257840   1.927   5.534   0.578  0.4793  0.3646 -0.5351
12142TIP3    H157841   1.900   5.576   0.660 -1.4402 -0.8737 -0.4530
12142TIP3    H257842   2.023   5.534   0.581  0.4956  2.5511  0.5211
12143TIP3   OH257843   2.137   0.510  11.687  0.3588  0.1751 -0.6218
12143TIP3    H157844   2.202   0.578  11.675 -0.9258  1.7605  0.8805
12143TIP3    H257845   2.150   0.479  11.777 -0.3214 -0.1854 -0.6370
12144TIP3   OH257846   3.452   6.486   5.178  0.0117  0.0629 -0.4205
12144TIP3    H157847   3.369   6.440   5.172 -0.5504  1.2239 -3.9247
12144TIP3    H257848   3.491   6.477   5.091  2.8334  0.8643  0.6507
12145TIP3   OH257849   5.577   3.612   2.115 -0.2510  0.2656 -0.5332
12145TIP3    H157850   5.629   3.566   2.049  1.7907  2.6055 -0.7227
12145TIP3    H257851   5.546   3.691   2.070 -2.0164  0.0913  0.2924
12146TIP3   OH257852   0.011   1.766   5.617 -0.6865  0.1485  0.2923
12146TIP3    H157853  -0.032   1.763   5.702  0.7060 -0.0040  1.0252
12146TIP3    H257854  -0.026   1.843   5.574 -1.9308 -0.1814  0.7384
12147TIP3   OH257855   2.801   2.792  12.941  0.2930 -0.1499 -0.7535
12147TIP3    H157856   2.845   2.856  12.997 -0.9872 -0.1280  0.2802
12147TIP3    H257857   2.747   2.741  13.002 -0.9512 -0.2829 -1.9445
12148TIP3   OH257858   1.838   2.499  14.324  0.2045 -0.2145  0.0756
12148TIP3    H157859   1.919   2.500  14.274  0.2185 -0.2314  0.0970
12148TIP3    H257860   1.775   2.456  14.267  0.0506  0.3492 -0.1808
12149TIP3   OH257861   2.108   1.078  14.913 -0.8294 -0.3197  0.2842
12149TIP3    H157862   2.166   1.151  14.892 -1.0184  0.1824  1.4403
12149TIP3    H257863   2.166   1.002  14.916 -0.6951 -0.3237 -1.3256
12150TIP3   OH257864   1.301   0.718   3.158 -0.2454  0.2471  0.4067
12150TIP3    H157865   1.241   0.650   3.129 -0.5408  0.1999  1.1264
12150TIP3    H257866   1.249   0.798   3.158 -0.0632  0.3707  0.1688
12151TIP3   OH257867   6.132   1.918  13.507 -0.0096 -0.0776 -0.0105
12151TIP3    H157868   6.050   1.917  13.456  0.8485 -0.1839 -1.4519
12151TIP3    H257869   6.159   2.010  13.505 -0.3931  0.0639  0.9880
12152TIP3   OH257870   2.336   5.759   5.879 -0.3106 -0.1803 -0.0204
12152TIP3    H157871   2.415   5.781   5.930 -0.0845 -2.2170  0.5944
12152TIP3    H257872   2.267   5.752   5.945 -0.7416  0.3589 -0.4098
12153TIP3   OH257873   4.246   6.078  11.446  0.2106  0.0771  0.3732
12153TIP3    H157874   4.191   6.128  11.506  0.6156 -0.6269  1.3770
12153TIP3    H257875   4.322   6.134  11.432  0.3823  0.0172  1.0066
12154TIP3   OH257876   3.247   5.041  11.294 -0.9969  0.3407  0.0025
12154TIP3    H157877   3.184   4.975  11.265 -0.6016 -0.1867  0.3313
12154TIP3    H257878   3.195   5.121  11.306 -1.4918  0.0657 -0.3093
12155TIP3   OH257879   0.638   4.496  15.848 -0.2420 -0.3479  0.1372
12155TIP3    H157880   0.654   4.468  15.938  0.9830 -0.7887 -0.1999
12155TIP3    H257881   0.555   4.542  15.852  0.4871  0.9374  1.7851
12156TIP3   OH257882   6.582   2.825   4.107 -0.1393 -0.1437  0.0039
12156TIP3    H157883   6.667   2.866   4.118 -0.0284 -0.3562 -0.0647
12156TIP3    H257884   6.565   2.830   4.013 -0.5359  0.5688  0.1074
12157TIP3   OH257885   2.251   3.911  14.869  0.1759  0.0899 -0.3572
12157TIP3    H157886   2.303   3.834  14.846 -2.2761 -1.9661  0.5048
12157TIP3    H257887   2.277   3.932  14.959  0.5133 -0.0194 -0.4288
12158TIP3   OH257888   0.957   5.108   0.222  0.1121 -0.2983 -0.1516
12158TIP3    H157889   1.043   5.148   0.207 -0.5584  1.4468  0.3828
12158TIP3    H257890   0.937   5.128   0.313 -1.1241 -0.1599 -0.4381
12159TIP3   OH257891   0.302   3.717  15.670 -0.1526  0.0384  0.5606
12159TIP3    H157892   0.393   3.689  15.657 -0.8665 -1.1621 -3.0926
12159TIP3    H257893   0.290   3.788  15.607 -1.6401  0.4379  1.2713
12160TIP3   OH257894   2.693   4.125  12.919  0.3139  0.2951  0.3255
12160TIP3    H157895   2.658   4.036  12.909  1.0529  0.0978 -0.7319
12160TIP3    H257896   2.655   4.173  12.845  1.3456  0.3717 -0.1712
12161TIP3   OH257897   1.373   0.800   1.296 -0.1612 -0.1869 -0.4216
12161TIP3    H157898   1.439   0.786   1.363 -0.9996 -0.8236  0.2918
12161TIP3    H257899   1.315   0.867   1.333 -0.4742 -0.3385 -0.6321
12162TIP3   OH257900   6.416   4.801   6.059 -0.1125  0.5447 -0.3993
12162TIP3    H157901   6.394   4.720   6.106  0.4300  0.3089 -0.5517
12162TIP3    H257902   6.455   4.771   5.977 -1.4918  0.9435 -1.2305
12163TIP3   OH257903   5.759   6.273  12.628  0.0067 -0.1690 -0.3156
12163TIP3    H157904   5.673   6.238  12.604  0.4721 -2.4695  1.0581
12163TIP3    H257905   5.765   6.260  12.723  1.7102  0.3297 -0.3168
12164TIP3   OH257906   3.489   3.364   1.501 -0.2902  0.3469  0.1661
12164TIP3    H157907   3.395   3.360   1.517 -0.3228  2.6256  1.0202
12164TIP3    H257908   3.522   3.278   1.527 -1.9128  0.0834  1.5335
12165TIP3   OH257909   6.759   4.414   5.603 -0.4253  0.0977 -0.4772
12165TIP3    H157910   6.787   4.378   5.687  0.5505  0.7480 -0.5120
12165TIP3    H257911   6.828   4.387   5.542  0.3644  2.0246 -0.4959
12166TIP3   OH257912   6.339   1.052   1.986 -0.0040  0.3668  0.0990
12166TIP3    H157913   6.314   1.000   2.062 -3.6239  1.8770  0.1414
12166TIP3    H257914   6.267   1.040   1.924  1.2451  1.7697 -1.7515
12167TIP3   OH257915   1.034   3.504   4.152 -0.4117  0.4850 -0.7668
12167TIP3    H157916   1.070   3.593   4.142  0.1270  0.3037 -0.4784
12167TIP3    H257917   1.084   3.466   4.224  0.5644 -0.6588 -1.9847
12168TIP3   OH257918   0.411   0.799   0.478 -0.1165  0.1118  0.0688
12168TIP3    H157919   0.491   0.837   0.515 -0.1212  0.2845 -0.0940
12168TIP3    H257920   0.389   0.727   0.536 -0.4358  0.7234  0.7201
12169TIP3   OH257921   1.521   3.675   1.553 -0.1259  0.0205 -0.3338
12169TIP3    H157922   1.447   3.614   1.564  0.2259 -0.3589 -0.0327
12169TIP3    H257923   1.592   3.620   1.520  0.3970  0.1209  0.5751
12170TIP3   OH257924   3.318   3.408  10.578 -0.0143  0.1735 -0.2478
12170TIP3    H157925   3.396   3.461  10.596  1.4624 -1.1144 -2.4236
12170TIP3    H257926   3.271   3.456  10.510 -2.0866  1.7232  2.0748
12171TIP3   OH257927   5.875   1.089   0.851  0.1750 -0.6685  0.0570
12171TIP3    H157928   5.890   1.160   0.789  2.2711 -0.9094  0.2309
12171TIP3    H257929   5.787   1.057   0.829 -0.8835  1.9875  0.0410
12172TIP3   OH257930   2.650   2.566  16.768 -0.2748  0.5423 -0.5365
12172TIP3    H157931   2.671   2.488  16.718  0.9040 -0.2278  1.0674
12172TIP3    H257932   2.630   2.633  16.702 -0.2763 -0.8127 -1.9559
12173TIP3   OH257933   3.365   5.870   2.497  0.0077 -0.0251  0.3182
12173TIP3    H157934   3.304   5.918   2.554 -1.3202  0.5294 -1.4966
12173TIP3    H257935   3.360   5.915   2.413  1.5558 -1.1252 -0.4124
12174TIP3   OH257936   2.287   2.286   0.802 -0.3075  0.3087  0.1625
12174TIP3    H157937   2.222   2.229   0.762  1.5514 -0.7122 -1.5875
12174TIP3    H257938   2.247   2.373   0.801 -1.3576 -0.1402 -1.5864
12175TIP3   OH257939   0.045   5.992   4.303 -0.3561  0.4356  0.6044
12175TIP3    H157940   0.044   6.088   4.303 -0.3079  0.4420  1.1790
12175TIP3    H257941   0.132   5.968   4.272 -0.1450  0.5941  1.0580
12176TIP3   OH257942   4.172   2.149  11.907 -0.0221  0.3373 -0.0856
12176TIP3    H157943   4.237   2.115  11.846  0.1907  0.1738  0.2247
12176TIP3    H257944   4.158   2.078  11.969  0.6184  0.8829  0.7247
12177TIP3   OH257945   2.256   6.184   5.450  0.3878  0.1720 -0.0254
12177TIP3    H157946   2.272   6.161   5.542  0.1500  1.1966  0.2863
12177TIP3    H257947   2.223   6.104   5.410  2.2626 -0.8343  0.3281
12178TIP3   OH257948   1.488   1.037  12.330  0.0897 -0.0201 -0.1496
12178TIP3    H157949   1.515   1.033  12.238  0.0673  1.0871 -0.2227
12178TIP3    H257950   1.430   1.113  12.334 -1.3937 -1.1282  0.4154
12179TIP3   OH257951   5.128   6.793   1.506  0.3807 -0.0612  0.0851
12179TIP3    H157952   5.103   6.881   1.476  1.1135  0.5870  1.3269
12179TIP3    H257953   5.100   6.735   1.435 -0.9443  1.0662 -0.3496
12180TIP3   OH257954   5.526   6.180  13.153 -0.0734 -0.5591  0.1615
12180TIP3    H157955   5.531   6.275  13.150  0.3986 -0.5288  1.3314
12180TIP3    H257956   5.440   6.159  13.116 -1.0481  0.4589  1.7239
12181TIP3   OH257957   0.262   6.298  11.396  0.3906 -0.1356  0.4385
12181TIP3    H157958   0.297   6.331  11.480  0.1677 -0.4531  0.6587
12181TIP3    H257959   0.206   6.224  11.421 -1.4946  1.1683  0.1952
12182TIP3   OH257960   3.831   5.312   1.002  0.4590  0.0876 -0.4902
12182TIP3    H157961   3.841   5.406   1.016  0.7180  0.0009 -0.0970
12182TIP3    H257962   3.807   5.277   1.088 -1.7741  0.0843 -1.0527
12183TIP3   OH257963   5.325   1.621  15.839 -0.2608  0.3130  0.2715
12183TIP3    H157964   5.350   1.713  15.831  1.7804 -0.2619 -0.6919
12183TIP3    H257965   5.404   1.578  15.872 -0.5459 -1.3839 -1.1181
12184TIP3   OH257966   5.358   0.637  12.722 -0.1307  0.3267  0.4615
12184TIP3    H157967   5.361   0.726  12.689  0.3941 -0.6359 -2.3131
12184TIP3    H257968   5.264   0.616  12.728 -0.4373 -0.6170 -4.2066
12185TIP3   OH257969   5.079   0.525  12.007  0.1241  0.1827  0.0394
12185TIP3    H157970   5.042   0.437  12.008  0.4033  0.0641  0.5667
12185TIP3    H257971   5.005   0.583  12.026  0.0251  0.0256  0.1351
12186TIP3   OH257972   5.302   3.491   2.785  0.2867 -0.1121 -0.1539
12186TIP3    H157973   5.382   3.452   2.748  0.0262  0.8039 -1.7790
12186TIP3    H257974   5.327   3.517   2.874  1.3711 -1.1238 -0.1422
12187TIP3   OH257975   4.679   6.461   5.383  0.0877 -0.2190 -0.6908
12187TIP3    H157976   4.628   6.471   5.463  0.3551  0.0156 -0.5469
12187TIP3    H257977   4.762   6.423   5.411  0.5365  0.7080 -0.7240
12188TIP3   OH257978   4.614   3.283   2.840 -0.4030 -0.3407 -0.2281
12188TIP3    H157979   4.640   3.194   2.863  1.3470 -0.2163 -1.5199
12188TIP3    H257980   4.597   3.280   2.745  0.5442  0.8587 -0.4650
12189TIP3   OH257981   1.173   1.823  16.049  0.1351 -0.0678  0.0362
12189TIP3    H157982   1.081   1.830  16.073  0.5151  0.6278  1.3894
12189TIP3    H257983   1.190   1.728  16.046 -0.6445 -0.1998 -0.3818
12190TIP3   OH257984   2.888   2.883  13.724  0.4442 -0.1617 -0.3394
12190TIP3    H157985   2.934   2.820  13.669  0.0327 -0.7247 -0.0585
12190TIP3    H257986   2.852   2.946  13.662  0.2210 -0.6322 -0.7020
12191TIP3   OH257987   4.906   4.597  14.271 -0.4472  0.3847 -0.2562
12191TIP3    H157988   4.914   4.520  14.214 -2.6557 -0.2642  0.2248
12191TIP3    H257989   4.887   4.669  14.211  0.5203  0.3692 -0.6052
12192TIP3   OH257990   3.412   3.060  13.262 -0.0522  0.2951  0.1279
12192TIP3    H157991   3.465   2.984  13.236 -0.3602  0.0245  0.2802
12192TIP3    H257992   3.456   3.135  13.221  0.1091  0.0046 -0.2379
12193TIP3   OH257993   3.834   2.138  12.083  0.6646 -0.2206  0.1974
12193TIP3    H157994   3.812   2.221  12.041 -0.1495  0.1565  1.3065
12193TIP3    H257995   3.924   2.150  12.114  2.1182 -1.2892 -3.2072
12194TIP3   OH257996   6.690   5.733   6.441 -0.8145  0.6915 -0.0043
12194TIP3    H157997   6.786   5.732   6.448 -0.8311 -1.0854  0.3980
12194TIP3    H257998   6.674   5.764   6.352  0.1377  0.9785 -0.0916
12195TIP3   OH257999   3.156   0.373   5.406  0.0267  0.3807  0.4164
12195TIP3    H158000   3.075   0.325   5.387 -2.1304  2.8187  2.7521
12195TIP3    H258001   3.159   0.443   5.340  1.2834 -0.7023 -0.7596
12196TIP3   OH258002   6.611   3.282  11.921 -0.2549  0.1992 -0.6032
12196TIP3    H158003   6.615   3.187  11.933 -0.6102  0.3571  0.9148
12196TIP3    H258004   6.678   3.301  11.855  1.1882 -0.8893  0.4796
12197TIP3   OH258005   0.578   5.201   4.227 -0.0855 -0.0638 -0.2880
12197TIP3    H158006   0.618   5.284   4.200 -1.2289  1.2061  1.7314
12197TIP3    H258007   0.653   5.143   4.242  0.9222  1.4324  0.8005
12198TIP3   OH258008   4.628   5.862  11.661  0.3006 -0.1736 -0.2659
12198TIP3    H158009   4.677   5.780  11.666 -0.6320 -0.7141  0.5191
12198TIP3    H258010   4.601   5.868  11.570  1.1385 -0.2672 -0.5303
12199TIP3   OH258011   0.986   3.976   2.305 -0.1875 -0.3144  0.6233
12199TIP3    H158012   1.055   3.944   2.248  1.3873  3.2517  0.2851
12199TIP3    H258013   0.927   4.024   2.247 -1.8482 -1.5298  1.2286
12200TIP3   OH258014   5.877   2.325  15.113  0.0544  0.2617 -0.0335
12200TIP3    H158015   5.808   2.298  15.174  0.5041  1.7251  1.1914
12200TIP3    H258016   5.832   2.376  15.046 -0.2316 -0.0053 -0.0447
12201TIP3   OH258017   2.786   6.462   0.954  0.2907 -0.0660 -0.1086
12201TIP3    H158018   2.881   6.470   0.966  0.2776 -1.2723  0.9927
12201TIP3    H258019   2.775   6.450   0.859  1.3464 -1.1780 -0.1106
12202TIP3   OH258020   6.632   4.297   4.846  0.3294 -0.3990  0.1409
12202TIP3    H158021   6.700   4.251   4.895  0.7526 -0.0436 -0.1015
12202TIP3    H258022   6.550   4.267   4.885  0.5907 -1.3734 -0.0294
12203TIP3   OH258023   0.049   2.983  11.632  0.0867  0.6317 -0.2015
12203TIP3    H158024   0.025   3.076  11.635  2.2048  1.2392  1.7397
12203TIP3    H258025   0.142   2.983  11.610  0.0466 -1.0684 -0.5145
12204TIP3   OH258026   0.636   0.358  13.598 -0.6006  0.2090  0.1819
12204TIP3    H158027   0.556   0.306  13.605 -0.2472 -0.1467  2.0450
12204TIP3    H258028   0.696   0.318  13.660  1.1081  0.3777 -1.2795
12205TIP3   OH258029   2.043   5.910   3.159  0.2382  0.9920  0.0916
12205TIP3    H158030   2.125   5.937   3.201  0.6247 -0.8289  0.6070
12205TIP3    H258031   2.062   5.822   3.126 -1.3547  0.7734 -0.2965
12206TIP3   OH258032   5.287   0.239  16.980  0.0080  0.0431  0.2126
12206TIP3    H158033   5.291   0.168  16.916  0.6062  0.8592 -0.6863
12206TIP3    H258034   5.377   0.251  17.009 -0.0230  0.7075  0.0488
12207TIP3   OH258035   1.481   1.023   4.997 -0.3158  0.0675  0.3739
12207TIP3    H158036   1.504   0.946   4.945  0.6405 -1.4388  2.9031
12207TIP3    H258037   1.558   1.041   5.050 -1.7521  0.5634  2.4184
12208TIP3   OH258038   2.927   4.136  13.261 -0.2470 -0.0835  0.0536
12208TIP3    H158039   3.022   4.136  13.259 -0.2136  0.2326  0.9732
12208TIP3    H258040   2.903   4.226  13.238 -0.3113 -0.0881  0.1029
12209TIP3   OH258041   6.181   4.749  11.297  0.3922 -1.2249 -0.5592
12209TIP3    H158042   6.163   4.823  11.356 -0.0102 -2.5304  1.0214
12209TIP3    H258043   6.237   4.786  11.229 -0.4218  0.7170 -0.2561
12210TIP3   OH258044   0.064   3.874   2.211  0.2445  0.7612 -0.3735
12210TIP3    H158045   0.045   3.959   2.250 -0.4606  0.2883  0.3363
12210TIP3    H258046   0.079   3.815   2.285 -0.7510 -0.0654 -0.7925
12211TIP3   OH258047   5.113   2.041  13.160 -0.4299  0.1075  0.1003
12211TIP3    H158048   5.090   1.965  13.214  1.4907  2.1098  4.2265
12211TIP3    H258049   5.028   2.076  13.131 -1.7734 -0.5459  2.8744
12212TIP3   OH258050   5.052   2.321   0.406 -0.3373 -0.2875 -0.2355
12212TIP3    H158051   4.994   2.286   0.474 -2.7812  0.6035 -1.7743
12212TIP3    H258052   5.022   2.410   0.391  1.7650  0.3890 -0.7894
12213TIP3   OH258053   4.017   1.979  14.863 -0.5395 -0.1147  0.6031
12213TIP3    H158054   3.930   1.947  14.836  0.4066 -2.7362  0.4167
12213TIP3    H258055   4.072   1.902  14.863  1.7443  1.4184  1.1479
12214TIP3   OH258056   2.201   5.079   5.458 -0.5112 -0.1572  0.4870
12214TIP3    H158057   2.249   5.154   5.424  0.3556  0.0533  2.0510
12214TIP3    H258058   2.197   5.018   5.384 -2.3138  1.8574 -1.1922
12215TIP3   OH258059   1.431   2.357  13.601  0.9349 -0.4875  0.4597
12215TIP3    H158060   1.435   2.385  13.692  0.6590 -1.7583  0.8790
12215TIP3    H258061   1.344   2.385  13.572  2.4472  3.7035 -0.7653
12216TIP3   OH258062   3.268   6.148  13.296 -0.5843 -0.4504 -0.0133
12216TIP3    H158063   3.249   6.070  13.244 -2.4015 -1.0011  1.3673
12216TIP3    H258064   3.251   6.221  13.237 -0.2943 -1.0629 -0.8806
12217TIP3   OH258065   4.649   6.389   4.416  0.0750  0.1269  0.1322
12217TIP3    H158066   4.723   6.347   4.373 -0.4559  0.4676 -1.1671
12217TIP3    H258067   4.573   6.336   4.389 -0.0412 -1.2130  2.7324
12218TIP3   OH258068   3.312   0.392   2.031  0.3632 -0.5625 -0.1864
12218TIP3    H158069   3.248   0.462   2.045  0.7140 -0.5632  1.6593
12218TIP3    H258070   3.371   0.426   1.965 -0.9411 -0.1615 -1.1973
12219TIP3   OH258071   0.704   3.240   0.048 -0.3102  0.3824 -0.7017
12219TIP3    H158072   0.660   3.316   0.085 -1.2341  0.1499 -1.2929
12219TIP3    H258073   0.659   3.165   0.087  0.6858  0.1209 -0.0109
12220TIP3   OH258074   5.010   2.019   0.981  0.0099  0.3843 -0.4897
12220TIP3    H158075   5.065   2.063   0.916  0.7948 -0.4023 -0.3701
12220TIP3    H258076   4.932   2.075   0.989 -0.1272  0.4524 -2.1365
12221TIP3   OH258077   2.482   5.846  13.120  0.9105  0.3999  0.0569
12221TIP3    H158078   2.475   5.811  13.209  0.0544 -1.4540 -0.6982
12221TIP3    H258079   2.573   5.832  13.095  0.9199  0.0336  0.2965
12222TIP3   OH258080   3.923   6.516  12.724  0.0731 -0.2054 -0.6354
12222TIP3    H158081   3.983   6.448  12.694  0.4513 -0.1576  0.0064
12222TIP3    H258082   3.979   6.584  12.761 -0.3788 -0.1964  0.0539
12223TIP3   OH258083   4.817   5.909   4.578  0.1804  0.1808  0.5994
12223TIP3    H158084   4.853   5.995   4.556 -1.3718  1.0928  1.4270
12223TIP3    H258085   4.889   5.862   4.620  1.1804  0.9042 -0.2625
12224TIP3   OH258086   5.941   2.223  14.431  0.2546 -0.1119  0.2056
12224TIP3    H158087   5.913   2.235  14.521  0.1146 -2.0629  0.4753
12224TIP3    H258088   5.978   2.307  14.405  0.3969  0.4459  2.1052
12225TIP3   OH258089   4.163   3.696   2.676  0.2852  0.2011 -0.5236
12225TIP3    H158090   4.070   3.674   2.666  0.7183 -2.1426  0.1388
12225TIP3    H258091   4.196   3.633   2.739  1.6907  2.9534  1.6851
12226TIP3   OH258092   3.082   1.258  15.986  0.2510  0.2477  0.7209
12226TIP3    H158093   3.129   1.271  16.069 -0.5076 -0.0075  1.1962
12226TIP3    H258094   3.074   1.163  15.978  0.4113  0.2647  0.2907
12227TIP3   OH258095   0.230   2.849  14.666 -0.0770  0.1974  0.3983
12227TIP3    H158096   0.261   2.769  14.709  1.5473  0.1504 -0.7936
12227TIP3    H258097   0.226   2.827  14.573  2.1022  1.9553 -0.2027
12228TIP3   OH258098   4.612   2.563   5.504 -0.2407  0.3933 -0.0499
12228TIP3    H158099   4.598   2.485   5.449 -0.3447 -0.1124  0.6832
12228TIP3    H258100   4.542   2.559   5.569  0.5623  0.3604  0.8248
12229TIP3   OH258101   1.278   2.426  16.063 -0.0380  0.2170 -0.4551
12229TIP3    H158102   1.288   2.426  15.968 -1.0632  3.2781 -0.6418
12229TIP3    H258103   1.220   2.351  16.081 -2.2098  1.2497 -2.6088
12230TIP3   OH258104   1.197   4.379   4.558 -0.0797  0.3752  0.0375
12230TIP3    H158105   1.220   4.409   4.646  0.4109  1.0764 -0.3197
12230TIP3    H258106   1.248   4.435   4.500 -0.2583 -0.2064 -0.6917
12231TIP3   OH258107   4.480   6.234  14.455 -0.3440 -0.0240 -0.3021
12231TIP3    H158108   4.478   6.315  14.507 -0.0053  0.7601 -1.4629
12231TIP3    H258109   4.411   6.180  14.493  0.4315  0.1619  1.4965
12232TIP3   OH258110   4.048   1.209  13.892 -0.0956 -0.6057 -0.3670
12232TIP3    H158111   3.954   1.208  13.875  0.0454 -1.4249 -1.2104
12232TIP3    H258112   4.083   1.273  13.830 -0.0034 -0.9170 -0.6395
12233TIP3   OH258113   4.513   1.262   1.570 -0.3817  0.2108  0.1905
12233TIP3    H158114   4.441   1.302   1.521 -0.1496 -0.2679 -0.5763
12233TIP3    H258115   4.592   1.306   1.538 -0.3426  0.8070  1.1044
12234TIP3   OH258116   0.842   6.610   3.803 -0.7157 -0.4161 -0.0760
12234TIP3    H158117   0.789   6.531   3.814 -1.0834 -0.0526  0.8404
12234TIP3    H258118   0.822   6.663   3.880  0.6392 -0.0648  0.0491
12235TIP3   OH258119   6.307   5.830  12.684  0.1737 -0.3831  0.4241
12235TIP3    H158120   6.314   5.926  12.683  0.0315 -0.3636 -1.1309
12235TIP3    H258121   6.294   5.806  12.593  0.9810 -1.9646  0.6970
12236TIP3   OH258122   4.252   4.948  12.009  0.1481 -0.4206  0.2114
12236TIP3    H158123   4.320   5.001  11.969 -1.6731  1.7987 -0.1391
12236TIP3    H258124   4.214   4.899  11.936 -0.3453  0.3438 -0.0485
12237TIP3   OH258125   0.144   1.451   3.563 -0.1036  0.0612 -0.6030
12237TIP3    H158126   0.085   1.479   3.494 -0.4837  0.9134  0.0468
12237TIP3    H258127   0.227   1.496   3.544 -0.6396  1.5059  0.2996
12238TIP3   OH258128   3.654   0.346  11.326 -0.0524  0.7455 -0.2106
12238TIP3    H158129   3.736   0.355  11.278 -0.0957  1.2260 -0.1987
12238TIP3    H258130   3.661   0.261  11.369  0.2214  0.5544 -0.6197
12239TIP3   OH258131   3.157   6.122  10.330  0.4247 -0.0978 -0.0175
12239TIP3    H158132   3.090   6.117  10.262 -0.9711 -2.3835  1.3938
12239TIP3    H258133   3.196   6.034  10.333 -1.0070 -0.7667  3.4168
12240TIP3   OH258134   0.972   2.765   2.454  0.4283  0.5784 -0.3170
12240TIP3    H158135   0.944   2.850   2.422  1.2302  1.6072  1.5302
12240TIP3    H258136   1.021   2.726   2.382  0.1392  1.7271 -1.1470
12241TIP3   OH258137   3.911   1.317   0.717 -0.5096  0.0588  0.2202
12241TIP3    H158138   3.966   1.247   0.682  0.6935  1.2198 -0.3014
12241TIP3    H258139   3.859   1.275   0.785  0.6715 -1.2088  0.3776
12242TIP3   OH258140   0.230   5.432  10.563  0.2018 -0.3875  0.1056
12242TIP3    H158141   0.306   5.399  10.610 -0.6314 -1.3899  0.7995
12242TIP3    H258142   0.259   5.443  10.473  0.8952 -1.6566  0.1645
12243TIP3   OH258143   5.012   4.588  16.711 -0.0543  0.3594 -0.6515
12243TIP3    H158144   4.931   4.540  16.726  0.3150 -0.1144 -0.1001
12243TIP3    H258145   5.039   4.617  16.798  0.8691 -0.3306 -0.6934
12244TIP3   OH258146   2.706   4.478  15.533  0.7555  0.4149 -0.2743
12244TIP3    H158147   2.686   4.385  15.544  0.1286  0.8138  2.6492
12244TIP3    H258148   2.799   4.480  15.509  0.2862 -0.9698 -2.6111
12245TIP3   OH258149   1.668   3.559  15.494 -0.5695 -0.0624  0.1669
12245TIP3    H158150   1.627   3.641  15.522  0.9102 -0.1002  2.6839
12245TIP3    H258151   1.632   3.493  15.553  0.8943 -0.5764  0.5264
12246TIP3   OH258152   0.416   2.102  12.410 -0.0269 -0.2699  0.5468
12246TIP3    H158153   0.469   2.023  12.420  0.0919 -0.3491 -0.6023
12246TIP3    H258154   0.326   2.069  12.401  0.2741 -0.5237 -2.6278
12247TIP3   OH258155   6.449   5.869  12.094  0.3831 -0.7847  0.0880
12247TIP3    H158156   6.393   5.842  12.021  0.1843 -1.3563  0.4461
12247TIP3    H258157   6.496   5.946  12.061 -0.5705 -0.3286 -0.2412
12248TIP3   OH258158   4.032   6.365   4.772 -0.3612 -0.5148  0.0926
12248TIP3    H158159   4.071   6.284   4.741  1.1358  0.5644 -0.9939
12248TIP3    H258160   3.944   6.365   4.734 -0.0732 -1.2399 -0.6097
12249TIP3   OH258161   3.009   5.692   0.232 -0.7677  0.4815  0.2065
12249TIP3    H158162   3.015   5.605   0.271 -1.2121  0.4690  0.2504
12249TIP3    H258163   3.100   5.721   0.222 -0.4660 -1.0133 -2.1367
12250TIP3   OH258164   3.129   5.025   3.229  0.2539  0.3279 -0.3499
12250TIP3    H158165   3.167   4.972   3.159  0.8701  2.0263 -1.3417
12250TIP3    H258166   3.047   5.057   3.192 -0.2517 -0.1195  0.3502
12251TIP3   OH258167   1.331   1.681   4.679  0.6287 -0.0093  0.4552
12251TIP3    H158168   1.343   1.754   4.738  1.5332 -0.8779  1.3772
12251TIP3    H258169   1.347   1.603   4.732 -0.8407 -0.9222 -0.3574
12252TIP3   OH258170   3.633   3.981   3.759 -0.1446 -0.4855 -0.3267
12252TIP3    H158171   3.590   4.056   3.799  0.6659 -0.7329  1.0581
12252TIP3    H258172   3.623   3.995   3.665 -1.2747  0.5892 -0.0730
12253TIP3   OH258173   3.853   3.707  14.241  0.7112 -0.2695 -0.1037
12253TIP3    H158174   3.813   3.621  14.254  0.4104  0.0241  1.0670
12253TIP3    H258175   3.783   3.760  14.203  0.6753 -0.3533 -0.1557
12254TIP3   OH258176   0.083   5.285  14.851 -0.7582  0.3530 -0.1063
12254TIP3    H158177   0.033   5.203  14.845  0.1004 -0.1211 -1.1943
12254TIP3    H258178   0.166   5.265  14.809  0.0641  1.3588  0.9649
12255TIP3   OH258179   5.814   5.367  10.986 -0.4726 -0.1859  1.0237
12255TIP3    H158180   5.897   5.348  11.031 -1.0893 -0.2467  2.1633
12255TIP3    H258181   5.835   5.355  10.893  0.9859  0.5032  1.2271
12256TIP3   OH258182   5.979   3.896   2.654 -0.0425  0.5671 -0.6523
12256TIP3    H158183   5.941   3.931   2.734 -0.5605 -2.2645  0.4742
12256TIP3    H258184   5.925   3.933   2.584  0.1753  2.7856  0.2717
12257TIP3   OH258185   4.763   0.872  11.979  0.0428 -0.1817  0.0465
12257TIP3    H158186   4.734   0.963  11.987  0.0612 -0.1480 -0.2718
12257TIP3    H258187   4.759   0.853  11.885 -0.3805 -0.6437  0.1499
12258TIP3   OH258188   1.451   4.200  16.370  0.1635  0.2581 -0.1381
12258TIP3    H158189   1.527   4.247  16.334  0.5030 -0.0965  0.1026
12258TIP3    H258190   1.375   4.249  16.339  0.3693 -0.7897 -2.5040
12259TIP3   OH258191   6.487   5.366  15.823  0.2810 -0.0924  0.2889
12259TIP3    H158192   6.397   5.391  15.803  0.5097  0.2109 -0.3856
12259TIP3    H258193   6.482   5.272  15.838  0.1855 -0.5222 -1.9781
12260TIP3   OH258194   5.910   3.358  13.300  0.2900  0.4918  0.3606
12260TIP3    H158195   5.996   3.338  13.335 -0.3637  0.2725  1.9198
12260TIP3    H258196   5.866   3.408  13.369 -0.8326  0.6076 -0.3966
12261TIP3   OH258197   5.560   3.937   2.724  0.0819 -0.0487 -0.0356
12261TIP3    H158198   5.535   4.019   2.681 -1.6108 -1.2054 -1.3835
12261TIP3    H258199   5.504   3.934   2.803 -0.6569 -0.3786 -0.5549
12262TIP3   OH258200   5.759   1.872   5.116  0.4227  0.6174  0.4553
12262TIP3    H158201   5.845   1.849   5.150 -0.6049 -0.3500  2.6586
12262TIP3    H258202   5.749   1.819   5.036  0.6537 -1.8285  1.9472
12263TIP3   OH258203   6.697   5.591  13.321 -0.3060  0.4367  0.3277
12263TIP3    H158204   6.701   5.572  13.414  0.5121  3.3235  0.9783
12263TIP3    H258205   6.789   5.598  13.295 -0.5155 -0.7434 -0.8234
12264TIP3   OH258206   3.886   5.477  16.227 -0.4303 -0.2681  0.7130
12264TIP3    H158207   3.832   5.523  16.290 -2.3491 -0.6555 -0.5469
12264TIP3    H258208   3.942   5.544  16.189  0.7181 -0.0287  2.7314
12265TIP3   OH258209   3.265   4.430   3.524 -0.0396 -0.3302 -0.0881
12265TIP3    H158210   3.245   4.409   3.433 -0.9019 -1.4976  0.3463
12265TIP3    H258211   3.360   4.425   3.530 -0.0337 -1.0082 -0.7477
12266TIP3   OH258212   6.686   0.611  10.926  0.3980  0.2551 -0.3112
12266TIP3    H158213   6.638   0.649  10.853 -0.9959  0.2113  0.5288
12266TIP3    H258214   6.654   0.658  11.003  1.3014 -0.1818  0.3509
12267TIP3   OH258215   5.369   6.472   5.435  0.3806  0.2445 -0.1065
12267TIP3    H158216   5.449   6.455   5.485 -0.1962 -0.2859  0.6665
12267TIP3    H258217   5.341   6.559   5.464  0.4239  0.2276 -0.0125
12268TIP3   OH258218   6.039   3.585   1.596  0.0313  0.9526 -0.4275
12268TIP3    H158219   5.947   3.571   1.572  0.0985 -2.1612  0.5901
12268TIP3    H258220   6.038   3.590   1.692  0.9979 -0.8710 -0.2648
12269TIP3   OH258221   1.124   0.346  16.298 -0.2065 -0.4026 -0.2699
12269TIP3    H158222   1.192   0.412  16.311 -0.9715  0.4569 -0.4772
12269TIP3    H258223   1.124   0.296  16.380 -0.8814  1.0868  0.6806
12270TIP3   OH258224   3.351   4.004  11.761 -0.0449  0.6490  0.2726
12270TIP3    H158225   3.371   4.097  11.749 -0.0795  0.5635 -0.4994
12270TIP3    H258226   3.273   4.004  11.816 -2.4010  1.2632 -2.7665
12271TIP3   OH258227   5.131   2.507   5.695  0.1991  0.3344 -0.6380
12271TIP3    H158228   5.119   2.598   5.722  0.5805  0.6422 -1.4875
12271TIP3    H258229   5.050   2.485   5.648 -0.5183 -0.2405  0.7838
12272TIP3   OH258230   2.011   2.704  16.052  0.2613  0.3005  0.4580
12272TIP3    H158231   1.957   2.635  16.091 -1.3654  2.1122  1.5862
12272TIP3    H258232   1.974   2.716  15.965  1.7822 -1.4844 -0.5061
12273TIP3   OH258233   5.766   0.633  16.212  0.3470  0.4468  0.0649
12273TIP3    H158234   5.798   0.710  16.166 -0.0132  1.6291  1.6995
12273TIP3    H258235   5.813   0.633  16.295  0.1340 -0.9476  0.2186
12274TIP3   OH258236   2.491   1.865  14.610 -0.3295 -0.1634  0.0870
12274TIP3    H158237   2.502   1.777  14.573  0.7418  0.4844 -1.2323
12274TIP3    H258238   2.399   1.869  14.635 -0.0764 -2.1416  1.5033
12275TIP3   OH258239   5.924   0.802   0.831 -0.3316 -0.1873 -0.0598
12275TIP3    H158240   5.963   0.889   0.839  1.0645 -0.7549 -0.4132
12275TIP3    H258241   5.831   0.819   0.818 -0.5115  1.1684  2.3978
12276TIP3   OH258242   5.929   5.760   4.859 -0.2124 -0.4255  0.4914
12276TIP3    H158243   5.844   5.717   4.864  0.1062 -1.1953 -0.4443
12276TIP3    H258244   5.930   5.803   4.774  0.1782 -0.0976  0.6573
12277TIP3   OH258245   6.798   4.308   6.409  0.2014 -0.0642 -0.2596
12277TIP3    H158246   6.784   4.281   6.500 -1.5058 -0.0010 -0.4672
12277TIP3    H258247   6.740   4.384   6.398  1.6118  0.9516 -0.9531
12278TIP3   OH258248   4.346   6.659  17.079  0.3363  0.5442 -0.7042
12278TIP3    H158249   4.262   6.705  17.083 -0.3824 -0.7209 -0.6490
12278TIP3    H258250   4.376   6.653  17.170 -1.1842 -1.8805 -0.2661
12279TIP3   OH258251   5.339   0.433  15.914  0.9377 -0.3939 -0.1817
12279TIP3    H158252   5.355   0.473  15.999  2.4562 -3.0831  0.9428
12279TIP3    H258253   5.416   0.457  15.861  1.0414 -0.4596 -0.0615
12280TIP3   OH258254   0.568   3.181  15.691  0.0048  0.1764 -0.2283
12280TIP3    H158255   0.476   3.207  15.692  0.1217  0.8776 -2.3009
12280TIP3    H258256   0.584   3.144  15.778 -2.1167  0.3965  0.3045
12281TIP3   OH258257   4.241   5.817   2.399 -0.2279  0.0094 -0.3525
12281TIP3    H158258   4.181   5.795   2.470  0.9305  2.5835  1.6293
12281TIP3    H258259   4.289   5.737   2.382 -2.4802 -1.4448 -0.2855
12282TIP3   OH258260   1.685   5.554  12.560  0.2012 -0.0768 -0.3529
12282TIP3    H158261   1.728   5.564  12.475  0.3941  0.6928 -0.1755
12282TIP3    H258262   1.675   5.460  12.571  1.0285 -0.2271 -0.8071
12283TIP3   OH258263   0.728   3.679   1.152 -0.4043  0.3434  0.0159
12283TIP3    H158264   0.652   3.735   1.171 -1.3378 -0.9935  0.3720
12283TIP3    H258265   0.780   3.730   1.090 -0.9240  1.8372  0.7351
12284TIP3   OH258266   1.631   2.001   6.084  0.4589  0.5729  0.1892
12284TIP3    H158267   1.602   2.012   6.174 -1.5364 -1.5520 -0.0874
12284TIP3    H258268   1.694   1.929   6.087  2.0977  1.9375  0.1147
12285TIP3   OH258269   1.477   3.488  11.097  0.5397 -0.1257  0.1577
12285TIP3    H158270   1.532   3.410  11.100 -1.0752 -1.2896  1.3422
12285TIP3    H258271   1.501   3.537  11.176  0.3304 -0.3043  0.3321
12286TIP3   OH258272   5.485   1.440  15.997  0.7030  0.3066  0.1087
12286TIP3    H158273   5.532   1.365  15.960  0.3488  1.1158 -2.1946
12286TIP3    H258274   5.396   1.407  16.012  0.9003 -0.0904  0.4328
12287TIP3   OH258275   0.475   3.176  15.107 -0.2091 -0.2701  0.6030
12287TIP3    H158276   0.450   3.119  15.034  0.0184  0.3209  0.0569
12287TIP3    H258277   0.559   3.214  15.081 -0.2723  0.1751  1.0309
12288TIP3   OH258278   1.569   4.162   4.140 -0.2551  0.1779 -0.1553
12288TIP3    H158279   1.573   4.228   4.070  0.8627 -0.7836 -1.0417
12288TIP3    H258280   1.602   4.208   4.217 -3.5065  1.9129  0.3557
12289TIP3   OH258281   0.625   6.048  12.524 -0.4819 -0.7221 -0.4231
12289TIP3    H158282   0.547   5.993  12.512 -0.1233 -1.3146 -0.0547
12289TIP3    H258283   0.632   6.059  12.619 -1.1438  0.8382 -0.5185
12290TIP3   OH258284   5.062   4.526  12.853 -0.1105 -0.1551  0.3215
12290TIP3    H158285   5.018   4.569  12.926  0.6213  1.0783  0.0511
12290TIP3    H258286   5.078   4.437  12.885 -1.1706 -0.0956  1.0793
12291TIP3   OH258287   1.374   1.513   4.889 -0.3374  0.3953  0.0472
12291TIP3    H158288   1.303   1.553   4.940  0.9777  2.2516  0.5236
12291TIP3    H258289   1.414   1.451   4.950 -0.8462  0.1456  0.1394
12292TIP3   OH258290   2.418   2.625  12.852  0.0586  0.3358 -0.2725
12292TIP3    H158291   2.489   2.564  12.834  0.9380  0.2347  2.9880
12292TIP3    H258292   2.408   2.675  12.771  2.9749 -0.4824 -1.2491
12293TIP3   OH258293   5.602   3.158  15.698  0.2268  0.1085 -0.8486
12293TIP3    H158294   5.649   3.115  15.626  0.4341  0.2883 -0.8205
12293TIP3    H258295   5.606   3.094  15.769  2.4158  0.9831 -0.0859
12294TIP3   OH258296   2.491   3.958  15.606  0.0501  0.0258  0.4122
12294TIP3    H158297   2.507   3.867  15.580 -2.2887 -0.9063  1.8697
12294TIP3    H258298   2.408   3.955  15.653 -2.2513  3.5559 -2.7981
12295TIP3   OH258299   4.042   5.286  15.079  1.0542 -0.5039  0.2007
12295TIP3    H158300   4.012   5.324  15.162  1.4592  1.0094 -0.3040
12295TIP3    H258301   4.019   5.352  15.013  1.7129 -1.1900 -0.7419
12296TIP3   OH258302   0.557   5.254  15.109 -0.3913  0.6401  0.8430
12296TIP3    H158303   0.478   5.267  15.160 -0.2090  0.2032  1.2445
12296TIP3    H258304   0.601   5.180  15.150  1.1786  2.0332  1.8251
12297TIP3   OH258305   4.150   5.241   3.524 -0.5886 -0.2630  0.2176
12297TIP3    H158306   4.102   5.312   3.482  0.6668  0.4390 -0.1024
12297TIP3    H258307   4.197   5.198   3.452 -0.9073 -1.0744  0.4840
12298TIP3   OH258308   6.007   4.134   4.909  0.4394  0.1417  0.2483
12298TIP3    H158309   5.926   4.124   4.959  0.9834  0.1204  1.1467
12298TIP3    H258310   6.020   4.049   4.867  0.9706 -0.4950  1.6235
12299TIP3   OH258311   0.926   2.513   3.228 -0.1737  0.1951 -0.2301
12299TIP3    H158312   0.973   2.566   3.163  0.3636 -2.3797 -2.0689
12299TIP3    H258313   0.983   2.513   3.305  1.5834 -0.6341 -1.4789
12300TIP3   OH258314   3.844   3.965  13.124 -0.1215 -0.3221  0.6768
12300TIP3    H158315   3.812   3.925  13.205 -0.1571  0.5853  1.1231
12300TIP3    H258316   3.930   4.001  13.146 -0.3665  0.4146  0.4809
12301TIP3   OH258317   5.064   2.144  12.331 -0.4565  0.0908  0.1302
12301TIP3    H158318   5.075   2.220  12.387 -0.6091  0.2799 -0.0963
12301TIP3    H258319   4.970   2.134  12.321 -0.4272  1.4336 -1.9390
12302TIP3   OH258320   2.822   2.246  12.584  0.4371 -0.0591  0.0984
12302TIP3    H158321   2.826   2.232  12.678  1.7187 -1.5604 -0.1367
12302TIP3    H258322   2.909   2.275  12.559 -0.4220  2.2954 -0.4019
12303TIP3   OH258323   0.861   3.937  12.246 -0.7179  0.1346 -0.1637
12303TIP3    H158324   0.779   3.888  12.254  0.6111 -2.1384  0.2489
12303TIP3    H258325   0.925   3.872  12.217  0.9793  1.8275 -0.3759
12304TIP3   OH258326   0.634   6.681   1.726 -0.0640  0.9634 -0.1679
12304TIP3    H158327   0.694   6.752   1.750 -1.5321  1.8224  1.1868
12304TIP3    H258328   0.594   6.655   1.809 -0.1067 -0.9713 -0.7570
12305TIP3   OH258329   3.859   1.794   5.504 -0.4065 -0.3889  0.0678
12305TIP3    H158330   3.815   1.710   5.490 -2.1032  0.4674  0.0440
12305TIP3    H258331   3.885   1.822   5.416  0.0243 -0.8103  0.0590
12306TIP3   OH258332   3.451   0.138   4.983  0.2449  0.4077 -0.5680
12306TIP3    H158333   3.546   0.146   4.978  0.2710  2.2572  1.6134
12306TIP3    H258334   3.428   0.168   5.071 -2.2082 -1.9283 -0.2562
12307TIP3   OH258335   6.304   3.413   6.339  0.0470 -0.0475 -0.1615
12307TIP3    H158336   6.368   3.348   6.311 -1.6477 -1.9168  0.0707
12307TIP3    H258337   6.219   3.372   6.323 -1.0773  1.0790  2.3564
12308TIP3   OH258338   5.986   3.048  15.678 -0.3522  0.0835 -0.1378
12308TIP3    H158339   5.895   3.065  15.656 -0.6016  1.1892  1.5204
12308TIP3    H258340   6.030   3.132  15.665  0.1619 -0.1237  0.2209
12309TIP3   OH258341   6.031   1.361   2.104  0.2203  0.2690  0.4803
12309TIP3    H158342   5.986   1.432   2.150  0.3757  0.0060  1.0355
12309TIP3    H258343   6.006   1.282   2.151 -1.2269 -0.2618 -1.0730
12310TIP3   OH258344   4.800   4.211  13.759 -0.0699 -0.6133 -0.1055
12310TIP3    H158345   4.825   4.296  13.721 -0.2734 -0.3824  0.2699
12310TIP3    H258346   4.808   4.149  13.686 -0.0206 -0.2553 -0.4108
12311TIP3   OH258347   6.795   2.396   2.148  0.3416 -0.0991  0.0940
12311TIP3    H158348   6.811   2.328   2.082  0.7973  0.1012 -0.0070
12311TIP3    H258349   6.722   2.362   2.200 -0.2507 -0.1127 -0.7195
12312TIP3   OH258350   4.392   6.414   0.406  0.4295  0.1336  0.3689
12312TIP3    H158351   4.449   6.451   0.474  1.7064 -2.0713  0.6010
12312TIP3    H258352   4.399   6.475   0.333  1.3725  1.0383  1.1871
12313TIP3   OH258353   5.223   6.632   0.001  0.3035  0.3889 -0.2081
12313TIP3    H158354   5.301   6.679   0.032  0.1636  0.4733  0.0189
12313TIP3    H258355   5.194   6.581   0.076  1.4245 -1.4037 -0.9208
12314TIP3   OH258356   1.701   5.525  16.614 -0.5492 -0.2172 -0.2971
12314TIP3    H158357   1.725   5.598  16.558 -0.8656 -0.6024 -0.9485
12314TIP3    H258358   1.615   5.497  16.582 -1.2071  0.1926  1.0241
12315TIP3   OH258359   4.783   1.142   4.678  0.2898 -0.2556 -0.2225
12315TIP3    H158360   4.876   1.122   4.690 -0.2024 -2.1924  0.8463
12315TIP3    H258361   4.771   1.145   4.583  1.4794  0.3897 -0.3801
12316TIP3   OH258362   3.472   1.669   5.026 -0.1551  0.4338 -0.1853
12316TIP3    H158363   3.407   1.663   4.956  1.2637  0.2575 -1.5288
12316TIP3    H258364   3.461   1.587   5.076 -0.5578  0.1286 -0.7625
12317TIP3   OH258365   5.232   0.143   5.460  0.3323 -0.6867 -0.7018
12317TIP3    H158366   5.250   0.231   5.491  3.0360 -1.2304 -0.4696
12317TIP3    H258367   5.139   0.130   5.475  0.4844  0.9750  2.2565
12318TIP3   OH258368   0.313   2.991  11.581  0.0469 -0.1595 -0.5053
12318TIP3    H158369   0.387   2.930  11.581 -0.0729 -0.3044 -0.4627
12318TIP3    H258370   0.338   3.058  11.516  0.4273  0.0536 -0.1455
12319TIP3   OH258371   5.164   3.694   2.204  0.6485 -0.2167 -0.0359
12319TIP3    H158372   5.220   3.674   2.130  1.1723 -1.3173  0.6315
12319TIP3    H258373   5.098   3.625   2.205  0.2968  0.1156  0.1780
12320TIP3   OH258374   3.124   0.209   2.075  0.0442 -0.3530 -0.7835
12320TIP3    H158375   3.186   0.280   2.069  1.5654 -1.7250 -2.2778
12320TIP3    H258376   3.145   0.165   2.158 -0.6239  0.6194 -0.0686
12321TIP3   OH258377   6.418   1.586  12.291  0.2969  0.1286 -0.1123
12321TIP3    H158378   6.451   1.626  12.372 -0.9372  1.4036 -0.1848
12321TIP3    H258379   6.444   1.495  12.296 -0.4809 -0.0252  2.1502
12322TIP3   OH258380   1.931   6.247  10.959  0.2812  0.1209  0.3024
12322TIP3    H158381   1.875   6.177  10.925  1.8071 -1.2517  0.4631
12322TIP3    H258382   1.963   6.293  10.882  1.9834 -1.5915 -0.1128
12323TIP3   OH258383   3.685   4.735   5.193  0.0049  0.1322  0.4723
12323TIP3    H158384   3.653   4.805   5.137 -1.2942 -1.3444 -0.7388
12323TIP3    H258385   3.609   4.710   5.246  0.4651 -0.3088  0.9396
12324TIP3   OH258386   2.538   4.795   5.068  0.2768 -0.1388  0.4966
12324TIP3    H158387   2.581   4.860   5.122  1.1808 -0.1184 -0.2354
12324TIP3    H258388   2.454   4.779   5.112  0.4707  0.7724  1.2205
12325TIP3   OH258389   3.907   0.591   5.312 -0.1019 -0.3136 -0.2365
12325TIP3    H158390   3.948   0.667   5.271 -2.4627  1.1481 -0.0811
12325TIP3    H258391   3.922   0.604   5.406 -0.6923  0.0948 -0.1950
12326TIP3   OH258392   2.187   6.197  11.561  0.5654 -1.0714 -0.3026
12326TIP3    H158393   2.266   6.216  11.510  0.6993 -0.3108  0.1746
12326TIP3    H258394   2.220   6.158  11.642  0.3835 -1.7990 -0.5760
12327TIP3   OH258395   6.195   0.530  14.653  0.5372  0.7192  0.0602
12327TIP3    H158396   6.161   0.611  14.615 -1.3914 -0.3694 -0.6940
12327TIP3    H258397   6.139   0.461  14.617  0.4205 -0.7032  2.7151
12328TIP3   OH258398   0.317   0.925  16.798  0.2192 -0.5692 -0.1924
12328TIP3    H158399   0.240   0.931  16.741  0.0779 -0.6574 -0.0095
12328TIP3    H258400   0.388   0.899  16.739 -0.2785 -2.3674 -0.0334
12329TIP3   OH258401   3.888   4.825   5.489 -0.2587 -0.1976 -0.1327
12329TIP3    H158402   3.897   4.916   5.460  1.7531 -0.6219 -1.0188
12329TIP3    H258403   3.925   4.825   5.577 -1.1332 -0.0023  0.2468
12330TIP3   OH258404   4.688   4.151  12.806 -0.7659 -0.0142  0.1977
12330TIP3    H158405   4.764   4.170  12.751  0.2133 -2.4136  0.5736
12330TIP3    H258406   4.701   4.206  12.884 -0.3790  0.9201 -0.5098
12331TIP3   OH258407   1.977   5.508   1.033 -0.3768  0.2631 -0.1262
12331TIP3    H158408   1.899   5.485   1.082  0.1615  1.8187  1.5845
12331TIP3    H258409   2.028   5.427   1.028 -0.8654 -0.1359  1.1403
12332TIP3   OH258410   3.656   0.136   5.317 -0.1443 -0.1807 -0.5104
12332TIP3    H158411   3.700   0.091   5.245  0.2439 -0.4218 -0.1321
12332TIP3    H258412   3.651   0.070   5.387 -0.2183  0.1424 -0.2050
12333TIP3   OH258413   4.334   1.055  12.834 -0.6219  0.4166 -0.4934
12333TIP3    H158414   4.368   0.990  12.773 -0.5449  0.4092 -0.4418
12333TIP3    H258415   4.411   1.092  12.876 -0.6664  0.5285 -0.5092
12334TIP3   OH258416   2.245   3.066  14.756 -0.2247  0.4649  0.6476
12334TIP3    H158417   2.257   2.984  14.806 -3.7251  0.0203  0.9943
12334TIP3    H258418   2.257   3.135  14.821 -0.4851  0.0690  1.1296
12335TIP3   OH258419   3.639   2.072   5.268  0.4803 -0.2065  0.0827
12335TIP3    H158420   3.691   2.144   5.233  1.3006 -0.7835  0.0851
12335TIP3    H258421   3.634   2.009   5.196  1.2632 -0.9231  0.6414
12336TIP3   OH258422   4.722   0.444  15.192  0.4280 -0.3757 -0.6405
12336TIP3    H158423   4.714   0.457  15.287 -0.8625  0.9162 -0.8779
12336TIP3    H258424   4.698   0.529  15.155  1.0373 -0.8272 -2.1300
12337TIP3   OH258425   6.377   2.757  11.480  0.1654  0.4858  0.2035
12337TIP3    H158426   6.461   2.780  11.519  0.0157  1.8035 -0.1823
12337TIP3    H258427   6.376   2.662  11.479  1.5852  0.4458  0.3591
12338TIP3   OH258428   0.300   1.291  12.651  0.3054  0.5666 -0.3553
12338TIP3    H158429   0.207   1.282  12.631  0.2918  0.0933 -0.1084
12338TIP3    H258430   0.308   1.260  12.741  0.7462  0.3204 -0.4740
12339TIP3   OH258431   5.109   6.549   0.244 -0.2765  0.3612  0.1598
12339TIP3    H158432   5.017   6.529   0.261 -0.3212  1.3221  1.1886
12339TIP3    H258433   5.125   6.632   0.290  0.7987  0.8371 -0.9930
12340TIP3   OH258434   6.737   5.526  14.776 -0.1462  0.3439 -0.1850
12340TIP3    H158435   6.771   5.446  14.816 -1.5553 -0.0603  0.2799
12340TIP3    H258436   6.756   5.515  14.682  1.5985  0.4869  0.1162
12341TIP3   OH258437   6.701   4.829   0.557  0.0766  0.0906 -0.2211
12341TIP3    H158438   6.655   4.748   0.534 -0.2431 -0.1991  1.3333
12341TIP3    H258439   6.657   4.897   0.506 -1.9999 -0.2015  1.0696
12342TIP3   OH258440   1.649   0.469   3.184  0.3422 -0.3867  0.1838
12342TIP3    H158441   1.704   0.391   3.177  0.9952  0.0531  0.3194
12342TIP3    H258442   1.588   0.462   3.110  0.5728 -0.8839  0.0334
12343TIP3   OH258443   2.489   0.353  12.034 -0.0174  0.0639 -0.8461
12343TIP3    H158444   2.536   0.289  11.980  0.4106  0.3750 -0.8492
12343TIP3    H258445   2.397   0.328  12.025  0.2511 -1.5870  0.4890
12344TIP3   OH258446   0.776   3.564  12.155 -0.2823 -0.4233  0.0418
12344TIP3    H158447   0.804   3.534  12.241 -1.0140 -2.9709 -0.5072
12344TIP3    H258448   0.700   3.620  12.171 -1.2334 -1.9402  1.0245
12345TIP3   OH258449   3.246   5.428  10.780  0.5413 -0.3260 -0.1384
12345TIP3    H158450   3.170   5.387  10.738 -0.3907  1.3335 -0.1814
12345TIP3    H258451   3.318   5.369  10.763 -0.3765 -1.0628 -1.6964
12346TIP3   OH258452   6.220   0.411  15.273 -0.2859  0.3456 -0.1795
12346TIP3    H158453   6.189   0.463  15.199 -2.4575  1.2567  1.2650
12346TIP3    H258454   6.193   0.461  15.350 -1.6389 -2.4257  1.2926
12347TIP3   OH258455   5.553   1.217  10.960  0.0011  0.1131 -0.1521
12347TIP3    H158456   5.630   1.255  10.918  1.4113 -1.1135  1.1953
12347TIP3    H258457   5.545   1.265  11.042 -0.1778 -0.3256  0.0863
12348TIP3   OH258458   6.510   1.644  11.340 -0.1364 -0.4781 -0.0968
12348TIP3    H158459   6.428   1.597  11.327  0.7104 -1.9062 -0.5418
12348TIP3    H258460   6.496   1.729  11.300 -1.2715 -0.8343 -0.4954
12349TIP3   OH258461   1.055   3.292   3.742  0.0911  0.2523  0.6935
12349TIP3    H158462   1.101   3.299   3.659  1.5817  2.7012  1.6198
12349TIP3    H258463   1.016   3.205   3.740  2.6767 -1.0069 -1.2435
12350TIP3   OH258464   2.038   1.942  11.629 -0.0733 -0.4326 -0.7526
12350TIP3    H158465   1.991   1.928  11.546 -0.3693 -0.5268 -0.5690
12350TIP3    H258466   2.099   2.013  11.609 -0.9200  0.3145 -0.7478
12351TIP3   OH258467   4.688   0.754  12.272 -0.2111  0.0731 -0.3841
12351TIP3    H158468   4.614   0.754  12.332 -0.1712 -0.6157 -0.3326
12351TIP3    H258469   4.655   0.797  12.193 -0.2669  0.9626  0.1111
12352TIP3   OH258470   1.570   2.302  12.406  0.6059 -0.1393  0.1985
12352TIP3    H158471   1.509   2.324  12.336  0.6354  1.0760  0.5345
12352TIP3    H258472   1.552   2.210  12.426 -0.9426  0.1253  0.1366
12353TIP3   OH258473   5.944   5.211   5.421  0.2363 -0.0572 -0.1719
12353TIP3    H158474   5.863   5.167   5.399  1.8537 -2.7447 -1.2531
12353TIP3    H258475   5.918   5.300   5.446 -2.8366 -0.3180 -2.0046
12354TIP3   OH258476   1.326   1.016   0.936 -0.3091  0.0336 -0.0741
12354TIP3    H158477   1.232   1.037   0.942 -0.4596 -0.8551  0.8862
12354TIP3    H258478   1.345   1.020   0.842 -1.3761 -0.0415 -0.3097
12355TIP3   OH258479   5.684   0.289  13.280  0.0995 -0.7622 -0.4229
12355TIP3    H158480   5.607   0.258  13.328  1.3932 -0.2924  2.1719
12355TIP3    H258481   5.733   0.209  13.259 -0.0034 -0.9306 -0.0406
12356TIP3   OH258482   6.629   1.259  15.622  0.0235 -0.6993 -0.1658
12356TIP3    H158483   6.615   1.351  15.601 -0.5789 -1.0410 -1.3490
12356TIP3    H258484   6.551   1.214  15.589  0.7615 -1.7585 -0.5334
12357TIP3   OH258485   6.488   6.045   3.037  0.4786  0.0173  0.2273
12357TIP3    H158486   6.393   6.053   3.030  0.4786  1.0459  1.0454
12357TIP3    H258487   6.522   6.110   2.975  0.6605 -0.4503 -0.1730
12358TIP3   OH258488   6.221   5.227  12.939 -0.0463  0.0624 -0.1218
12358TIP3    H158489   6.162   5.159  12.906 -1.6119  1.3277 -0.0496
12358TIP3    H258490   6.213   5.298  12.876 -0.7112  1.3138  1.3281
12359TIP3   OH258491   6.395   1.937   5.504  0.4012 -0.1270  0.2617
12359TIP3    H158492   6.302   1.926   5.483  0.7429 -0.9066 -0.9925
12359TIP3    H258493   6.421   1.854   5.545  0.7165 -0.2375 -0.1470
12360TIP3   OH258494   3.868   0.964  15.137  0.2700  0.2869  0.0302
12360TIP3    H158495   3.939   0.913  15.176  1.0207  1.0517 -0.2940
12360TIP3    H258496   3.857   0.926  15.049 -0.3208 -0.3858  0.3829
12361TIP3   OH258497   1.400   2.709  14.012 -0.2104  0.2459 -0.1889
12361TIP3    H158498   1.399   2.804  14.027  1.0307  0.0435  1.5709
12361TIP3    H258499   1.490   2.689  13.987 -0.4940 -0.4700 -0.6927
12362TIP3   OH258500   2.951   5.868  15.218 -0.1587  0.5222 -0.0367
12362TIP3    H158501   2.889   5.797  15.203  0.6385 -0.2781  0.3508
12362TIP3    H258502   3.037   5.831  15.197  0.1718  1.7271 -0.9477
12363TIP3   OH258503   5.826   3.430  16.520 -1.0411 -0.2435  0.0105
12363TIP3    H158504   5.888   3.399  16.455  0.0030 -1.1875  1.4024
12363TIP3    H258505   5.809   3.521  16.495 -0.1259 -0.3710 -1.1464
12364TIP3   OH258506   0.934   5.760   1.955  0.2173  0.1565 -0.2719
12364TIP3    H158507   0.944   5.750   1.860 -1.7957  0.4553 -0.5689
12364TIP3    H258508   0.845   5.795   1.966 -0.4564 -1.9547  1.8419
12365TIP3   OH258509   5.681   1.895  13.041  0.2944 -0.3607  0.0584
12365TIP3    H158510   5.709   1.938  13.122 -0.3357 -0.0196  0.1050
12365TIP3    H258511   5.589   1.922  13.031 -0.5123 -2.6528  0.7220
12366TIP3   OH258512   1.234   5.802   5.441  0.7022  0.3693  0.7708
12366TIP3    H158513   1.254   5.735   5.376 -2.4601  0.9554 -0.9916
12366TIP3    H258514   1.141   5.789   5.462  0.6982  2.4826  2.4651
12367TIP3   OH258515   5.629   5.371  16.769 -0.2974 -0.2206  0.1822
12367TIP3    H158516   5.638   5.455  16.724  0.1815 -0.3121  0.0970
12367TIP3    H258517   5.626   5.306  16.698  2.0947 -0.5188  0.2640
12368TIP3   OH258518   4.116   4.427   3.819 -0.1225 -0.0557 -0.5920
12368TIP3    H158519   4.120   4.521   3.800 -0.1017 -0.3007 -1.8891
12368TIP3    H258520   4.128   4.422   3.914 -2.9536  1.4264 -0.0415
12369TIP3   OH258521   5.228   4.909  10.421 -0.3737  0.0939  0.1849
12369TIP3    H158522   5.315   4.870  10.430  0.7355  2.3483  0.0109
12369TIP3    H258523   5.217   4.960  10.502 -0.1542  2.2646 -1.0769
12370TIP3   OH258524   1.351   4.179   0.738 -0.1563 -0.3909  0.5437
12370TIP3    H158525   1.296   4.237   0.686 -1.0441  1.0697  2.9572
12370TIP3    H258526   1.313   4.182   0.826  1.0345 -3.0245  1.2484
12371TIP3   OH258527   3.668   0.872   3.275 -0.2083 -0.5385 -0.4607
12371TIP3    H158528   3.617   0.952   3.271 -1.2432 -1.0226  1.5876
12371TIP3    H258529   3.612   0.805   3.236  1.4490 -0.0266 -4.0990
12372TIP3   OH258530   4.300   4.553  15.513 -0.6338  0.1990  0.0618
12372TIP3    H158531   4.344   4.469  15.524 -1.5538 -0.1999  0.8920
12372TIP3    H258532   4.351   4.613  15.567 -1.5837 -0.4541  1.7573
12373TIP3   OH258533   3.239   2.480  16.720 -0.2639  0.1072 -0.5657
12373TIP3    H158534   3.204   2.549  16.664 -0.8485  0.7620  0.5603
12373TIP3    H258535   3.161   2.433  16.751  0.1379 -1.1570 -1.4269
12374TIP3   OH258536   1.811   1.086  14.957 -0.8553 -0.4784  0.4229
12374TIP3    H158537   1.716   1.095  14.966 -0.9326 -1.8839  1.1692
12374TIP3    H258538   1.828   0.993  14.965  0.6455 -0.2152  0.6953
12375TIP3   OH258539   4.096   1.458  11.471  0.1708 -0.7925 -0.1213
12375TIP3    H158540   4.103   1.364  11.484  2.1005 -0.4427  1.8434
12375TIP3    H258541   4.176   1.483  11.425 -1.0798 -0.2786 -2.1530
12376TIP3   OH258542   2.046   3.938  11.191 -0.0631  0.9811 -0.3513
12376TIP3    H158543   2.122   3.883  11.207 -0.1691  0.2149 -2.1918
12376TIP3    H258544   2.052   4.008  11.256  1.5426  0.2660  0.3074
12377TIP3   OH258545   1.431   5.167  12.361 -0.3938  0.1225 -0.3916
12377TIP3    H158546   1.347   5.211  12.348 -0.4337  0.4927  0.9983
12377TIP3    H258547   1.450   5.127  12.276 -2.0868 -0.1602 -0.6845
12378TIP3   OH258548   4.331   5.028  11.577  0.3204  0.3067 -0.1985
12378TIP3    H158549   4.280   4.948  11.587  0.7232  0.3252  2.8924
12378TIP3    H258550   4.421   4.998  11.561  0.1099  0.2213 -1.3132
12379TIP3   OH258551   2.388   4.944  11.754 -0.5464 -0.2399 -0.1360
12379TIP3    H158552   2.409   4.851  11.763  1.7704  0.3631  2.0544
12379TIP3    H258553   2.300   4.953  11.791 -1.0975 -1.6139 -1.0260
12380TIP3   OH258554   6.324   3.050  11.454 -0.2686 -0.0390  0.4601
12380TIP3    H158555   6.282   3.082  11.533 -1.2856 -1.1335  0.4012
12380TIP3    H258556   6.374   2.973  11.483  0.1485  0.1327  0.2049
12381TIP3   OH258557   2.278   5.910  12.972  0.5444  0.7773  0.1161
12381TIP3    H158558   2.207   5.869  13.022  0.3220  0.7533 -0.2206
12381TIP3    H258559   2.347   5.925  13.037 -0.5719  2.7649  0.9335
12382TIP3   OH258560   4.508   6.319   2.401 -0.7642 -0.2758 -0.3894
12382TIP3    H158561   4.553   6.332   2.484 -1.6006  0.7906 -0.0711
12382TIP3    H258562   4.572   6.277   2.344  0.1475 -0.0870  0.4844
12383TIP3   OH258563   5.675   5.684   0.081 -0.2210  0.0481  0.1578
12383TIP3    H158564   5.628   5.761   0.049 -0.5464  0.1082  0.7475
12383TIP3    H258565   5.650   5.614   0.021 -0.8964  0.1348  0.3233
12384TIP3   OH258566   3.279   3.121  13.656  0.3359  0.0205 -0.3173
12384TIP3    H158567   3.356   3.080  13.616  0.7693  0.8824 -0.4060
12384TIP3    H258568   3.315   3.169  13.731 -0.1940 -0.0217 -0.0370
12385TIP3   OH258569   6.088   0.903   1.981 -0.2754  0.2966 -0.0436
12385TIP3    H158570   6.058   0.969   2.043 -1.3040 -0.1042 -0.0981
12385TIP3    H258571   6.092   0.822   2.033 -2.6788 -0.3912 -0.8120
12386TIP3   OH258572   1.579   0.415   2.097  0.2282  0.2304  0.5325
12386TIP3    H158573   1.560   0.470   2.173  1.3151 -0.5282  1.3841
12386TIP3    H258574   1.620   0.474   2.034  0.8364  0.5392  1.1989
12387TIP3   OH258575   1.604   0.656   5.161  0.4016  0.3202 -0.4176
12387TIP3    H158576   1.675   0.595   5.178 -1.4196 -1.4480  1.2893
12387TIP3    H258577   1.593   0.705   5.243 -0.6912  0.1755 -0.4549
12388TIP3   OH258578   4.462   2.109   2.062  0.4100  0.0382  0.2894
12388TIP3    H158579   4.442   2.054   2.138  0.7566  0.5813  0.7804
12388TIP3    H258580   4.384   2.163   2.051  0.4534  0.1254  0.4060
12389TIP3   OH258581   0.054   0.111   3.067 -0.0089 -0.6112  0.5847
12389TIP3    H158582   0.094   0.149   2.990 -1.3684  2.1834  1.1191
12389TIP3    H258583  -0.025   0.067   3.035  0.4203 -1.1242  0.2122
12390TIP3   OH258584   5.447   1.600  12.258 -0.2535  0.6317  0.1123
12390TIP3    H158585   5.385   1.527  12.259 -0.9650  1.0905 -2.5283
12390TIP3    H258586   5.500   1.585  12.180 -0.1594  2.7122 -0.2701
12391TIP3   OH258587   3.808   4.220  12.093  0.2062 -0.5044 -0.6339
12391TIP3    H158588   3.775   4.253  12.176 -0.4069  1.5648 -1.6286
12391TIP3    H258589   3.750   4.147  12.071 -0.0504 -0.6222  0.3944
12392TIP3   OH258590   0.199   0.721  12.834 -0.2813 -0.7559  0.5613
12392TIP3    H158591   0.229   0.657  12.898  4.1512  1.0812  0.7145
12392TIP3    H258592   0.165   0.793  12.887  1.2004 -0.2038  0.8004
12393TIP3   OH258593   2.732   5.956  14.356 -0.2304  0.0530 -0.1498
12393TIP3    H158594   2.709   5.988  14.269 -0.5089 -2.2158 -0.9842
12393TIP3    H258595   2.827   5.955  14.358 -0.1982 -1.0770 -0.9649
12394TIP3   OH258596   2.304   4.235  15.877 -0.4104 -0.2119 -0.1721
12394TIP3    H158597   2.391   4.268  15.899 -0.3559 -0.1581 -0.4644
12394TIP3    H258598   2.320   4.155  15.827 -0.4944  0.5217 -1.4097
12395TIP3   OH258599   3.896   3.943  11.176 -0.5973  0.3165  0.1315
12395TIP3    H158600   3.825   3.914  11.232  0.1921  1.5107  1.8254
12395TIP3    H258601   3.971   3.951  11.235  1.1794 -1.5814 -1.6967
12396TIP3   OH258602   0.097   4.604   4.912 -0.1911 -0.3097 -0.3804
12396TIP3    H158603   0.123   4.596   5.003 -1.5132 -0.5596 -0.0105
12396TIP3    H258604   0.091   4.699   4.896 -0.6150 -0.2760 -0.0161
12397TIP3   OH258605   2.826   0.812   5.134 -0.1218 -0.4347 -0.0136
12397TIP3    H158606   2.805   0.904   5.118  0.3292 -0.3266  0.0250
12397TIP3    H258607   2.746   0.765   5.109 -0.7063  0.0423  0.8894
12398TIP3   OH258608   5.871   5.864  11.814  0.4794 -0.3628 -0.1847
12398TIP3    H158609   5.895   5.858  11.906  2.6947 -1.4429 -0.7429
12398TIP3    H258610   5.858   5.773  11.787 -0.8547 -0.0109 -0.7827
12399TIP3   OH258611   2.552   5.681  16.516  0.5180 -0.2463  0.4793
12399TIP3    H158612   2.633   5.648  16.478 -0.0309 -0.6160 -0.3900
12399TIP3    H258613   2.487   5.615  16.494 -0.4879  1.1078 -0.8333
12400TIP3   OH258614   4.460   5.891   1.146 -0.0040  0.1477  0.4449
12400TIP3    H158615   4.412   5.957   1.096  1.0186  0.0034 -0.7697
12400TIP3    H258616   4.398   5.863   1.214  0.1939  3.8546  2.4323
12401TIP3   OH258617   6.435   0.419   0.741 -0.3826  0.3512  0.5420
12401TIP3    H158618   6.408   0.368   0.665  0.6647 -1.8476  1.5553
12401TIP3    H258619   6.357   0.423   0.796 -0.2128 -1.1295  0.9301
12402TIP3   OH258620   0.947   5.348  13.089 -0.4026 -0.7479 -0.0521
12402TIP3    H158621   0.879   5.284  13.067 -0.2958 -1.0201  0.3865
12402TIP3    H258622   0.975   5.323  13.178 -1.6470  1.0073  0.8967
12403TIP3   OH258623   0.172   1.000  15.147  0.1084 -0.3481  0.1329
12403TIP3    H158624   0.235   1.071  15.131  0.3136 -0.3320  0.9623
12403TIP3    H258625   0.219   0.921  15.122  0.5375 -0.3544  0.9331
12404TIP3   OH258626   3.241   6.380  13.126 -0.3796  0.1531  0.3040
12404TIP3    H158627   3.296   6.454  13.099 -0.5398  0.0772 -0.2468
12404TIP3    H258628   3.187   6.362  13.049  0.2679 -1.0999  0.1075
12405TIP3   OH258629   1.557   2.050   3.751 -0.2121 -0.7066  0.1771
12405TIP3    H158630   1.530   2.024   3.663  0.1395 -0.4980  0.0084
12405TIP3    H258631   1.638   2.098   3.739 -1.1030  0.9167  0.4469
12406TIP3   OH258632   3.565   5.757  12.931 -0.7894 -0.6275 -0.4729
12406TIP3    H158633   3.498   5.731  12.994 -2.0247 -1.3980 -2.0344
12406TIP3    H258634   3.648   5.750  12.979 -1.5849 -2.2314  0.7289
12407TIP3   OH258635   2.455   3.093  16.022 -0.5613  0.2190 -0.0383
12407TIP3    H158636   2.376   3.123  15.978 -0.5480  1.6438  0.8344
12407TIP3    H258637   2.511   3.059  15.952 -1.2624  0.7701 -0.8806
12408TIP3   OH258638   2.573   5.237   3.363  0.3551 -0.0046  0.9389
12408TIP3    H158639   2.633   5.173   3.401 -0.7889 -2.2508 -0.8156
12408TIP3    H258640   2.630   5.293   3.309  1.0106 -2.0153 -0.6052
12409TIP3   OH258641   4.657   3.897  14.200 -0.2038 -0.5998  0.5978
12409TIP3    H158642   4.728   3.882  14.138  0.5284 -0.3100  1.3382
12409TIP3    H258643   4.666   3.827  14.264 -1.4038 -1.3282  0.0012
12410TIP3   OH258644   6.161   6.439  16.748 -0.1626 -0.7654  0.2064
12410TIP3    H158645   6.138   6.514  16.802  0.5156 -0.8631  0.6422
12410TIP3    H258646   6.077   6.407  16.714 -0.3648  1.1134 -1.2717
12411TIP3   OH258647   6.672   4.425  14.527 -0.7250  0.2513 -0.1748
12411TIP3    H158648   6.634   4.458  14.609 -2.4270  0.2233 -0.9101
12411TIP3    H258649   6.596   4.395  14.476 -0.0173  2.6564 -2.8578
12412TIP3   OH258650   6.032   0.286   3.046  0.0599  0.3256  0.3733
12412TIP3    H158651   5.975   0.356   3.012  0.6057 -0.0681 -1.4476
12412TIP3    H258652   5.975   0.209   3.050 -0.5447  0.8184  2.3914
12413TIP3   OH258653   4.290   2.699   1.073 -0.4858 -0.2706  0.0850
12413TIP3    H158654   4.248   2.775   1.031  0.4011  1.1483  1.6341
12413TIP3    H258655   4.261   2.624   1.022 -2.2951  0.9977 -0.8539
12414TIP3   OH258656   6.462   0.592   6.176  0.0384 -0.6909 -0.0046
12414TIP3    H158657   6.368   0.583   6.188 -0.0628 -1.3028 -1.0740
12414TIP3    H258658   6.500   0.524   6.231 -0.0542  0.3174  1.3581
12415TIP3   OH258659   4.323   4.974   1.278 -0.3876 -0.2989 -0.4207
12415TIP3    H158660   4.385   4.994   1.208 -1.4545  1.3152 -0.9587
12415TIP3    H258661   4.254   4.923   1.236 -0.7649  0.2178 -0.4361
12416TIP3   OH258662   6.547   2.502  12.631  0.0316  0.8490 -0.8590
12416TIP3    H158663   6.631   2.547  12.642  0.6866  0.1603 -2.5697
12416TIP3    H258664   6.506   2.547  12.557 -0.1574 -0.1198 -1.3610
12417TIP3   OH258665   5.579   5.427  15.885  0.1521 -0.6025  0.2082
12417TIP3    H158666   5.518   5.483  15.837 -0.2461 -0.7798  0.5037
12417TIP3    H258667   5.660   5.478  15.889 -0.2928  0.0808  0.7348
12418TIP3   OH258668   1.219   2.523  12.331 -0.0550  0.1749  0.0484
12418TIP3    H158669   1.221   2.427  12.321 -3.2902 -0.2870  2.4939
12418TIP3    H258670   1.289   2.554  12.272  0.3179 -3.5531 -1.7757
12419TIP3   OH258671   0.779   2.637  15.712 -0.6165  0.2172 -0.1963
12419TIP3    H158672   0.791   2.601  15.625 -0.4329 -3.1972  1.0975
12419TIP3    H258673   0.862   2.678  15.734 -0.8999  1.7715 -1.8183
12420TIP3   OH258674   2.770   4.415  16.991  0.1533  0.0543 -0.8244
12420TIP3    H158675   2.851   4.380  16.955  0.7157 -1.6976  1.8667
12420TIP3    H258676   2.797   4.465  17.068 -1.2323  0.6369 -0.6833
12421TIP3   OH258677   6.620   0.292  15.604  0.0667  0.3776 -0.0752
12421TIP3    H158678   6.617   0.371  15.657  0.1337  0.8358 -0.7430
12421TIP3    H258679   6.543   0.242  15.630  0.1473  0.5584  0.5085
12422TIP3   OH258680   4.127   2.055   1.833  0.2308 -0.4937  0.2010
12422TIP3    H158681   4.150   2.130   1.887  4.2433 -0.1850 -1.5686
12422TIP3    H258682   4.150   1.978   1.886  1.1575 -0.2787  0.1262
12423TIP3   OH258683   4.042   1.143   1.459  0.0332 -0.1785  0.1911
12423TIP3    H158684   3.984   1.202   1.508  0.9970  0.8444  0.1482
12423TIP3    H258685   3.984   1.099   1.396 -0.5470  1.6005 -0.5783
12424TIP3   OH258686   2.439   4.459  14.843  0.3265  0.3207  0.2976
12424TIP3    H158687   2.479   4.478  14.758  0.2226 -0.9888 -0.0576
12424TIP3    H258688   2.478   4.523  14.903  1.7337  0.1104 -0.3655
12425TIP3   OH258689   4.367   0.006  15.539  0.0505  0.1438  0.1649
12425TIP3    H158690   4.456  -0.017  15.566  0.0936 -1.4595 -1.1832
12425TIP3    H258691   4.314  -0.070  15.565 -0.3971 -0.1707 -1.5355
12426TIP3   OH258692   4.380   0.947   5.567  0.0290  0.2495 -0.4338
12426TIP3    H158693   4.449   0.892   5.605 -1.2296 -0.8715  0.3304
12426TIP3    H258694   4.311   0.886   5.544 -0.7273  1.3500 -1.1749
12427TIP3   OH258695   6.047   2.770   2.098  0.3521  0.4756  0.3080
12427TIP3    H158696   6.012   2.843   2.046  1.1835  1.4994  1.1525
12427TIP3    H258697   6.030   2.795   2.189 -1.8869 -1.6847  0.6170
12428TIP3   OH258698   3.211   0.541  11.289 -0.9035  0.1119 -0.3207
12428TIP3    H158699   3.238   0.561  11.200 -0.1254  1.3144  0.1592
12428TIP3    H258700   3.146   0.607  11.310 -0.9200 -0.0264  0.0727
12429TIP3   OH258701   5.765   1.486  13.497 -0.2891  0.1078  0.0656
12429TIP3    H158702   5.801   1.567  13.462  0.3726 -0.6851 -1.1938
12429TIP3    H258703   5.687   1.470  13.443 -0.8596  0.2814  0.8149
12430TIP3   OH258704   3.472   3.190  16.897  0.1442  0.1238 -0.4786
12430TIP3    H158705   3.397   3.228  16.942  2.0732  2.8167  0.7544
12430TIP3    H258706   3.501   3.258  16.836  1.5244 -0.8633 -0.9873
12431TIP3   OH258707   3.942   6.172   3.543  0.1591  0.0579 -0.5379
12431TIP3    H158708   3.928   6.253   3.495  1.1488  1.5087  1.4661
12431TIP3    H258709   3.853   6.142   3.564 -0.2243  0.5421 -1.4167
12432TIP3   OH258710   0.731   5.187  14.155  0.4217  0.4360 -0.2964
12432TIP3    H158711   0.785   5.108  14.148  0.2440  0.1851  0.9163
12432TIP3    H258712   0.752   5.237  14.077  2.9109  0.6280  0.3942
12433TIP3   OH258713   0.447   0.402   4.862  0.0915  0.3757 -0.1510
12433TIP3    H158714   0.426   0.481   4.912 -2.7063  0.3605 -1.1255
12433TIP3    H258715   0.530   0.422   4.819  0.8862  1.6447  1.8341
12434TIP3   OH258716   3.791   3.891   0.379 -0.0624 -1.1482 -0.2225
12434TIP3    H158717   3.723   3.846   0.429 -0.4307 -0.6021 -0.2371
12434TIP3    H258718   3.862   3.903   0.442 -1.2972  1.3766  0.7965
12435TIP3   OH258719   3.425   5.413   2.386 -0.7927 -0.0682 -0.4968
12435TIP3    H158720   3.493   5.353   2.356 -1.7007 -1.0839 -0.5518
12435TIP3    H258721   3.426   5.483   2.320  1.7894  1.2215  0.7430
12436TIP3   OH258722   1.198   3.346   5.423  0.6220 -0.0155  0.2837
12436TIP3    H158723   1.104   3.332   5.421  0.5202  0.6672 -2.2469
12436TIP3    H258724   1.209   3.427   5.473  0.1804 -1.4891  2.9860
12437TIP3   OH258725   0.294   0.699  15.624  0.0105  0.0796 -0.5659
12437TIP3    H158726   0.328   0.633  15.684 -0.1376  0.2771 -0.2580
12437TIP3    H258727   0.199   0.688  15.628 -0.0134  0.2963 -0.5265
12438TIP3   OH258728   6.049   3.086   2.673 -0.4614 -0.1310 -0.5337
12438TIP3    H158729   6.110   3.098   2.745 -1.8320  0.1382  0.6391
12438TIP3    H258730   6.102   3.095   2.594  1.3537 -1.7939  0.4096
12439TIP3   OH258731   0.666   3.159   3.951 -0.4921 -0.5515  0.4119
12439TIP3    H158732   0.685   3.145   4.044  0.9584 -0.4474  0.1604
12439TIP3    H258733   0.648   3.253   3.945 -1.1412 -0.6552  0.6678
12440TIP3   OH258734   1.606   1.902   5.339  0.6976  0.3244  0.8503
12440TIP3    H158735   1.563   1.909   5.424  1.5293 -0.0797  1.3153
12440TIP3    H258736   1.657   1.982   5.330 -1.1195  1.4186 -0.2802
12441TIP3   OH258737   4.642   2.272  12.506  0.1721  0.8190 -0.1175
12441TIP3    H158738   4.697   2.194  12.512  0.1468  0.9031  1.8948
12441TIP3    H258739   4.702   2.342  12.479  0.4042  0.3214 -0.9149
12442TIP3   OH258740   5.559   2.271  16.306  0.0757  0.5932  0.0453
12442TIP3    H158741   5.633   2.300  16.359  0.4386  2.2105 -1.2663
12442TIP3    H258742   5.505   2.349  16.296  1.0543  1.0041 -3.5789
12443TIP3   OH258743   0.108   0.412   1.775 -0.0658  0.1042 -0.2667
12443TIP3    H158744   0.129   0.495   1.734 -1.6162  1.0949  0.8469
12443TIP3    H258745   0.074   0.358   1.704  0.8333  0.4382 -0.9724
12444TIP3   OH258746   1.106   4.794   4.294  0.0843  0.0486 -0.4414
12444TIP3    H158747   1.012   4.779   4.286 -0.5611  1.2953  3.0039
12444TIP3    H258748   1.146   4.709   4.276 -1.8608 -0.9382 -0.3122
12445TIP3   OH258749   0.058   5.778  13.620 -0.4521 -0.3229  0.2010
12445TIP3    H158750   0.080   5.857  13.670 -1.2310 -0.2892  0.5123
12445TIP3    H258751   0.044   5.711  13.687  0.8684 -0.9054 -0.0910
12446TIP3   OH258752   5.601   6.671  14.428  0.2618 -0.1389  0.3844
12446TIP3    H158753   5.507   6.654  14.430  0.1235  0.3148 -1.1575
12446TIP3    H258754   5.633   6.618  14.355  1.3471 -0.8813  1.3704
12447TIP3   OH258755   2.284   5.560   3.534 -0.0430  0.0260 -0.6898
12447TIP3    H158756   2.249   5.596   3.453 -0.0280 -0.0246 -0.7186
12447TIP3    H258757   2.241   5.610   3.604 -2.4794 -2.0049 -0.5983
12448TIP3   OH258758   6.229   6.530   3.973  0.1822  0.7396 -0.0426
12448TIP3    H158759   6.204   6.603   3.916  0.9188  0.6836 -0.4431
12448TIP3    H258760   6.275   6.469   3.916 -0.2567  0.0421  0.3293
12449TIP3   OH258761   0.322   2.815   5.402  0.1264  0.3094 -0.2148
12449TIP3    H158762   0.235   2.848   5.381  0.0399  0.0046 -0.3487
12449TIP3    H258763   0.323   2.725   5.367  0.3859  0.2010  0.0618
12450TIP3   OH258764   4.395   0.757  14.341  0.2957  0.1545 -0.4974
12450TIP3    H158765   4.363   0.752  14.431  0.4267  1.8246 -0.3240
12450TIP3    H258766   4.473   0.702  14.340  0.1719 -0.0534  0.3507
12451TIP3   OH258767   0.020   3.811   2.615 -0.4932  0.4039 -0.2647
12451TIP3    H158768  -0.052   3.843   2.670 -2.2133 -1.4919 -1.2395
12451TIP3    H258769   0.096   3.812   2.673 -1.6822  0.7961  1.3965
12452TIP3   OH258770   1.202   2.303  12.993  0.1285 -0.1358 -1.0690
12452TIP3    H158771   1.213   2.382  13.046 -0.7244 -0.6465 -0.0994
12452TIP3    H258772   1.172   2.237  13.055 -0.4332 -0.8775 -2.1062
12453TIP3   OH258773   5.606   4.953   1.795 -0.2872  0.1780  0.5769
12453TIP3    H158774   5.548   4.974   1.722  1.3034  2.4099 -0.1586
12453TIP3    H258775   5.585   5.020   1.861 -0.8307 -1.0505  1.6896
12454TIP3   OH258776   4.458   0.319  15.527 -0.2992  0.1079  0.0339
12454TIP3    H158777   4.449   0.229  15.557 -1.6657  0.4268  0.6641
12454TIP3    H258778   4.422   0.372  15.598  4.1337  1.5178  1.5857
12455TIP3   OH258779   3.535   0.499  16.217  0.2410 -0.3019  0.4543
12455TIP3    H158780   3.628   0.510  16.201  0.0653  0.4472 -0.1120
12455TIP3    H258781   3.515   0.411  16.185  0.5301 -0.0325 -0.5021
12456TIP3   OH258782   4.594   0.723   2.216 -0.2273  0.8274 -0.1088
12456TIP3    H158783   4.558   0.635   2.209 -1.0629  1.1677 -0.2239
12456TIP3    H258784   4.673   0.721   2.162 -1.1897  0.6288 -1.5644
12457TIP3   OH258785   6.445   2.951  12.722  0.5962 -0.4129 -0.5206
12457TIP3    H158786   6.383   2.898  12.672  0.1283 -0.4303  0.0615
12457TIP3    H258787   6.531   2.924  12.690  0.3075 -0.4891 -1.2381
12458TIP3   OH258788   1.232   2.192   0.471  0.3654 -0.0281 -0.3160
12458TIP3    H158789   1.160   2.244   0.436  0.5881  0.5490  0.0821
12458TIP3    H258790   1.213   2.185   0.565  0.4735 -0.4462 -0.3216
12459TIP3   OH258791   4.841   6.149   5.613 -0.1741 -0.3555 -0.4431
12459TIP3    H158792   4.869   6.064   5.648 -0.1628  0.1215  0.7427
12459TIP3    H258793   4.895   6.161   5.535  1.8654 -0.1738  0.9108
12460TIP3   OH258794   5.098   3.158  12.436  0.0021  0.1567 -0.1044
12460TIP3    H158795   5.043   3.090  12.398  1.4718 -0.6695 -0.8268
12460TIP3    H258796   5.074   3.158  12.529 -0.0064 -1.3994 -0.0703
12461TIP3   OH258797   2.934   0.107  11.328  0.2966  0.0055 -0.0900
12461TIP3    H158798   2.950   0.113  11.422  2.0989  2.1269 -0.4359
12461TIP3    H258799   2.936   0.014  11.309  1.7504 -0.4005  1.7190
12462TIP3   OH258800   6.727   3.807  11.639  0.1393  0.3740  0.0367
12462TIP3    H158801   6.773   3.890  11.648 -0.2058  0.3829  2.1657
12462TIP3    H258802   6.738   3.764  11.724 -0.8772 -1.1358 -0.5559
12463TIP3   OH258803   3.971   1.419  17.017 -0.9592 -0.4648 -0.2235
12463TIP3    H158804   4.054   1.389  16.980 -1.0006 -1.1340  0.2251
12463TIP3    H258805   3.996   1.485  17.082 -0.7506 -1.0245  0.2658
12464TIP3   OH258806   2.057   1.395  15.511 -0.5247 -0.4049 -0.0412
12464TIP3    H158807   1.993   1.363  15.447 -2.4143  1.8349  0.5943
12464TIP3    H258808   2.051   1.333  15.584 -0.3919 -1.4077 -0.8615
12465TIP3   OH258809   0.564   0.737   3.181  1.1183  0.1648  0.0980
12465TIP3    H158810   0.651   0.766   3.207  1.3076  0.6286 -0.9630
12465TIP3    H258811   0.572   0.717   3.087 -0.0988  1.0278 -0.2312
12466TIP3   OH258812   5.322   6.127   2.022 -0.3563 -0.0479  0.1203
12466TIP3    H158813   5.289   6.136   2.111  1.8141 -1.9649  1.2335
12466TIP3    H258814   5.297   6.038   1.996  0.4857 -0.1184 -0.4858
12467TIP3   OH258815   3.541   3.635   1.504 -0.4374  0.0115  0.9776
12467TIP3    H158816   3.592   3.647   1.424 -2.8693  1.4095 -0.4804
12467TIP3    H258817   3.513   3.543   1.500 -1.5021  0.3559 -0.4600
12468TIP3   OH258818   4.773   0.254   0.404 -0.0225 -0.5691  0.5280
12468TIP3    H158819   4.780   0.163   0.433  0.4479  0.0099  2.3999
12468TIP3    H258820   4.803   0.305   0.479  1.7046  1.0812 -1.1612
12469TIP3   OH258821   0.870   6.402   5.830 -0.7495 -0.0953 -0.4677
12469TIP3    H158822   0.903   6.314   5.846  1.2809  0.5540 -0.8201
12469TIP3    H258823   0.856   6.405   5.735 -2.0480 -0.4142 -0.3041
12470TIP3   OH258824   4.940   3.798   2.418 -0.0898  0.4740 -0.6499
12470TIP3    H158825   4.882   3.770   2.347 -2.4340  2.3990  0.3744
12470TIP3    H258826   4.923   3.735   2.488  0.0076  0.2950 -0.7862
12471TIP3   OH258827   3.282   1.562   2.989 -0.4150 -0.6677  0.0767
12471TIP3    H158828   3.207   1.510   3.019  0.6603 -2.1209  0.3486
12471TIP3    H258829   3.325   1.591   3.069 -0.2656 -0.4716 -0.0742
12472TIP3   OH258830   4.388   1.081  13.719  0.3376  0.0295 -0.0660
12472TIP3    H158831   4.395   1.164  13.673 -0.9831 -0.2971 -0.8955
12472TIP3    H258832   4.438   1.019  13.666 -1.0751 -0.3178 -1.0501
12473TIP3   OH258833   5.539   4.545  11.118 -0.5947 -0.4108 -0.1400
12473TIP3    H158834   5.562   4.545  11.211  0.7776  0.8417 -0.4277
12473TIP3    H258835   5.604   4.488  11.077 -0.0470  0.4680 -0.5372
12474TIP3   OH258836   1.510   1.990   3.494  0.8142 -0.5787  0.2368
12474TIP3    H158837   1.528   2.060   3.431 -0.4367 -0.6296 -0.2048
12474TIP3    H258838   1.551   1.913   3.456 -0.2904 -0.7049 -0.7616
12475TIP3   OH258839   5.059   2.019   4.956 -0.4279 -0.1373  0.2976
12475TIP3    H158840   5.108   2.034   4.874  0.0113  1.6284  0.8379
12475TIP3    H258841   5.076   1.927   4.977 -0.5351 -0.6343 -1.5675
12476TIP3   OH258842   1.942   3.848  12.958 -0.2918  0.2083  0.1360
12476TIP3    H158843   2.000   3.918  12.986  0.2056  1.3319 -3.2861
12476TIP3    H258844   1.854   3.886  12.966 -0.0524  1.1422 -1.3017
12477TIP3   OH258845   3.657   0.057   1.575  0.6703  0.2401 -0.0592
12477TIP3    H158846   3.602   0.087   1.647  0.6198  0.9896 -0.3989
12477TIP3    H258847   3.703  -0.020   1.609 -0.0782  0.0099  0.4478
12478TIP3   OH258848   2.118   5.225  13.388 -0.0718 -0.0762  0.2906
12478TIP3    H158849   2.176   5.268  13.325  1.5764  2.1697  3.0689
12478TIP3    H258850   2.173   5.155  13.425 -0.2585  0.0149  0.7373
12479TIP3   OH258851   4.974   0.618  15.396 -0.3293  0.4253  0.3860
12479TIP3    H158852   4.930   0.542  15.432  0.3535 -0.4611 -0.5724
12479TIP3    H258853   5.066   0.591  15.389  0.0376  1.5597  0.5969
12480TIP3   OH258854   3.878   5.111   4.464 -0.4640  0.3968 -0.1607
12480TIP3    H158855   3.835   5.079   4.543  0.3422 -2.0257 -0.6154
12480TIP3    H258856   3.950   5.165   4.496  0.3110 -1.1560  0.8497
12481TIP3   OH258857   5.316   3.473  13.964 -0.1437  0.5707  0.1915
12481TIP3    H158858   5.239   3.421  13.944 -0.2941 -0.1831  2.3942
12481TIP3    H258859   5.290   3.527  14.039  0.6766  2.2788 -0.6946
12482TIP3   OH258860   3.526   1.424  16.767 -0.2706 -0.0210 -0.1619
12482TIP3    H158861   3.494   1.475  16.841  0.2046  0.6535 -0.4125
12482TIP3    H258862   3.619   1.445  16.761 -0.4156  0.3508 -1.2722
12483TIP3   OH258863   0.841   4.752   4.204  0.1196 -0.0652 -0.1491
12483TIP3    H158864   0.760   4.790   4.169 -0.4433  0.4855  1.6295
12483TIP3    H258865   0.823   4.659   4.211 -0.0259 -0.0724 -0.6430
12484TIP3   OH258866   3.435   1.273   5.683  0.2349 -0.3139 -0.2876
12484TIP3    H158867   3.496   1.345   5.671 -0.1048  0.1171  0.4898
12484TIP3    H258868   3.456   1.238   5.770 -1.0238  0.2553  0.2756
12485TIP3   OH258869   6.492   5.748  16.540  0.0284 -0.3256 -0.7425
12485TIP3    H158870   6.427   5.679  16.539 -0.1564 -0.1508 -0.8662
12485TIP3    H258871   6.575   5.703  16.556 -0.5436 -0.2276  4.1663
12486TIP3   OH258872   5.755   4.341   4.272  0.8415  0.0078  0.1491
12486TIP3    H158873   5.822   4.391   4.320  1.1888 -1.5475  1.3705
12486TIP3    H258874   5.798   4.257   4.252 -0.1993 -0.3728 -0.5427
12487TIP3   OH258875   5.382   5.564  16.909 -0.2583  0.2089 -0.0733
12487TIP3    H158876   5.470   5.593  16.935 -0.1714  1.3425 -1.5108
12487TIP3    H258877   5.351   5.632  16.850 -1.5908 -0.8223 -0.6070
12488TIP3   OH258878   4.685   0.664   4.925  0.2908 -0.2144  0.4127
12488TIP3    H158879   4.736   0.588   4.952  1.4386 -0.1113 -1.2854
12488TIP3    H258880   4.744   0.715   4.869 -0.4746  1.8961  1.3884
12489TIP3   OH258881   5.368   0.635   2.010 -0.3275 -0.0840 -0.1398
12489TIP3    H158882   5.381   0.729   1.994 -1.0066  0.6719  3.0062
12489TIP3    H258883   5.456   0.599   2.017 -0.0562  0.4696 -0.6142
12490TIP3   OH258884   3.589   4.298  10.581  0.3857  0.3735 -0.6916
12490TIP3    H158885   3.570   4.216  10.535  0.2829  0.1211 -0.2028
12490TIP3    H258886   3.653   4.274  10.648 -3.0329 -0.3947  2.7183
12491TIP3   OH258887   2.078   3.835   0.906 -0.0546 -0.3881  0.7662
12491TIP3    H158888   2.003   3.824   0.964  0.3328 -1.3422  1.1170
12491TIP3    H258889   2.056   3.784   0.828 -0.6728  1.0760 -0.0615
12492TIP3   OH258890   5.637   6.773   3.917 -0.3635  0.2716  0.1806
12492TIP3    H158891   5.696   6.821   3.858  0.4925 -0.4461  0.4433
12492TIP3    H258892   5.553   6.771   3.870  0.6466 -1.4803 -1.6606
12493TIP3   OH258893   3.239   5.281   1.539  0.3942 -0.1524 -0.4468
12493TIP3    H158894   3.155   5.309   1.575  1.4816 -0.7430  2.9316
12493TIP3    H258895   3.219   5.202   1.489 -1.1446  0.0803 -0.2291
12494TIP3   OH258896   2.436   0.227  15.632 -0.2404  0.0180  0.8400
12494TIP3    H158897   2.501   0.203  15.698 -0.6843  1.5897  1.8928
12494TIP3    H258898   2.412   0.317  15.653 -2.0521 -0.1956 -0.1150
12495TIP3   OH258899   3.796   5.307  11.725  0.0359  0.6234 -0.3451
12495TIP3    H158900   3.722   5.275  11.673  1.4178 -0.8051 -1.5460
12495TIP3    H258901   3.873   5.283  11.674  1.3558  1.9955  0.8980
12496TIP3   OH258902   4.929   4.689  15.367 -0.1804 -0.0758 -0.0725
12496TIP3    H158903   5.023   4.671  15.364  0.1732  1.3002  1.4001
12496TIP3    H258904   4.906   4.713  15.277  1.1493  0.7854 -0.2124
12497TIP3   OH258905   6.437   5.379   2.460 -0.3303 -0.4684 -0.3417
12497TIP3    H158906   6.456   5.285   2.461 -0.5756 -0.5103  0.7642
12497TIP3    H258907   6.435   5.405   2.552 -2.0540  0.2622 -0.5564
12498TIP3   OH258908   4.884   1.434   4.532  0.1746 -0.7008 -0.5470
12498TIP3    H158909   4.907   1.520   4.495 -1.5012 -0.1969 -0.5054
12498TIP3    H258910   4.952   1.375   4.498  0.9382  0.4875 -1.1899
12499TIP3   OH258911   3.796   4.874   3.558 -0.4784  0.3962 -0.0593
12499TIP3    H158912   3.710   4.835   3.545 -0.7960  0.7035  0.9756
12499TIP3    H258913   3.858   4.810   3.523 -0.8321 -2.1138  3.3731
12500TIP3   OH258914   3.751   1.534  14.295  0.3260 -0.4331  0.1926
12500TIP3    H158915   3.806   1.464  14.332  0.0868 -0.1695  1.0767
12500TIP3    H258916   3.689   1.488  14.238 -0.0852 -0.9968  1.0712
12501TIP3   OH258917   2.528   5.540   4.357 -0.4014  0.1859  0.7753
12501TIP3    H158918   2.622   5.558   4.360 -0.0509 -1.5495  1.1640
12501TIP3    H258919   2.506   5.545   4.264  0.4475 -1.0536  0.4897
12502TIP3   OH258920   4.087   1.763  15.725  0.2939 -0.2086 -0.0570
12502TIP3    H158921   4.022   1.731  15.662 -1.3996  0.4438  1.2661
12502TIP3    H258922   4.142   1.823  15.675  0.4505 -1.4424 -1.4187
12503TIP3   OH258923   2.557   4.184  14.593  0.3566 -0.0405  0.5540
12503TIP3    H158924   2.622   4.129  14.550  1.2880  1.2358  0.2688
12503TIP3    H258925   2.491   4.201  14.526  0.9925  0.6438  0.0819
12504TIP3   OH258926   3.170   5.257  16.116  0.5982 -0.7299 -0.0302
12504TIP3    H158927   3.169   5.350  16.096 -0.2961  0.4891  4.5471
12504TIP3    H258928   3.083   5.226  16.092  1.1182 -0.6978 -2.2187
12505TIP3   OH258929   4.283   2.389   5.361 -0.4782  0.0768  0.5252
12505TIP3    H158930   4.226   2.378   5.438 -0.2342  0.5202  0.7783
12505TIP3    H258931   4.367   2.351   5.388 -1.3854 -3.0941 -0.8048
12506TIP3   OH258932   4.065   2.286   0.828  0.1780 -0.0788 -0.0428
12506TIP3    H158933   4.009   2.209   0.820  0.1073 -0.0677  0.3348
12506TIP3    H258934   4.008   2.360   0.810  0.0099 -0.0516  0.5777
12507TIP3   OH258935   5.740   4.985  16.376  0.0445  0.4782 -0.3427
12507TIP3    H158936   5.701   4.914  16.325 -0.4511  0.3683  0.1755
12507TIP3    H258937   5.782   5.041  16.311  2.0617 -1.2548 -0.6282
12508TIP3   OH258938   0.768   0.124   0.999 -0.5739  0.4353 -0.5228
12508TIP3    H158939   0.860   0.128   0.973 -0.1691 -0.9111  0.5719
12508TIP3    H258940   0.766   0.154   1.089 -0.5205 -3.0669  0.8144
12509TIP3   OH258941   4.430   5.331  12.820  0.2225  0.1241 -0.1414
12509TIP3    H158942   4.441   5.389  12.745 -0.4857 -1.7247 -1.7362
12509TIP3    H258943   4.339   5.344  12.848  0.3925  0.5727  0.2292
12510TIP3   OH258944   5.819   5.560   4.511 -0.1558  0.1506  0.5494
12510TIP3    H158945   5.902   5.581   4.553  0.3005 -2.2986  1.0015
12510TIP3    H258946   5.834   5.476   4.467 -1.9557  0.3994 -0.6482
12511TIP3   OH258947   6.488   1.536   3.923 -1.0178 -0.0117 -0.0513
12511TIP3    H158948   6.411   1.579   3.884 -2.6277 -1.8389  0.9240
12511TIP3    H258949   6.479   1.444   3.898 -0.3428 -0.6558  1.9009
12512TIP3   OH258950   3.375   0.109  12.601  0.6553 -0.1498  0.0608
12512TIP3    H158951   3.315   0.060  12.657  3.1523 -2.1656  1.1429
12512TIP3    H258952   3.363   0.070  12.514  0.0418 -0.1572  0.1413
12513TIP3   OH258953   0.685   0.959   6.019  0.0943 -0.1685 -0.2995
12513TIP3    H158954   0.726   0.958   6.106  1.4671 -0.0042 -0.9103
12513TIP3    H258955   0.759   0.951   5.958 -0.9537 -1.8806 -1.4280
12514TIP3   OH258956   5.652   1.818   2.306 -0.2519  0.6650  0.4164
12514TIP3    H158957   5.676   1.781   2.391  1.7360  1.2773  0.1746
12514TIP3    H258958   5.570   1.865   2.323 -0.6052 -0.3399  1.6608
12515TIP3   OH258959   5.255   3.767  12.676 -0.4871  0.2677 -0.4220
12515TIP3    H158960   5.240   3.856  12.645  3.0189  0.8121 -0.9596
12515TIP3    H258961   5.294   3.722  12.601  0.0756 -0.9942  0.5907
12516TIP3   OH258962   2.831   0.440  10.862  0.3124  0.1984  0.4108
12516TIP3    H158963   2.810   0.523  10.820  0.9035  0.2430  0.2035
12516TIP3    H258964   2.754   0.385  10.845  0.5686  0.1899 -0.7819
12517TIP3   OH258965   5.197   6.468   1.321 -0.4025  0.0596 -0.3260
12517TIP3    H158966   5.261   6.524   1.277 -0.3506 -0.1037 -0.4608
12517TIP3    H258967   5.112   6.511   1.304 -0.3446  0.1954 -0.2724
12518TIP3   OH258968   1.031   0.286   2.176 -0.4692 -0.1404 -0.4072
12518TIP3    H158969   0.979   0.206   2.168 -0.7513  0.2171 -2.6996
12518TIP3    H258970   1.068   0.300   2.089  2.4128  0.3698  0.7998
12519TIP3   OH258971   0.163   0.798  14.144  0.2658 -0.1581 -0.2543
12519TIP3    H158972   0.211   0.876  14.172  1.5993 -0.8038 -0.6575
12519TIP3    H258973   0.120   0.767  14.223  0.6488  0.3528  0.1632
12520TIP3   OH258974   4.965   5.348  15.296 -0.5096 -0.5791  0.4892
12520TIP3    H158975   5.017   5.293  15.236  0.4735  0.0180  0.7729
12520TIP3    H258976   4.874   5.324  15.278 -0.3319  0.4206 -2.0983
12521TIP3   OH258977   1.833   4.126   2.991 -0.2238  0.2723  0.1261
12521TIP3    H158978   1.875   4.061   3.047  0.1212  0.4081  0.0292
12521TIP3    H258979   1.876   4.117   2.907  0.2137  0.9923  0.2618
12522TIP3   OH258980   3.083   3.996  12.631 -1.0911  0.4784  0.3939
12522TIP3    H158981   3.043   4.056  12.693 -0.5573 -0.2381  1.4641
12522TIP3    H258982   3.141   4.051  12.578 -0.4874  0.8931  1.4614
12523TIP3   OH258983   1.011   2.876  11.852  0.2599  0.1071 -0.0440
12523TIP3    H158984   1.102   2.888  11.825  0.3273 -0.2133  0.0239
12523TIP3    H258985   1.014   2.879  11.948 -0.0773  1.8966 -0.0732
12524TIP3   OH258986   1.774   6.120  14.708 -0.4080  0.2771 -0.3681
12524TIP3    H158987   1.684   6.128  14.678 -0.4039  0.9726 -0.2219
12524TIP3    H258988   1.779   6.033  14.747 -1.2906  0.6019  0.5092
12525TIP3   OH258989   3.012   5.897   2.911 -0.1712 -0.2744  0.0431
12525TIP3    H158990   2.927   5.855   2.917  0.7347 -2.1197  0.7241
12525TIP3    H258991   3.068   5.832   2.867  0.8204  1.0011 -0.6528
12526TIP3   OH258992   6.662   4.657   2.397 -0.5985  0.3836  0.4205
12526TIP3    H158993   6.712   4.739   2.397 -0.0037  0.0402  1.4161
12526TIP3    H258994   6.608   4.662   2.319 -1.6262  2.3687  1.1735
12527TIP3   OH258995   3.899   4.993  13.300  0.0259 -0.0358 -0.3504
12527TIP3    H158996   3.844   4.969  13.226  0.2198 -0.8846 -0.2270
12527TIP3    H258997   3.841   4.986  13.376  0.4773 -1.6934 -0.1257
12528TIP3   OH258998   3.218   1.169   1.699 -0.3893 -0.1706  0.7778
12528TIP3    H158999   3.134   1.215   1.708  0.2709  0.6325  5.6313
12528TIP3    H259000   3.239   1.141   1.788  3.9387 -1.4781 -0.4348
12529TIP3   OH259001   2.817   1.984  14.158 -0.0038 -0.0709  0.8803
12529TIP3    H159002   2.767   1.941  14.227  0.1678 -1.8451 -0.0477
12529TIP3    H259003   2.797   2.077  14.169 -3.4391 -0.6338  0.6567
12530TIP3   OH259004   3.284   0.790  11.608 -0.0397 -0.0396 -0.8543
12530TIP3    H159005   3.264   0.841  11.687  0.2071 -1.8147  0.4225
12530TIP3    H259006   3.201   0.786  11.560 -0.6616 -0.4282  0.2206
12531TIP3   OH259007   0.632   2.285  14.137  0.2475 -0.1857  0.1157
12531TIP3    H159008   0.683   2.222  14.086  0.7292 -0.8029  1.3151
12531TIP3    H259009   0.684   2.299  14.216  0.3555  2.0587 -0.2867
12532TIP3   OH259010   4.802   6.244   2.519 -0.4705  0.3061 -0.2458
12532TIP3    H159011   4.733   6.297   2.559 -2.8382 -1.8229 -1.2243
12532TIP3    H259012   4.803   6.270   2.427  0.9153  1.1205 -0.0376
12533TIP3   OH259013   3.453   4.330   4.621 -0.7253 -0.1785  0.4407
12533TIP3    H159014   3.405   4.280   4.555  0.4300 -1.1995  0.3537
12533TIP3    H259015   3.398   4.325   4.699 -0.3887 -2.0450  0.5884
12534TIP3   OH259016   5.415   5.860  15.592 -0.2371 -0.5706 -0.7323
12534TIP3    H159017   5.322   5.875  15.611  0.2503  0.1436  1.4427
12534TIP3    H259018   5.431   5.770  15.618 -0.2139 -0.5317 -0.6120
12535TIP3   OH259019   5.535   2.159   3.949 -0.1977 -0.2033 -0.1095
12535TIP3    H159020   5.611   2.105   3.971 -0.0498 -0.0292 -0.1934
12535TIP3    H259021   5.513   2.133   3.859 -0.4780 -0.5329  0.0489
12536TIP3   OH259022   6.453   3.856  15.030 -0.2978  0.1702 -0.5321
12536TIP3    H159023   6.455   3.951  15.034  1.7695  0.2325 -1.6288
12536TIP3    H259024   6.462   3.827  15.121 -4.3205  0.8968  0.2805
12537TIP3   OH259025   5.888   4.934  16.962 -0.4855  0.4896 -0.4985
12537TIP3    H159026   5.905   4.969  17.049 -2.0527 -0.2691  0.1593
12537TIP3    H259027   5.828   4.997  16.922 -1.5766 -0.2830 -0.1340
12538TIP3   OH259028   5.060   2.131   5.216 -0.1289  0.7381 -0.2504
12538TIP3    H159029   5.151   2.147   5.242 -0.0231  1.6474 -1.1104
12538TIP3    H259030   5.066   2.099   5.126 -0.6514  0.7371 -0.2884
12539TIP3   OH259031   3.046   5.085   2.594  0.1707 -0.0559 -0.0304
12539TIP3    H159032   3.106   5.145   2.550  1.1282 -1.7967 -1.2286
12539TIP3    H259033   2.965   5.089   2.543  0.4014 -0.1654 -0.4053
12540TIP3   OH259034   6.495   5.143  12.980  0.1556 -0.1280  0.1416
12540TIP3    H159035   6.480   5.099  13.063 -1.4397  2.2090  1.2050
12540TIP3    H259036   6.410   5.180  12.956  1.2357  1.9012 -0.8878
12541TIP3   OH259037   1.562   5.634   1.035 -0.4208  0.2290 -0.5130
12541TIP3    H159038   1.618   5.711   1.028 -0.8281  0.4290 -1.7431
12541TIP3    H259039   1.488   5.653   0.978 -1.3693 -0.3651  0.4750
12542TIP3   OH259040   4.174   3.446  13.075  0.2426 -0.5626 -0.2626
12542TIP3    H159041   4.169   3.361  13.119 -1.9680 -0.3014  0.0720
12542TIP3    H259042   4.261   3.446  13.034  0.7916 -2.4465  0.7636
12543TIP3   OH259043   2.355   1.326   5.731  0.1841 -0.1101  0.0936
12543TIP3    H159044   2.396   1.240   5.717 -1.1806 -0.8994  0.7822
12543TIP3    H259045   2.296   1.336   5.657 -2.2637 -1.4018  1.7295
12544TIP3   OH259046   0.448   5.014   0.282  0.0300 -0.2582  0.2629
12544TIP3    H159047   0.394   5.049   0.211 -0.8210 -1.7318  0.1359
12544TIP3    H259048   0.516   5.080   0.296 -1.6654  1.5766  0.2865
12545TIP3   OH259049   0.357   1.469  15.400 -0.2590  0.4506 -0.1264
12545TIP3    H159050   0.346   1.517  15.318 -0.1790 -0.8929 -0.9544
12545TIP3    H259051   0.346   1.377  15.376 -0.4408  0.0370  1.4143
12546TIP3   OH259052   4.120   5.129  14.828 -0.4999 -0.0199 -0.3316
12546TIP3    H159053   4.086   5.192  14.891 -0.9141 -1.6702  1.1661
12546TIP3    H259054   4.045   5.110  14.772 -0.9544 -0.6828  0.4865
12547TIP3   OH259055   1.567   2.566   2.939 -0.0292 -0.2292 -0.0537
12547TIP3    H159056   1.648   2.613   2.921 -0.5123  0.2628 -1.0591
12547TIP3    H259057   1.556   2.571   3.034  0.6359  0.5214 -0.0064
12548TIP3   OH259058   1.468   0.831  13.639 -0.3406  0.3652 -0.5078
12548TIP3    H159059   1.400   0.871  13.585  0.9842  0.4931 -2.1760
12548TIP3    H259060   1.529   0.903  13.657  1.6736 -0.5704 -2.9046
12549TIP3   OH259061   2.586   2.280   6.312  0.2749  0.1932  0.1312
12549TIP3    H159062   2.664   2.280   6.257  1.6280  2.7192  1.8034
12549TIP3    H259063   2.518   2.322   6.259  0.2560 -1.2341 -1.0296
12550TIP3   OH259064   2.411   1.519  14.114  0.1100 -0.3742  0.1911
12550TIP3    H159065   2.434   1.427  14.100 -2.3836 -1.4365  2.2685
12550TIP3    H259066   2.495   1.564  14.122  1.4056 -2.6543  0.1464
12551TIP3   OH259067   0.378   2.158   4.086 -0.1199 -0.1588 -0.3308
12551TIP3    H159068   0.394   2.246   4.120 -0.9735 -0.4458  0.8714
12551TIP3    H259069   0.374   2.170   3.991  3.1532  0.5354 -0.5209
12552TIP3   OH259070   5.551   1.537   3.722 -0.1647  0.0839 -0.2894
12552TIP3    H159071   5.519   1.542   3.631 -1.0036  1.3246  0.0447
12552TIP3    H259072   5.472   1.551   3.775 -0.1862 -3.1509  0.7382
12553TIP3   OH259073   5.147   3.720   4.787  0.2916  0.0689  0.5384
12553TIP3    H159074   5.215   3.766   4.836 -0.9846  2.2615  0.3849
12553TIP3    H259075   5.145   3.763   4.702 -0.4366 -0.8130  0.0904
12554TIP3   OH259076   5.318   0.271   0.424  0.2637 -0.2250 -0.0049
12554TIP3    H159077   5.239   0.296   0.472 -0.1207 -1.4171 -0.0053
12554TIP3    H259078   5.290   0.266   0.333  0.7249  0.8836 -0.2345
12555TIP3   OH259079   2.907   5.223  16.030  0.7190 -0.0861  0.6658
12555TIP3    H159080   2.834   5.197  16.087  1.6324 -0.3577  1.7535
12555TIP3    H259081   2.884   5.188  15.944 -0.7377  0.4061  0.8275
12556TIP3   OH259082   1.609   3.742   1.162 -0.3077 -0.7104 -0.2682
12556TIP3    H159083   1.536   3.799   1.139  0.2765  0.7494  1.2901
12556TIP3    H259084   1.572   3.682   1.227 -0.4091 -0.7244 -0.3385
12557TIP3   OH259085   0.691   4.101  13.796 -0.5639  0.3946 -0.0459
12557TIP3    H159086   0.786   4.111  13.788 -0.7274  1.4839 -0.8656
12557TIP3    H259087   0.677   4.007  13.791  0.4068  0.2669 -0.9508
12558TIP3   OH259088   3.762   1.848   3.391 -0.3124 -0.3261  0.5878
12558TIP3    H159089   3.718   1.930   3.413  1.8034  1.6369 -1.8647
12558TIP3    H259090   3.828   1.837   3.459  1.1321  1.5273 -0.4295
12559TIP3   OH259091   1.865   2.369  13.978 -0.1906  0.6853  0.1260
12559TIP3    H159092   1.959   2.380  13.992 -0.0502 -1.1884  1.0328
12559TIP3    H259093   1.825   2.403  14.058  0.0287 -1.8507  1.4324
12560TIP3   OH259094   2.334   2.538  14.681 -0.1924 -0.2492 -0.1493
12560TIP3    H159095   2.302   2.450  14.702 -1.0732  0.3273  1.0318
12560TIP3    H259096   2.342   2.538  14.586 -0.1980 -1.5947 -0.1797
12561TIP3   OH259097   2.269   1.339   2.410 -0.4501 -0.2814 -0.1481
12561TIP3    H159098   2.245   1.378   2.494  0.7071  2.4486 -0.9681
12561TIP3    H259099   2.346   1.285   2.429  0.8252  1.6288  0.3598
12562TIP3   OH259100   3.056   6.221   2.254 -0.0080 -0.4477  0.5909
12562TIP3    H159101   2.968   6.260   2.257 -0.0111  0.0356 -2.4956
12562TIP3    H259102   3.042   6.134   2.216  0.9189  0.1902 -1.3329
12563TIP3   OH259103   5.241   6.206   4.414 -0.2996  0.3323  0.0171
12563TIP3    H159104   5.147   6.191   4.420 -0.7982  1.6179 -2.8724
12563TIP3    H259105   5.250   6.299   4.393  1.6503  0.2895  0.4071
12564TIP3   OH259106   6.788   2.440   4.457  0.8876  0.0264 -0.2717
12564TIP3    H159107   6.741   2.471   4.534  0.4993 -1.1591 -0.0013
12564TIP3    H259108   6.795   2.516   4.400  1.8068  1.1121  1.2201
12565TIP3   OH259109   4.628   6.414  15.412  0.2029  0.6418 -0.0620
12565TIP3    H159110   4.639   6.404  15.506 -0.7870  0.1976  0.0195
12565TIP3    H259111   4.702   6.467  15.384  0.9528  0.0898  0.8414
12566TIP3   OH259112   5.734   6.729   1.332  0.1538 -0.2407 -0.0244
12566TIP3    H159113   5.800   6.779   1.379 -1.4281  1.0572  0.9490
12566TIP3    H259114   5.782   6.686   1.262  2.3341 -0.8882  1.7306
12567TIP3   OH259115   2.974   6.492  14.560  0.1452 -0.0570 -0.0917
12567TIP3    H159116   3.002   6.405  14.588 -0.9126 -0.8338 -1.3426
12567TIP3    H259117   2.914   6.476  14.487  0.8438  1.7732 -1.1360
12568TIP3   OH259118   0.269   4.266  14.081  0.3179  0.1649  0.7113
12568TIP3    H159119   0.202   4.231  14.140 -3.2008  1.5107 -2.0738
12568TIP3    H259120   0.305   4.189  14.036  1.3915 -0.6508  2.8198
12569TIP3   OH259121   1.189   3.874  10.200  0.3010  0.7603 -0.2293
12569TIP3    H159122   1.257   3.907  10.259  0.4079  1.0878 -0.5329
12569TIP3    H259123   1.233   3.807  10.147  0.4553  1.1401 -0.5901
12570TIP3   OH259124   6.284   1.781  16.066  0.2638  0.4936  0.1631
12570TIP3    H159125   6.285   1.843  15.993  0.2913  1.0558  0.6335
12570TIP3    H259126   6.201   1.799  16.112  0.2504  0.1528  0.2783
12571TIP3   OH259127   6.101   3.306   3.411 -0.0455 -0.3250 -0.0472
12571TIP3    H159128   6.010   3.300   3.382 -0.0994  0.8472 -0.2032
12571TIP3    H259129   6.107   3.248   3.486 -0.9844 -0.2570  0.0897
12572TIP3   OH259130   0.188   1.058   2.780 -0.2041  0.2160 -0.0201
12572TIP3    H159131   0.100   1.056   2.743 -0.0090 -1.9457 -0.4869
12572TIP3    H259132   0.177   1.024   2.869  0.2946 -1.3049 -0.5092
12573TIP3   OH259133   6.364   1.243   4.839 -0.1444 -0.0774  0.5787
12573TIP3    H159134   6.332   1.333   4.836  0.3438  0.0924  0.3547
12573TIP3    H259135   6.415   1.238   4.920  3.4362  1.1224 -1.3555
12574TIP3   OH259136   5.289   1.733  14.073 -0.0567 -0.0280 -0.1549
12574TIP3    H159137   5.217   1.785  14.107 -1.1744 -0.9980 -0.9343
12574TIP3    H259138   5.264   1.713  13.982  1.5687  0.2727 -0.7177
12575TIP3   OH259139   0.350   3.085  13.497  0.5264  0.3827  0.3366
12575TIP3    H159140   0.294   3.080  13.419 -0.0008 -2.1725  0.7804
12575TIP3    H259141   0.291   3.116  13.566  0.7640  1.7808 -0.0773
12576TIP3   OH259142   3.629   2.108  11.753 -0.2569  0.1922  0.3865
12576TIP3    H159143   3.600   2.199  11.766  0.0201  0.3595 -0.1370
12576TIP3    H259144   3.678   2.110  11.671 -1.6081 -0.7281 -0.4944
12577TIP3   OH259145   5.955   0.423  16.464  0.4564 -0.1159  0.6480
12577TIP3    H159146   5.916   0.343  16.429  1.1176 -0.4126  0.5589
12577TIP3    H259147   6.030   0.440  16.406 -0.0414  0.9219  0.2877
12578TIP3   OH259148   5.368   0.785   1.692  0.0189  0.2279 -0.0165
12578TIP3    H159149   5.279   0.808   1.664 -0.2072 -0.7690 -0.1427
12578TIP3    H259150   5.380   0.833   1.775 -0.5249  0.5887 -0.1408
12579TIP3   OH259151   0.121   3.374   4.791  0.1512  0.2612 -0.5989
12579TIP3    H159152   0.215   3.380   4.811  0.5185 -0.3307 -2.0251
12579TIP3    H259153   0.114   3.299   4.732 -1.3468 -0.2061  0.1308
12580TIP3   OH259154   3.082   2.918  15.799 -0.0180  0.0171 -0.4177
12580TIP3    H159155   3.045   2.860  15.865 -0.4662  1.2709  0.4856
12580TIP3    H259156   3.022   2.913  15.725  0.3817 -1.2520 -0.6727
12581TIP3   OH259157   4.762   1.360  16.471 -0.3546 -0.4150  0.3973
12581TIP3    H159158   4.788   1.363  16.379  2.1446 -0.6170  1.0278
12581TIP3    H259159   4.710   1.440  16.484  0.5265  0.4001 -0.8598
12582TIP3   OH259160   2.776   2.011  14.463 -0.1896 -0.2599 -0.3845
12582TIP3    H159161   2.859   2.038  14.502 -0.0389 -2.2914  0.8504
12582TIP3    H259162   2.709   2.041  14.525 -0.1899 -0.6800 -0.1779
12583TIP3   OH259163   4.690   6.707  13.926 -0.4009  0.4503  0.4463
12583TIP3    H159164   4.644   6.654  13.992  1.4924 -1.0446  0.6340
12583TIP3    H259165   4.733   6.643  13.870 -0.3062  1.7662 -1.0259
12584TIP3   OH259166   0.209   3.720  15.206 -0.1385  0.0387 -0.1010
12584TIP3    H159167   0.124   3.678  15.221  0.5959 -1.2460  0.6643
12584TIP3    H259168   0.229   3.699  15.114  0.6377 -2.2059  0.5077
12585TIP3   OH259169   6.238   4.710   0.333  0.0724  0.8582  0.1818
12585TIP3    H159170   6.291   4.654   0.277 -1.4499  0.0303 -0.4811
12585TIP3    H259171   6.256   4.799   0.302  0.1657  0.4995 -0.8178
12586TIP3   OH259172   2.421   2.628   5.357 -0.1699 -0.3588  0.2114
12586TIP3    H159173   2.488   2.574   5.315 -1.1372 -1.2367 -0.2488
12586TIP3    H259174   2.380   2.570   5.421 -0.7109  0.0612  0.2512
12587TIP3   OH259175   0.980   2.491   0.157 -0.0394  0.3807 -0.3165
12587TIP3    H159176   1.020   2.414   0.116 -2.7728 -0.6638 -1.2686
12587TIP3    H259177   0.949   2.544   0.083 -1.7461  0.3434  0.3331
12588TIP3   OH259178   3.590   0.365  15.674  1.2199  0.3932 -0.0089
12588TIP3    H159179   3.535   0.414  15.735  0.4153 -1.3521  0.7255
12588TIP3    H259180   3.632   0.298  15.727 -2.5549 -3.8512 -1.6785
12589TIP3   OH259181   0.224   4.986  13.723 -0.0859  0.2535  0.4896
12589TIP3    H159182   0.218   4.897  13.689 -0.0605 -0.4580  2.2420
12589TIP3    H259183   0.309   5.018  13.694  0.8579 -1.1150  1.6427
12590TIP3   OH259184   5.250   4.058  11.951 -0.3546  0.2540 -0.1030
12590TIP3    H159185   5.303   4.105  12.016  0.5261  0.0064 -0.6228
12590TIP3    H259186   5.172   4.031  11.999 -0.6270  1.7573  0.3532
12591TIP3   OH259187   4.720   0.962   0.803 -0.0246 -0.0298  0.0051
12591TIP3    H159188   4.674   0.892   0.757  0.2305  0.8655 -1.7033
12591TIP3    H259189   4.807   0.925   0.820  0.8736  0.4905 -2.8335
12592TIP3   OH259190   4.079   2.545   3.725  0.2548  0.5917  0.2103
12592TIP3    H159191   4.057   2.623   3.777  0.2308  0.7815 -0.0868
12592TIP3    H259192   4.045   2.564   3.638  0.5063  0.3682  0.0636
12593TIP3   OH259193   2.668   0.730   2.255  0.2935  0.1079 -0.1528
12593TIP3    H159194   2.669   0.821   2.226 -1.0197 -0.2517 -1.4559
12593TIP3    H259195   2.667   0.735   2.350 -2.0235  1.5431 -0.1794
12594TIP3   OH259196   1.241   1.256   3.803  0.2165  0.3570  0.3475
12594TIP3    H159197   1.168   1.266   3.865  0.7373 -0.6152  1.1561
12594TIP3    H259198   1.201   1.262   3.717 -0.8572 -0.2993  0.7813
12595TIP3   OH259199   1.917   1.253  14.473  0.0045 -0.1299 -0.1967
12595TIP3    H159200   1.904   1.168  14.516 -1.0897  0.6532  1.0929
12595TIP3    H259201   1.990   1.293  14.520  0.2836 -0.1757 -0.5747
12596TIP3   OH259202   0.375   1.352  13.551 -0.3803  0.5057  0.7152
12596TIP3    H159203   0.283   1.338  13.531 -0.6933 -0.7741  2.8146
12596TIP3    H259204   0.383   1.447  13.560 -2.1458  0.5164  3.1416
12597TIP3   OH259205   3.483   2.982  12.905  0.4570  0.2600 -0.2264
12597TIP3    H159206   3.402   3.030  12.920  0.7970  0.9867 -0.6472
12597TIP3    H259207   3.456   2.892  12.892 -0.3240  0.5637 -0.7513
12598TIP3   OH259208   4.836   3.183  14.785  0.3337 -0.2686 -0.1691
12598TIP3    H159209   4.871   3.223  14.864  0.7543 -0.0811 -0.4464
12598TIP3    H259210   4.864   3.242  14.714 -2.3539  1.1397 -0.2124
12599TIP3   OH259211   5.867   0.763  14.231 -0.1250 -0.0754  0.7428
12599TIP3    H159212   5.871   0.688  14.290  0.6886 -0.3898  0.3012
12599TIP3    H259213   5.872   0.725  14.143  0.4331  0.5061  0.5147
12600TIP3   OH259214   1.792   4.828   2.904  0.1696  0.2799  0.2499
12600TIP3    H159215   1.830   4.914   2.888 -0.1232  0.3770  0.0603
12600TIP3    H259216   1.826   4.802   2.989  0.1280  0.6540  0.3834
12601TIP3   OH259217   2.608   6.479   3.619  0.8180 -0.0862  0.3564
12601TIP3    H159218   2.583   6.395   3.658  0.2089  0.8713  2.1383
12601TIP3    H259219   2.701   6.488   3.641  0.5329  0.3429  1.4481
12602TIP3   OH259220   2.224   5.823   4.579 -0.4198 -0.2029 -0.5038
12602TIP3    H159221   2.193   5.733   4.570  0.3421 -0.6244  0.8204
12602TIP3    H259222   2.314   5.814   4.610  0.6626  0.9966 -2.9619
12603TIP3   OH259223   0.591   1.526  16.752  0.0542 -0.4700  0.2963
12603TIP3    H159224   0.632   1.588  16.691  1.4212 -0.0561  1.5627
12603TIP3    H259225   0.497   1.542  16.743  0.3405  1.3638  0.1390
12604TIP3   OH259226   5.589   1.963   6.054 -0.3812 -0.6273 -0.6336
12604TIP3    H159227   5.618   1.872   6.045 -0.7019 -0.6058 -2.1680
12604TIP3    H259228   5.668   2.010   6.080 -0.5137 -1.5203  1.5564
12605TIP3   OH259229   3.339   4.640  13.567 -0.0194 -0.2451  0.0365
12605TIP3    H159230   3.292   4.585  13.629 -0.2677  0.3886  0.4187
12605TIP3    H259231   3.332   4.594  13.483  0.1541 -1.0039  0.4350
12606TIP3   OH259232   0.314   2.466   2.752 -0.4204 -0.0957 -0.1113
12606TIP3    H159233   0.395   2.489   2.797  0.0477 -1.1282 -0.4074
12606TIP3    H259234   0.250   2.453   2.822 -0.5802  1.5695  0.0860
12607TIP3   OH259235   6.460   1.238   5.216 -0.2864 -0.3884  0.2052
12607TIP3    H159236   6.490   1.261   5.304  1.7113 -1.5998 -0.1001
12607TIP3    H259237   6.532   1.263   5.159 -1.4918  0.2123 -1.1073
12608TIP3   OH259238   4.550   3.711   4.073  0.7086 -0.6900 -0.0089
12608TIP3    H159239   4.466   3.677   4.043 -0.4931  0.7528  1.5083
12608TIP3    H259240   4.565   3.668   4.157  1.1535 -0.4545  0.0353
12609TIP3   OH259241   5.097   0.310   0.757 -0.0111  0.1543 -0.4435
12609TIP3    H159242   5.187   0.341   0.760 -0.2438  1.2034 -2.3151
12609TIP3    H259243   5.048   0.377   0.805 -0.0699  0.9412 -1.5490
12610TIP3   OH259244   0.757   6.244   0.372  0.1450  0.0492  0.0133
12610TIP3    H159245   0.830   6.304   0.386  0.5453 -0.3753 -0.2628
12610TIP3    H259246   0.690   6.297   0.328  0.1488  0.5260  0.5661
12611TIP3   OH259247   4.253   6.424  16.926 -0.0947 -0.8789 -0.3915
12611TIP3    H159248   4.320   6.359  16.946  0.4447 -0.5341 -1.0556
12611TIP3    H259249   4.267   6.493  16.992  1.1622 -0.1255 -1.3927
12612TIP3   OH259250   3.750   4.358   3.286 -0.2770 -0.0418  0.8371
12612TIP3    H159251   3.800   4.336   3.207 -1.1189 -0.7923  0.4997
12612TIP3    H259252   3.740   4.453   3.282 -0.3980 -0.0814 -0.0170
12613TIP3   OH259253   0.789   1.491  14.218  0.4393 -0.1291  0.2418
12613TIP3    H159254   0.795   1.430  14.145  2.4047 -0.2889  0.5013
12613TIP3    H259255   0.771   1.436  14.295  3.7418 -0.7048  0.7517
12614TIP3   OH259256   5.422   2.306  14.585 -0.2742  0.2324  0.5594
12614TIP3    H159257   5.515   2.331  14.589 -0.3266  0.4662  0.3237
12614TIP3    H259258   5.375   2.389  14.582 -0.4246  0.1203 -0.8581
12615TIP3   OH259259   0.397   0.441   4.305 -0.7388 -0.6707 -0.1704
12615TIP3    H159260   0.373   0.377   4.238 -2.7265  1.6653 -1.8310
12615TIP3    H259261   0.448   0.507   4.258  0.8006 -0.6752  1.3863
12616TIP3   OH259262   2.947   3.427   1.439 -1.1818  0.4161 -0.0106
12616TIP3    H159263   2.964   3.511   1.396  0.4329 -0.0709 -0.3800
12616TIP3    H259264   2.882   3.384   1.382 -0.4243  0.5382 -0.9888
12617TIP3   OH259265   1.629   0.055  12.103  0.4140 -0.4896 -0.1108
12617TIP3    H159266   1.627   0.061  12.007  1.5196 -1.0889 -0.1847
12617TIP3    H259267   1.629   0.146  12.132  0.9136 -0.2888 -0.7054
12618TIP3   OH259268   2.485   6.788  11.076  0.4596 -0.3663 -0.0774
12618TIP3    H159269   2.578   6.812  11.080  0.5095 -0.6864  0.8935
12618TIP3    H259270   2.473   6.756  10.986  0.7073  1.9342 -1.0089
12619TIP3   OH259271   2.786   3.303   5.489  0.2919 -0.6253 -0.2624
12619TIP3    H159272   2.838   3.356   5.428 -1.2421  1.2335 -0.0439
12619TIP3    H259273   2.842   3.293   5.566  1.3322 -0.9713 -1.0454
12620TIP3   OH259274   2.003   0.374  16.127  0.0223 -0.5091 -0.4414
12620TIP3    H159275   2.028   0.285  16.152  0.6351 -0.4421 -0.8009
12620TIP3    H259276   1.919   0.388  16.172  0.5964 -0.7598  0.7541
12621TIP3   OH259277   4.451   6.013  11.961  0.1886 -0.6404 -0.1209
12621TIP3    H159278   4.534   6.030  11.917  0.6588 -1.1357  0.5479
12621TIP3    H259279   4.389   5.997  11.890  1.2788 -3.0730 -0.6515
12622TIP3   OH259280   2.796   2.528   4.938 -0.3062  0.7349  0.1009
12622TIP3    H159281   2.881   2.488   4.956 -0.0682  2.0078  2.1975
12622TIP3    H259282   2.806   2.567   4.851  0.8307 -0.1425 -0.1909
12623TIP3   OH259283   5.363   2.894  14.421 -0.9899  0.9175  1.1120
12623TIP3    H159284   5.270   2.874  14.430 -0.7689 -0.2016  1.0563
12623TIP3    H259285   5.368   2.949  14.342 -1.3135 -1.5784 -0.7791
12624TIP3   OH259286   2.303   4.274  12.554  0.4947  0.1796 -0.6272
12624TIP3    H159287   2.220   4.262  12.508 -0.0059 -1.3178  0.5812
12624TIP3    H259288   2.280   4.270  12.647  2.0959 -2.0362 -0.2406
12625TIP3   OH259289   1.328   5.814  12.947  0.0524  0.4619  0.3549
12625TIP3    H159290   1.267   5.742  12.929  1.7796 -1.3660  1.3943
12625TIP3    H259291   1.291   5.860  13.021 -0.3772 -0.2586  0.5968
12626TIP3   OH259292   4.893   3.816  11.764  0.5401 -0.6506  0.0137
12626TIP3    H159293   4.876   3.909  11.778  0.0045 -0.3411 -2.2345
12626TIP3    H259294   4.829   3.770  11.818  0.1659  0.3109  0.3908
12627TIP3   OH259295   4.093   3.583  15.137  0.2341  0.0280 -0.5309
12627TIP3    H159296   4.076   3.671  15.103  1.5152  0.2302 -0.7116
12627TIP3    H259297   4.086   3.592  15.232 -0.1187  0.2129 -0.5729
12628TIP3   OH259298   3.839   3.883   4.602  0.6042 -0.6051  0.6108
12628TIP3    H159299   3.750   3.867   4.634 -0.2228  1.1871 -0.5720
12628TIP3    H259300   3.877   3.942   4.667  0.4616 -0.3772  0.4910
12629TIP3   OH259301   0.230   0.242  11.733  0.4957 -0.0093 -0.9586
12629TIP3    H159302   0.285   0.285  11.798  0.7127 -0.0003 -1.1490
12629TIP3    H259303   0.264   0.271  11.649  0.3282 -0.1631 -1.0805
12630TIP3   OH259304   6.763   4.722   0.844  0.0566 -0.4883 -0.5634
12630TIP3    H159305   6.750   4.769   0.762 -1.4391  0.8015  0.3765
12630TIP3    H259306   6.704   4.647   0.838  0.5987 -0.8871 -1.0146
12631TIP3   OH259307   5.873   4.574   2.415 -0.4933  0.1772  0.6766
12631TIP3    H159308   5.845   4.624   2.339 -0.3674 -2.0950 -0.9834
12631TIP3    H259309   5.955   4.533   2.388 -0.3082 -0.4678  2.1316
12632TIP3   OH259310   6.301   0.336   5.551 -0.0076 -0.4224  0.4842
12632TIP3    H159311   6.220   0.304   5.590  0.2684 -0.7514  0.7940
12632TIP3    H259312   6.358   0.354   5.626  0.1830 -0.1253  0.2714
12633TIP3   OH259313   6.240   3.643  16.608  0.1689  0.1030  0.0397
12633TIP3    H159314   6.326   3.652  16.566 -0.3729  0.7047 -0.9725
12633TIP3    H259315   6.193   3.580  16.554 -0.2691  0.2945  0.1901
12634TIP3   OH259316   1.998   3.456  15.349  0.8125  0.2895  0.1945
12634TIP3    H159317   2.021   3.363  15.352 -1.2955 -0.4063 -2.1670
12634TIP3    H259318   1.995   3.477  15.256  0.2282  2.4808  0.6624
12635TIP3   OH259319   0.193   5.204  11.832 -0.6908  0.4601  0.0775
12635TIP3    H159320   0.155   5.161  11.908  0.3866 -1.4027 -0.3743
12635TIP3    H259321   0.135   5.182  11.759 -2.1066  2.8076  0.3827
12636TIP3   OH259322   0.826   4.885   3.186  0.1108  0.2431 -0.2234
12636TIP3    H159323   0.750   4.847   3.230  1.3465 -2.7878 -0.4203
12636TIP3    H259324   0.835   4.972   3.225 -1.8618 -0.3304  1.7514
12637TIP3   OH259325   4.848   6.185   3.700  0.5913  0.4039  0.4059
12637TIP3    H159326   4.768   6.204   3.748  0.6415  1.0398  0.2514
12637TIP3    H259327   4.887   6.110   3.746  0.8795  1.2875  1.6478
12638TIP3   OH259328   5.913   3.938   1.005  0.3587 -0.0122 -0.0252
12638TIP3    H159329   5.983   3.882   0.970  1.0205 -0.4564  1.8963
12638TIP3    H259330   5.834   3.887   0.994  0.7126 -0.5959  0.1027
12639TIP3   OH259331   3.558   6.479  14.414 -0.3846 -0.1414 -0.2455
12639TIP3    H159332   3.577   6.395  14.371 -0.2702 -0.2877  0.0864
12639TIP3    H259333   3.477   6.463  14.462 -0.1813 -0.1569  0.0880
12640TIP3   OH259334   2.272   5.463  11.858 -0.3478 -0.3568  0.3168
12640TIP3    H159335   2.281   5.549  11.898  0.1976 -0.2322 -0.0673
12640TIP3    H259336   2.358   5.423  11.867 -0.9531 -1.4304  1.7627
12641TIP3   OH259337   0.071   5.766  15.439  0.2775  0.1169  0.1199
12641TIP3    H159338   0.030   5.770  15.525  0.0617  2.0030 -0.0122
12641TIP3    H259339   0.002   5.736  15.380 -0.7612  2.3741  0.0545
12642TIP3   OH259340   5.936   1.605  14.774 -0.2484  0.0544 -0.0823
12642TIP3    H159341   5.882   1.596  14.695  1.0688  2.5421 -1.3833
12642TIP3    H259342   5.873   1.601  14.846 -1.6932 -0.7365 -1.3351
12643TIP3   OH259343   2.054   6.749  13.061  0.1773  0.4778 -0.2826
12643TIP3    H159344   2.084   6.660  13.080  0.2240  0.6089  0.2466
12643TIP3    H259345   1.960   6.746  13.076 -0.1179  0.0676 -1.9376
12644TIP3   OH259346   0.803   6.335  15.511  0.1058 -0.3471  0.0566
12644TIP3    H159347   0.856   6.412  15.533 -0.3487 -0.1850  0.6126
12644TIP3    H259348   0.823   6.272  15.580 -0.6749 -0.1560  0.4676
12645TIP3   OH259349   6.542   1.591   4.189 -0.2314 -0.5211  0.6005
12645TIP3    H159350   6.537   1.573   4.095  0.5911  1.7619  0.0614
12645TIP3    H259351   6.635   1.603   4.207 -0.5933  2.7858  0.8438
12646TIP3   OH259352   3.583   6.158   4.926 -0.0281  0.0092 -0.0640
12646TIP3    H159353   3.626   6.244   4.931 -0.9095  0.6190 -1.9666
12646TIP3    H259354   3.489   6.179   4.921 -0.2659 -1.0644 -0.4198
12647TIP3   OH259355   5.646   5.220  10.557 -0.0434 -0.2098 -0.5571
12647TIP3    H159356   5.641   5.150  10.491 -1.8813  0.3307 -1.0381
12647TIP3    H259357   5.555   5.242  10.576  0.3586 -0.8616  2.7837
12648TIP3   OH259358   5.576   5.236   0.295 -0.1954 -0.2181 -0.0630
12648TIP3    H159359   5.524   5.190   0.360 -0.0092  1.4433  1.3279
12648TIP3    H259360   5.513   5.269   0.232 -0.5382 -0.4305  0.1681
12649TIP3   OH259361   5.931   2.450  12.204 -0.0464  0.1467  0.6527
12649TIP3    H159362   5.954   2.542  12.194  0.5958  0.0923  1.5619
12649TIP3    H259363   5.836   2.451  12.219  0.0048  0.6837  0.9661
12650TIP3   OH259364   4.710   1.375  15.289 -0.1563  0.6865  0.0285
12650TIP3    H159365   4.727   1.285  15.318 -0.5885  0.6941  0.3149
12650TIP3    H259366   4.618   1.375  15.263 -0.0727  0.9679 -0.2790
12651TIP3   OH259367   1.836   2.647  10.515  0.2975  0.5544  0.3344
12651TIP3    H159368   1.757   2.697  10.537 -0.1574 -0.4006  0.9263
12651TIP3    H259369   1.907   2.711  10.522 -0.3623  1.3162  0.2684
12652TIP3   OH259370   5.735   3.665  11.515 -0.3801 -0.3301 -0.5131
12652TIP3    H159371   5.661   3.724  11.504 -0.9195 -1.1934 -1.6238
12652TIP3    H259372   5.812   3.719  11.493 -0.5616  0.7356  1.1986
12653TIP3   OH259373   0.520   0.081  11.180 -0.0182  0.3467  0.0136
12653TIP3    H159374   0.585   0.117  11.240 -0.1078  0.1868  0.2055
12653TIP3    H259375   0.438   0.125  11.202  0.0526  0.6525 -0.3240
12654TIP3   OH259376   5.185   3.316  15.407  0.0195  0.6305 -0.1475
12654TIP3    H159377   5.167   3.264  15.329  0.2758  0.7767 -0.3049
12654TIP3    H259378   5.255   3.268  15.453  2.0037  2.0533 -1.5273
12655TIP3   OH259379   6.742   5.583  16.557  0.0538  0.0111  0.7888
12655TIP3    H159380   6.745   5.550  16.468  2.4595 -1.3802  1.2755
12655TIP3    H259381   6.661   5.549  16.594 -0.3874 -0.3746 -0.5189
12656TIP3   OH259382   4.427   4.947   4.784  0.0170  0.0303 -0.3239
12656TIP3    H159383   4.424   5.041   4.802  1.9159 -0.2556  1.9639
12656TIP3    H259384   4.353   4.932   4.726 -1.2963  2.6962  0.4749
12657TIP3   OH259385   1.066   1.986   2.065  0.3655 -0.0205 -0.3566
12657TIP3    H159386   1.138   2.031   2.020  0.9287  0.0236  0.5478
12657TIP3    H259387   1.051   1.907   2.014  0.7990  0.1675 -0.7833
12658TIP3   OH259388   6.497   6.635  15.284 -0.2460  0.1756  0.1682
12658TIP3    H159389   6.562   6.672  15.344  0.2656  0.5673 -0.6110
12658TIP3    H259390   6.481   6.704  15.220 -0.2183 -0.5089 -0.5889
12659TIP3   OH259391   0.978   2.766  12.914 -0.5809 -0.1667 -0.2632
12659TIP3    H159392   1.070   2.772  12.889  0.0357 -1.9564  1.3039
12659TIP3    H259393   0.939   2.849  12.885  1.0920 -0.0993 -2.5479
12660TIP3   OH259394   5.671   2.362   4.937  0.3248  0.0294 -0.1866
12660TIP3    H159395   5.680   2.399   5.025  1.0775 -0.6208  0.0164
12660TIP3    H259396   5.663   2.439   4.880 -0.5769  0.4514  0.4755
12661TIP3   OH259397   4.944   0.248  15.911  0.2373  0.2694  0.5776
12661TIP3    H159398   4.921   0.259  16.004  0.4295 -0.4312  0.7144
12661TIP3    H259399   4.946   0.153  15.898 -1.5919  0.3357 -0.6007
12662TIP3   OH259400   0.157   3.407  11.917  0.1308  0.0659 -0.3214
12662TIP3    H159401   0.156   3.329  11.861 -1.2868 -0.5157  0.4513
12662TIP3    H259402   0.094   3.466  11.877 -1.3260 -0.5871  0.9250
12663TIP3   OH259403   2.290   5.358   3.351  0.5792 -0.4308 -0.0785
12663TIP3    H159404   2.356   5.300   3.387 -0.7035 -1.1807  1.1602
12663TIP3    H259405   2.251   5.308   3.279 -1.0311 -1.4824  1.4552
12664TIP3   OH259406   5.107   0.059   6.480 -0.3507 -0.4562  0.3856
12664TIP3    H159407   5.180   0.114   6.509  0.0269  0.0694 -1.4277
12664TIP3    H259408   5.148  -0.009   6.427 -1.2337  1.6120 -3.3336
12665TIP3   OH259409   1.629   5.532   0.043 -0.1179 -0.0202 -0.2152
12665TIP3    H159410   1.599   5.542  -0.047  0.6620 -0.4912 -0.5433
12665TIP3    H259411   1.724   5.518   0.035  0.6489  3.4749  0.8641
12666TIP3   OH259412   6.477   4.315  16.541 -0.1091  0.6167  0.5631
12666TIP3    H159413   6.389   4.346  16.558 -0.1320  0.1007  1.4204
12666TIP3    H259414   6.534   4.382  16.579 -0.0795  1.5867 -1.0670
12667TIP3   OH259415   2.677   1.116  13.718 -0.3778  0.5766  0.2639
12667TIP3    H159416   2.649   1.207  13.710 -1.3593  0.2993  0.3973
12667TIP3    H259417   2.687   1.086  13.627  3.3127  1.7539  0.1139
12668TIP3   OH259418   3.289   5.499   4.126 -0.3725  0.4449  0.8054
12668TIP3    H159419   3.287   5.456   4.041 -2.6280  0.4492  0.8215
12668TIP3    H259420   3.378   5.481   4.159  0.7489  0.9034 -1.7125
12669TIP3   OH259421   3.627   6.364  12.681 -0.1277 -0.1706  0.6482
12669TIP3    H159422   3.701   6.307  12.662 -0.5641 -0.2825 -0.7886
12669TIP3    H259423   3.596   6.394  12.596 -1.1238  0.6735  1.2740
12670TIP3   OH259424   3.539   3.797  10.994 -0.5272  0.5464  0.1632
12670TIP3    H159425   3.540   3.776  11.087 -0.2556 -0.5701 -0.0706
12670TIP3    H259426   3.600   3.734  10.955 -1.7608 -0.0069 -0.9642
12671TIP3   OH259427   2.952   0.797   1.543 -0.4239 -0.0340  0.5182
12671TIP3    H159428   2.990   0.765   1.625  0.2654  1.4043  0.7792
12671TIP3    H259429   3.021   0.785   1.478 -0.4159  0.2752  0.4706
12672TIP3   OH259430   2.581   1.065  14.589 -0.3151  0.1435  0.6685
12672TIP3    H159431   2.559   0.982  14.631  0.1852 -0.5121 -0.3200
12672TIP3    H259432   2.498   1.100  14.559 -0.3027 -1.4624 -1.5019
12673TIP3   OH259433   4.420   4.287  11.690  0.2195  0.6458  0.1592
12673TIP3    H159434   4.391   4.373  11.721  1.3856  1.4524 -0.9084
12673TIP3    H259435   4.373   4.224  11.746 -0.4789  1.9681  1.1026
12674TIP3   OH259436   4.713   5.930  10.338 -0.3116  0.5543 -0.0834
12674TIP3    H159437   4.725   5.847  10.292 -1.7635  0.0795  0.3340
12674TIP3    H259438   4.777   5.928  10.409 -1.2527 -0.8862  0.7882
12675TIP3   OH259439   2.677   5.346  15.426 -0.4904  0.0391  0.0526
12675TIP3    H159440   2.653   5.263  15.385 -0.3363 -0.7145  1.4288
12675TIP3    H259441   2.747   5.323  15.487  0.4912  1.4249 -0.5230
12676TIP3   OH259442   3.153   4.305   5.120 -0.7155 -0.6002 -0.3879
12676TIP3    H159443   3.091   4.239   5.150 -0.8489 -1.2615 -2.0013
12676TIP3    H259444   3.121   4.329   5.033  0.1548  0.5436 -0.4098
12677TIP3   OH259445   1.763   6.204   3.843  0.1901 -0.0020 -0.3553
12677TIP3    H159446   1.697   6.178   3.908  0.9556  1.3241  1.0147
12677TIP3    H259447   1.843   6.162   3.873  0.1223 -1.1532 -1.7045
12678TIP3   OH259448   0.655   4.870  13.871 -0.3520  0.2006 -0.7426
12678TIP3    H159449   0.632   4.923  13.947  1.4910  0.0147 -0.0078
12678TIP3    H259450   0.623   4.783  13.890  1.3131 -0.1872  0.5092
12679TIP3   OH259451   3.885   1.589   0.615  0.4868  0.4675  0.1048
12679TIP3    H159452   3.791   1.607   0.608  0.6118  0.6342 -1.2909
12679TIP3    H259453   3.890   1.510   0.669 -0.4026  0.8822  0.8188
12680TIP3   OH259454   1.913   3.612   3.957  0.2546  0.6113 -0.0311
12680TIP3    H159455   1.847   3.601   4.025  2.0880 -0.3549  1.6950
12680TIP3    H259456   1.874   3.674   3.896 -2.2152  0.1001  0.8942
12681TIP3   OH259457   1.836   3.857   1.782 -0.1257  0.0277 -0.4259
12681TIP3    H159458   1.898   3.887   1.849  0.5938 -1.4944 -0.3585
12681TIP3    H259459   1.834   3.927   1.717  0.1022  0.9911  0.5897
12682TIP3   OH259460   3.331   4.567  14.795  0.3888 -0.3510  0.9714
12682TIP3    H159461   3.426   4.556  14.799  0.7368  1.3601 -1.0592
12682TIP3    H259462   3.316   4.627  14.722 -2.2556 -0.3549  1.3968
12683TIP3   OH259463   2.125   6.191   5.160  0.3096 -0.7360  1.1527
12683TIP3    H159464   2.104   6.254   5.229 -1.0428 -2.4930  2.4635
12683TIP3    H259465   2.141   6.109   5.207  3.9878 -1.0544 -0.3218
12684TIP3   OH259466   1.307   4.843  16.631 -0.5464  0.1024  0.5708
12684TIP3    H159467   1.301   4.830  16.725  1.9461  0.0347  0.7741
12684TIP3    H259468   1.378   4.786  16.603 -1.4912 -0.1863 -1.4477
12685TIP3   OH259469   5.779   5.540   1.221 -0.5005  0.4013  0.0933
12685TIP3    H159470   5.857   5.493   1.253 -1.0387 -0.5090  0.0822
12685TIP3    H259471   5.766   5.508   1.132 -0.7936  0.6890  0.0310
12686TIP3   OH259472   1.140   0.746   2.832 -0.2217  0.0144 -0.2489
12686TIP3    H159473   1.155   0.656   2.859 -1.1717  0.4300  1.8593
12686TIP3    H259474   1.228   0.785   2.829  0.1048 -0.7011 -0.1876
12687TIP3   OH259475   0.798   4.556   2.089  0.8550  0.5225  0.1202
12687TIP3    H159476   0.736   4.620   2.126  0.2325 -0.3195  0.5725
12687TIP3    H259477   0.876   4.608   2.069  0.5288  1.3496  0.8812
12688TIP3   OH259478   4.806   4.708   1.848 -0.6084 -0.4720  0.1266
12688TIP3    H159479   4.817   4.625   1.894  0.0228 -1.9292 -2.4525
12688TIP3    H259480   4.713   4.710   1.824 -0.6592 -0.3430  0.3311
12689TIP3   OH259481   4.668   4.230   1.998 -0.2788 -0.2085  0.4330
12689TIP3    H159482   4.577   4.259   1.996 -0.1935  0.1731 -2.2505
12689TIP3    H259483   4.665   4.141   1.962  0.6360  0.9876 -2.9733
12690TIP3   OH259484   3.610   5.008   6.548  0.3564 -0.0741 -0.0226
12690TIP3    H159485   3.633   5.047   6.632  0.5457 -0.4693  0.1112
12690TIP3    H259486   3.541   4.945   6.570 -0.1045  0.3360 -0.2682
12691TIP3   OH259487   2.325   3.758   1.568 -0.0597  0.0520 -0.4177
12691TIP3    H159488   2.330   3.722   1.480  1.4448 -2.1410  0.4846
12691TIP3    H259489   2.307   3.683   1.625 -1.9147  1.5433  1.0936
12692TIP3   OH259490   6.058   6.700  12.365 -0.0967 -0.3332  0.2916
12692TIP3    H159491   6.070   6.706  12.271 -1.4111  0.0040  0.1280
12692TIP3    H259492   5.966   6.675  12.376 -0.1070  0.1825  1.4958
12693TIP3   OH259493   4.144   4.042  11.324 -0.0064  0.2692 -0.3938
12693TIP3    H159494   4.195   4.102  11.378 -1.2313 -0.2855  1.5043
12693TIP3    H259495   4.209   3.989  11.279  1.2188 -1.2350  2.8432
12694TIP3   OH259496   4.368   6.700   2.762  0.2608  0.1031 -0.1860
12694TIP3    H159497   4.403   6.672   2.847 -0.9351  0.6349  0.5060
12694TIP3    H259498   4.354   6.619   2.713 -1.0385 -0.3831  0.9350
12695TIP3   OH259499   0.397   4.050   3.205  0.7294 -0.2809 -0.2546
12695TIP3    H159500   0.373   4.143   3.206 -0.7000 -0.6317  0.2559
12695TIP3    H259501   0.492   4.050   3.193  0.4939  1.1900 -2.9909
12696TIP3   OH259502   1.244   0.261   5.128 -0.8065  0.1498  0.4874
12696TIP3    H159503   1.197   0.331   5.174  1.5204  1.6882  0.7359
12696TIP3    H259504   1.324   0.249   5.179  0.2685 -0.5372 -1.2668
12697TIP3   OH259505   5.052   0.320   1.734 -0.1924 -0.0592  0.5704
12697TIP3    H159506   5.107   0.288   1.662 -1.8006  1.4781 -1.4747
12697TIP3    H259507   5.025   0.241   1.780  1.8676 -1.0037  0.2789
12698TIP3   OH259508   4.655   2.967   1.970  0.4219 -0.1884  0.4617
12698TIP3    H159509   4.739   2.976   1.925  0.4657 -0.0333  0.5737
12698TIP3    H259510   4.660   2.881   2.012  1.9011  1.1403  3.2637
12699TIP3   OH259511   4.491   1.665   2.292 -0.0545  0.1694 -0.4404
12699TIP3    H159512   4.562   1.638   2.233 -0.0812  0.4507 -0.6032
12699TIP3    H259513   4.533   1.722   2.355 -0.0265 -0.1328 -0.1824
12700TIP3   OH259514   1.560   4.795  15.218  0.3037  0.6843 -0.2058
12700TIP3    H159515   1.488   4.842  15.259 -0.0574 -0.8910  1.0468
12700TIP3    H259516   1.630   4.797  15.283  0.0878 -0.9501  0.1111
12701TIP3   OH259517   1.401   4.428  11.830  0.3792  0.2514 -0.2678
12701TIP3    H159518   1.485   4.456  11.866  0.6408 -1.8537  0.8889
12701TIP3    H259519   1.338   4.491  11.865  1.0085 -0.1689  1.7542
12702TIP3   OH259520   3.353   2.206   2.874 -0.8941  0.2968 -0.2128
12702TIP3    H159521   3.383   2.238   2.789  0.1789  1.5650  0.6017
12702TIP3    H259522   3.384   2.271   2.937  0.5303 -1.8067  1.4476
12703TIP3   OH259523   2.988   1.585   6.651  0.0437 -0.0920 -0.7792
12703TIP3    H159524   3.013   1.631   6.731  0.9641 -1.4541 -0.2648
12703TIP3    H259525   2.911   1.632   6.620 -0.0492  0.7441  0.6480
12704TIP3   OH259526   0.602   4.796   2.533  0.3338 -0.5284  0.2516
12704TIP3    H159527   0.633   4.824   2.619  1.9489 -0.3647 -0.3562
12704TIP3    H259528   0.562   4.710   2.549 -0.0657 -0.1721  1.2659
12705TIP3   OH259529   4.641   0.862  16.907  0.0559 -0.3543 -0.4145
12705TIP3    H159530   4.668   0.928  16.842  3.7806 -1.1392  0.0788
12705TIP3    H259531   4.659   0.904  16.991 -1.2025 -0.6748  0.0205
12706TIP3   OH259532   1.117   6.052   4.288 -0.2519  0.2603  0.0506
12706TIP3    H159533   1.136   6.124   4.348  0.6574 -0.2875  0.4421
12706TIP3    H259534   1.112   6.093   4.201 -2.3352  1.1810  0.5546
12707TIP3   OH259535   3.447   2.257  13.234 -0.0359 -0.0746  0.1909
12707TIP3    H159536   3.412   2.185  13.286  0.5087  0.3896  1.2205
12707TIP3    H259537   3.430   2.336  13.286 -0.2936  0.5178 -0.7485
12708TIP3   OH259538   5.829   3.958   2.907  0.0153 -0.0847 -0.4997
12708TIP3    H159539   5.746   3.989   2.870 -0.5176 -0.6809  0.1612
12708TIP3    H259540   5.886   4.035   2.905 -0.9863  0.7015  0.2346
12709TIP3   OH259541   5.341   5.444  14.045 -0.2112 -0.1220 -0.2010
12709TIP3    H159542   5.257   5.484  14.070  0.3951  0.4992  0.9765
12709TIP3    H259543   5.317   5.370  13.989 -1.6205 -0.6664  1.0441
12710TIP3   OH259544   5.557   6.701  11.618  0.1347  0.4120 -0.0368
12710TIP3    H159545   5.508   6.760  11.675 -2.5538 -2.1310  0.5398
12710TIP3    H259546   5.616   6.655  11.676 -0.2147  0.1587  0.1204
12711TIP3   OH259547   1.751   3.856  14.062 -0.2429  0.0366 -0.6124
12711TIP3    H159548   1.680   3.865  14.126 -0.7653  1.6827 -1.3505
12711TIP3    H259549   1.749   3.764  14.037 -1.1766 -0.2635  0.4404
12712TIP3   OH259550   5.223   3.904  15.786 -0.4606 -0.1244  0.4902
12712TIP3    H159551   5.255   3.990  15.812 -0.8901  0.3573 -0.5204
12712TIP3    H259552   5.152   3.922  15.724  0.7757 -1.1932 -1.3508
12713TIP3   OH259553   3.896   5.612   4.703 -0.6165 -0.0762 -0.0998
12713TIP3    H159554   3.925   5.698   4.671 -0.0423 -0.2327  0.0061
12713TIP3    H259555   3.906   5.554   4.627  0.0686 -0.2930  0.1506
12714TIP3   OH259556   5.073   1.242  11.716 -0.3579  0.1476 -0.4364
12714TIP3    H159557   5.061   1.176  11.648 -3.5948  1.3822 -1.2650
12714TIP3    H259558   5.046   1.198  11.797 -1.2336  0.0590 -0.7689
12715TIP3   OH259559   3.336   0.641   0.858  0.5187  0.0529  0.0594
12715TIP3    H159560   3.392   0.682   0.792 -0.1174  0.2706 -0.3588
12715TIP3    H259561   3.256   0.694   0.859 -1.8220 -2.9161 -2.9540
12716TIP3   OH259562   4.246   5.831  12.945  0.0867 -0.2793 -0.1730
12716TIP3    H159563   4.288   5.790  13.021 -0.5759  0.5476  0.6789
12716TIP3    H259564   4.222   5.919  12.976 -0.7115 -0.1323 -1.1541
12717TIP3   OH259565   4.818   3.481   2.823  0.0220 -0.0061  0.6659
12717TIP3    H159566   4.898   3.437   2.851 -0.1190  0.4043  1.7882
12717TIP3    H259567   4.749   3.415   2.831  0.3100 -0.5070 -0.7861
12718TIP3   OH259568   2.096   0.515  12.813 -0.3647  0.4524  0.2455
12718TIP3    H159569   2.146   0.593  12.792 -0.1892  1.0588  2.6422
12718TIP3    H259570   2.007   0.533  12.781  0.0407  0.9481 -0.6239
12719TIP3   OH259571   5.801   5.586   5.194  0.2899 -0.4828 -0.2318
12719TIP3    H159572   5.768   5.497   5.203  0.7213 -0.5546  0.7065
12719TIP3    H259573   5.786   5.608   5.102  3.3180 -2.8119 -1.4625
12720TIP3   OH259574   3.626   4.135  12.640 -0.0598 -0.0102  0.0866
12720TIP3    H159575   3.569   4.073  12.684  0.7441 -0.4251  0.5667
12720TIP3    H259576   3.679   4.173  12.710 -0.6504  1.3604 -0.1640
12721TIP3   OH259577   4.194   6.439   3.488  0.4256  0.4841  0.2024
12721TIP3    H159578   4.252   6.370   3.458  0.3890  0.6148 -0.1803
12721TIP3    H259579   4.108   6.416   3.452 -0.0086 -0.2981  1.6827
12722TIP3   OH259580   0.192   6.798   4.762 -0.3692 -0.1977  0.1480
12722TIP3    H159581   0.262   6.772   4.822 -0.7292  0.6727  0.9686
12722TIP3    H259582   0.140   6.860   4.812 -0.8373  0.3461 -0.9911
12723TIP3   OH259583   0.852   0.520  10.896  0.0192 -0.6884  0.1863
12723TIP3    H159584   0.918   0.483  10.954  0.2995 -0.9170 -0.2708
12723TIP3    H259585   0.899   0.584  10.843 -0.5626  0.7507  1.3256
12724TIP3   OH259586   4.847   3.507  10.905  0.0720  0.1309  0.0592
12724TIP3    H159587   4.768   3.455  10.895  0.2758  0.2929 -3.6938
12724TIP3    H259588   4.817   3.598  10.906  0.0501  0.1681  2.3386
12725TIP3   OH259589   1.602   4.517  16.171  0.1731  0.1790  0.3962
12725TIP3    H159590   1.658   4.493  16.245 -0.4870 -0.7146  0.6213
12725TIP3    H259591   1.651   4.485  16.094  0.2514 -0.0587  0.5432
12726TIP3   OH259592   5.689   3.489   5.516 -0.1455  0.1323  0.5758
12726TIP3    H159593   5.739   3.425   5.567  1.1344  1.0552  0.5156
12726TIP3    H259594   5.609   3.441   5.490  0.8658 -1.5112  0.3240
12727TIP3   OH259595   5.897   4.136   2.096  0.2809  0.4595  0.3162
12727TIP3    H159596   5.859   4.057   2.135 -0.6818  0.7707  0.0162
12727TIP3    H259597   5.972   4.103   2.046  0.2498 -0.1936  0.6858
12728TIP3   OH259598   6.470   5.718  12.325 -0.3274 -0.2696  0.0461
12728TIP3    H159599   6.463   5.740  12.232  0.9857 -1.0045 -0.2532
12728TIP3    H259600   6.510   5.795  12.365  0.3386 -0.4571 -0.2452
12729TIP3   OH259601   3.958   6.544   5.512  0.4730  0.3179  0.4980
12729TIP3    H159602   3.876   6.592   5.505  1.2094  1.6593  0.7342
12729TIP3    H259603   3.999   6.579   5.591  2.4072  1.5096 -0.9379
12730TIP3   OH259604   6.230   3.513  15.695 -0.3622  0.1356  0.1621
12730TIP3    H159605   6.307   3.570  15.703  0.2515 -0.2933 -1.9634
12730TIP3    H259606   6.197   3.529  15.606 -2.4250 -0.1003  0.8324
12731TIP3   OH259607   4.659   5.649   2.452 -0.1172 -0.4566  0.0963
12731TIP3    H159608   4.717   5.634   2.527  0.1355 -0.5913 -0.1234
12731TIP3    H259609   4.694   5.593   2.383 -0.9849 -1.1420  0.1975
12732TIP3   OH259610   3.911   5.458   1.709  0.5880  0.1683  0.1671
12732TIP3    H159611   3.851   5.527   1.736  0.6961  1.0599 -1.7151
12732TIP3    H259612   3.998   5.495   1.723  0.6883 -0.2600  0.7381
12733TIP3   OH259613   0.762   2.350   5.405  0.3893 -0.5530 -0.4069
12733TIP3    H159614   0.793   2.367   5.494 -0.1676 -3.6764  0.4768
12733TIP3    H259615   0.785   2.430   5.356  0.9078  1.1565  2.4329
12734TIP3   OH259616   3.297   0.381   2.870  0.1515  0.1574 -0.5832
12734TIP3    H159617   3.223   0.387   2.809 -0.2267 -0.4152 -0.1913
12734TIP3    H259618   3.352   0.312   2.833  0.6449  0.7621 -1.0187
12735TIP3   OH259619   3.517   4.260   0.281  0.1264 -0.2530  0.0136
12735TIP3    H159620   3.453   4.220   0.340 -0.2336 -1.0944 -0.9131
12735TIP3    H259621   3.562   4.325   0.334 -0.9431 -0.2179  0.9128
12736TIP3   OH259622   2.218   0.465   2.932  0.4353  0.0807 -0.1960
12736TIP3    H159623   2.223   0.505   3.019  1.1927 -0.4357  0.0106
12736TIP3    H259624   2.131   0.426   2.928 -0.2126  1.4737 -0.2910
12737TIP3   OH259625   0.395   5.210   5.358 -0.6324 -0.3956 -0.5758
12737TIP3    H159626   0.473   5.239   5.406  0.1630  0.2930 -2.2237
12737TIP3    H259627   0.324   5.218   5.422  0.2743  1.0840  0.3244
12738TIP3   OH259628   2.266   5.281  13.097 -0.0757  0.5495 -0.6151
12738TIP3    H159629   2.234   5.202  13.053 -1.3657  0.0381  1.1004
12738TIP3    H259630   2.360   5.281  13.082  0.3867 -2.7741  1.4568
12739TIP3   OH259631   2.911   5.361   6.378 -0.1160  0.0999 -0.2645
12739TIP3    H159632   2.930   5.435   6.322  0.7141  0.4498  0.4565
12739TIP3    H259633   2.987   5.304   6.370 -1.9996 -2.2858 -3.2348
12740TIP3   OH259634   5.415   3.636  12.042 -0.8424  0.3284  0.2618
12740TIP3    H159635   5.333   3.673  12.075 -0.2730  2.6631 -0.7194
12740TIP3    H259636   5.484   3.680  12.092 -0.1380 -1.0314  0.5379
12741TIP3   OH259637   4.147   0.562   4.019  0.5287  0.0636  0.2170
12741TIP3    H159638   4.227   0.533   3.976  1.3313  1.4772  0.7308
12741TIP3    H259639   4.145   0.513   4.102  1.0395  0.2965  0.3654
12742TIP3   OH259640   0.716   5.227  11.625 -0.2846  0.9222  0.0595
12742TIP3    H159641   0.624   5.205  11.638 -0.5208  1.9182  0.1951
12742TIP3    H259642   0.763   5.145  11.637 -1.1977  0.3029 -0.5257
12743TIP3   OH259643   3.143   5.698  14.829  0.1589  0.8198  0.1624
12743TIP3    H159644   3.122   5.791  14.838  2.3067  1.2775  1.3122
12743TIP3    H259645   3.192   5.677  14.908  0.3753 -1.1153 -0.4251
12744TIP3   OH259646   0.858   0.081  12.759 -0.7936  0.3807  0.2474
12744TIP3    H159647   0.772   0.057  12.794 -0.6857 -1.0714 -0.4049
12744TIP3    H259648   0.906   0.116  12.834 -1.8245  0.8967  0.6867
12745TIP3   OH259649   5.663   2.438  14.529  0.9939  0.1201 -0.4024
12745TIP3    H159650   5.739   2.458  14.473  0.7742  0.2335 -0.6643
12745TIP3    H259651   5.594   2.496  14.496  0.0112 -1.7979 -1.8808
12746TIP3   OH259652   0.638   5.484  10.287  0.0916  0.1478 -0.0068
12746TIP3    H159653   0.701   5.551  10.313  1.0669 -0.8090  0.2000
12746TIP3    H259654   0.645   5.417  10.355 -0.5430 -0.3573 -0.4269
12747TIP3   OH259655   1.553   0.881  16.799  0.0604  0.6468 -0.3103
12747TIP3    H159656   1.547   0.954  16.737  2.4581 -0.1992 -1.6829
12747TIP3    H259657   1.558   0.922  16.885 -1.4745  1.9357 -0.7961
12748TIP3   OH259658   1.608   1.914  14.856 -0.1282 -0.1011 -0.2460
12748TIP3    H159659   1.668   1.936  14.785  0.8120  0.6394  0.7391
12748TIP3    H259660   1.523   1.947  14.827 -0.1369 -1.2828 -1.7217
12749TIP3   OH259661   3.659   2.732   2.500 -0.3838 -0.9814  0.4973
12749TIP3    H159662   3.605   2.668   2.453  1.0613 -2.1860  0.3680
12749TIP3    H259663   3.714   2.771   2.431  0.6535 -1.6257  0.9268
12750TIP3   OH259664   0.549   4.341  15.559 -0.8303  0.4479 -0.0340
12750TIP3    H159665   0.521   4.250  15.561 -0.7138  0.4171  1.6276
12750TIP3    H259666   0.487   4.386  15.617 -0.2364  1.2095  0.0268
12751TIP3   OH259667   3.452   0.671   1.371 -0.3714  0.0837  0.3210
12751TIP3    H159668   3.458   0.693   1.278 -1.5795 -1.9860 -0.3012
12751TIP3    H259669   3.446   0.756   1.415  1.4587  1.1719 -1.3332
12752TIP3   OH259670   5.562   5.068  10.936 -0.2757 -0.4255  0.0306
12752TIP3    H159671   5.491   5.118  10.896 -0.5005 -1.1173 -0.4681
12752TIP3    H259672   5.517   4.997  10.983  0.0784 -1.1721 -0.7155
12753TIP3   OH259673   1.721   5.436  13.585 -0.1138 -0.5308  0.4564
12753TIP3    H159674   1.629   5.423  13.560  0.5222 -2.1795 -1.2401
12753TIP3    H259675   1.771   5.384  13.522  1.9154 -1.2415  2.5272
12754TIP3   OH259676   1.499   4.677   3.625 -0.3671 -0.3869 -0.5055
12754TIP3    H159677   1.427   4.734   3.597 -1.1831  0.2813  2.5850
12754TIP3    H259678   1.577   4.733   3.622 -0.4630 -0.2870 -1.2127
12755TIP3   OH259679   4.409   3.240  16.555 -0.2608  0.2793  0.3680
12755TIP3    H159680   4.504   3.234  16.550 -0.4291 -2.0238 -1.1411
12755TIP3    H259681   4.385   3.178  16.624 -0.6111  2.5466  2.4340
12756TIP3   OH259682   1.866   5.774   3.584  0.3968  0.2336  0.5097
12756TIP3    H159683   1.944   5.827   3.596 -0.1237  0.7686  1.7131
12756TIP3    H259684   1.808   5.800   3.656 -1.6643  1.2188 -1.3844
12757TIP3   OH259685   1.017   0.567   2.291 -0.4345 -0.0362 -0.5326
12757TIP3    H159686   0.986   0.648   2.250  0.7645  0.5810 -0.2595
12757TIP3    H259687   1.009   0.501   2.223 -2.3789  0.0634 -0.4616
12758TIP3   OH259688   0.399   4.301   4.229 -0.0914 -0.1564 -0.3892
12758TIP3    H159689   0.471   4.304   4.166 -0.6609 -1.0622 -1.1050
12758TIP3    H259690   0.442   4.291   4.314  0.6624  0.4205 -0.6940
12759TIP3   OH259691   1.613   2.166   3.302 -0.1579 -0.1922  0.0761
12759TIP3    H159692   1.552   2.220   3.252 -1.0260  0.2879  1.5765
12759TIP3    H259693   1.679   2.138   3.238 -2.2044 -1.1908 -1.7582
12760TIP3   OH259694   5.248   2.798  13.066  0.0131  0.3886  0.0813
12760TIP3    H159695   5.160   2.764  13.082  0.4678 -0.0160  2.0452
12760TIP3    H259696   5.263   2.860  13.137  1.3411  0.3870 -0.1649
12761TIP3   OH259697   4.292   0.579   4.957  0.8589  0.3744  0.4122
12761TIP3    H159698   4.310   0.630   4.879 -0.0577 -1.0040 -0.7458
12761TIP3    H259699   4.363   0.602   5.017  1.1825  1.9904 -0.5393
12762TIP3   OH259700   1.033   3.980   4.760 -0.2059 -0.4480 -0.2647
12762TIP3    H159701   1.119   3.968   4.801 -0.2808  1.3926  0.5645
12762TIP3    H259702   1.053   4.012   4.672 -0.0162  0.1741 -0.0039
12763TIP3   OH259703   5.832   1.211   6.394  1.2578 -0.0486 -0.7172
12763TIP3    H159704   5.898   1.171   6.338  2.1524  1.3256 -0.6732
12763TIP3    H259705   5.877   1.230   6.476  0.7404  0.6609 -0.5873
12764TIP3   OH259706   5.489   5.011   4.382  0.4151 -0.3007 -0.1452
12764TIP3    H159707   5.536   4.965   4.452 -1.1539 -0.3211  0.9300
12764TIP3    H259708   5.407   5.039   4.422 -0.2189  0.3152 -1.7930
12765TIP3   OH259709   6.620   1.769  15.217 -0.3002 -0.0749  0.2405
12765TIP3    H159710   6.547   1.831  15.215  0.0218  0.3382  0.7761
12765TIP3    H259711   6.640   1.759  15.310 -0.0292 -0.6058  0.1243
12766TIP3   OH259712   0.837   0.994  13.795 -0.7310  0.3888  0.3273
12766TIP3    H159713   0.757   1.047  13.792 -1.3856 -0.5932 -0.9603
12766TIP3    H259714   0.820   0.928  13.863 -1.7194 -0.7863 -0.9882
12767TIP3   OH259715   0.537   3.523  10.780  0.1692  0.6888  0.1035
12767TIP3    H159716   0.572   3.470  10.852  0.3686 -0.2776 -0.6829
12767TIP3    H259717   0.443   3.503  10.780  0.3742 -0.4019 -0.7510
12768TIP3   OH259718   5.484   2.321   0.829 -0.0521  0.0111 -0.9056
12768TIP3    H159719   5.496   2.414   0.849  0.7067 -0.0828 -0.8989
12768TIP3    H259720   5.516   2.312   0.739 -0.6630 -0.1345 -1.1098
12769TIP3   OH259721   2.815   3.964   5.385 -0.7045  0.4469  0.4298
12769TIP3    H159722   2.777   3.952   5.297 -2.0675  2.2131  0.7083
12769TIP3    H259723   2.858   4.049   5.381 -0.9837  0.6552  1.5283
12770TIP3   OH259724   3.507   4.891  13.463  0.6050 -0.3545  0.2460
12770TIP3    H159725   3.453   4.813  13.473  2.3670 -1.4673  1.8468
12770TIP3    H259726   3.524   4.896  13.369 -0.5257 -1.1882 -0.0267
12771TIP3   OH259727   1.325   0.993  14.808 -0.0275 -0.4865  0.1506
12771TIP3    H159728   1.272   0.954  14.739 -0.1295 -0.1080  0.0180
12771TIP3    H259729   1.369   0.918  14.849  0.8020 -0.6272 -0.9520
12772TIP3   OH259730   5.967   2.290  15.514  0.2698 -0.2445  0.1651
12772TIP3    H159731   5.936   2.212  15.468  1.2997 -0.0008 -0.9800
12772TIP3    H259732   5.950   2.363  15.453  2.6960 -0.0614 -0.3882
12773TIP3   OH259733   4.684   4.434  12.544  0.1709 -0.4125  0.3888
12773TIP3    H159734   4.730   4.350  12.543  3.3037  1.1359  1.4627
12773TIP3    H259735   4.743   4.494  12.589 -0.3646  3.2085 -3.1473
12774TIP3   OH259736   0.646   0.690  14.363  0.3807 -0.5954 -0.2852
12774TIP3    H159737   0.689   0.643  14.433 -0.5114  0.5542  1.0950
12774TIP3    H259738   0.553   0.691  14.388  0.2596  1.1456 -0.6621
12775TIP3   OH259739   2.801   6.405   0.681 -0.2642  0.1768  0.1645
12775TIP3    H159740   2.841   6.393   0.595  1.3646 -2.5681  1.1761
12775TIP3    H259741   2.711   6.429   0.663  0.0688 -0.2455 -2.3168
12776TIP3   OH259742   2.027   5.400  14.475 -0.1677  0.6093 -0.5957
12776TIP3    H159743   2.065   5.348  14.405 -1.0277  3.3075 -3.3067
12776TIP3    H259744   2.071   5.370  14.555  0.4835 -2.9830 -2.1253
12777TIP3   OH259745   0.702   2.761   0.829  0.5197  0.4417 -0.6478
12777TIP3    H159746   0.624   2.806   0.795 -0.1659 -1.1828 -1.3235
12777TIP3    H259747   0.725   2.810   0.909 -2.1013  0.0880  0.4217
12778TIP3   OH259748   1.119   1.782  14.116  0.2062  0.6583 -0.1772
12778TIP3    H159749   1.204   1.806  14.153  0.9330  0.1445 -1.4397
12778TIP3    H259750   1.098   1.698  14.157 -0.1973  1.2486  0.8788
12779TIP3   OH259751   5.372   5.549  13.311  0.3381 -0.3217 -0.1016
12779TIP3    H159752   5.361   5.570  13.218 -0.4992 -0.4991 -0.0419
12779TIP3    H259753   5.319   5.471  13.325 -1.1487  0.8415  0.9786
12780TIP3   OH259754   2.322   5.073   1.636 -0.0463 -0.2384 -0.5468
12780TIP3    H159755   2.323   5.169   1.642  2.7907 -0.2064 -0.1518
12780TIP3    H259756   2.320   5.055   1.543  0.1722  0.2156 -0.6416
12781TIP3   OH259757   6.386   6.682   3.128 -0.3657 -0.2852 -0.0968
12781TIP3    H159758   6.374   6.670   3.034  2.1838 -0.6769 -0.4503
12781TIP3    H259759   6.319   6.745   3.153 -0.4396  0.6359 -2.3835
12782TIP3   OH259760   5.917   6.527   2.840  0.2381  0.3425  0.2704
12782TIP3    H159761   5.874   6.475   2.908 -1.0661  0.4431 -0.4450
12782TIP3    H259762   5.883   6.615   2.851  2.2106  1.0302  1.2742
12783TIP3   OH259763   1.756   6.573  14.333  0.2295  0.1196  0.1881
12783TIP3    H159764   1.709   6.656  14.327  0.2918  0.2517  1.2822
12783TIP3    H259765   1.705   6.512  14.280 -0.8903  0.3890  0.9363
12784TIP3   OH259766   1.987   3.464  15.079 -0.2616  0.5766 -0.1761
12784TIP3    H159767   2.011   3.557  15.086 -0.2834  0.4433  2.8596
12784TIP3    H259768   1.893   3.465  15.062 -0.4488  1.1441  0.8059
12785TIP3   OH259769   3.104   1.797   3.301 -0.5286 -0.3616 -0.2766
12785TIP3    H159770   3.165   1.725   3.286  0.1359  0.4246 -1.5370
12785TIP3    H259771   3.025   1.773   3.252 -0.3047 -0.2307 -0.7030
12786TIP3   OH259772   1.592   1.477  10.715  0.9944 -0.1218  0.0654
12786TIP3    H159773   1.512   1.431  10.690  1.6249 -1.4506  0.3746
12786TIP3    H259774   1.575   1.510  10.804  0.6360 -0.0060 -0.0463
12787TIP3   OH259775   5.343   1.363   3.081 -0.5713 -0.1589 -0.1313
12787TIP3    H159776   5.435   1.380   3.059 -0.0776 -1.4398  0.8456
12787TIP3    H259777   5.328   1.273   3.053 -1.5447  0.0442 -0.2943
12788TIP3   OH259778   6.486   1.932   6.250 -0.2333 -0.4021 -0.4374
12788TIP3    H159779   6.412   1.899   6.199 -0.2038 -1.3675  0.1272
12788TIP3    H259780   6.552   1.863   6.244  0.0788 -0.1683  0.2368
12789TIP3   OH259781   5.029   5.694  16.903 -0.7020  0.6156  0.0378
12789TIP3    H159782   4.942   5.665  16.929  0.6243 -3.6726  0.3619
12789TIP3    H259783   5.042   5.657  16.816  0.5908  1.7641 -0.2949
12790TIP3   OH259784   4.607   6.341  14.111 -0.4064  0.0084  0.3274
12790TIP3    H159785   4.665   6.416  14.125 -1.4863  0.8714  0.2872
12790TIP3    H259786   4.607   6.328  14.016 -0.5709  0.2446  0.2947
12791TIP3   OH259787   5.957   5.205   0.961 -0.8948  0.1926  0.4817
12791TIP3    H159788   5.949   5.192   1.056  0.0303  2.0545  0.8497
12791TIP3    H259789   5.925   5.294   0.947  0.3213  0.4549 -0.7524
12792TIP3   OH259790   0.958   5.476  13.561 -0.2154  0.1153 -0.1640
12792TIP3    H159791   1.053   5.485  13.550  0.1791 -2.4370  0.4593
12792TIP3    H259792   0.936   5.539  13.630  0.7144  1.8801 -1.4155
12793TIP3   OH259793   4.284   6.501   1.077  0.3615  0.0084  0.3287
12793TIP3    H159794   4.340   6.468   1.147 -0.1357  1.2580  1.3586
12793TIP3    H259795   4.195   6.486   1.108  0.1291  0.4419 -0.1117
12794TIP3   OH259796   1.112   3.811  15.930 -0.0544 -0.3643 -0.7810
12794TIP3    H159797   1.022   3.840  15.912 -0.2893 -1.7421 -2.1015
12794TIP3    H259798   1.117   3.806  16.025 -1.9789 -1.9149 -0.7015
12795TIP3   OH259799   5.705   2.480  13.057 -1.1685  0.4347  0.5049
12795TIP3    H159800   5.700   2.486  13.153 -1.1367  0.9805  0.4756
12795TIP3    H259801   5.614   2.471  13.029 -1.0824 -1.2743  0.6697
12796TIP3   OH259802   1.710   6.643  13.918 -0.2271 -0.0566 -0.2419
12796TIP3    H159803   1.712   6.701  13.993 -0.7965 -0.7271  0.3047
12796TIP3    H259804   1.785   6.670  13.864 -0.3257  0.9888  0.1280
12797TIP3   OH259805   1.858   5.748   2.734  0.0524 -0.2135  0.4139
12797TIP3    H159806   1.844   5.804   2.811  1.6756 -0.4141  0.8940
12797TIP3    H259807   1.842   5.806   2.659 -0.7193  0.2091  0.8995
12798TIP3   OH259808   6.731   5.260   3.933 -0.0696  0.1527 -0.5467
12798TIP3    H159809   6.748   5.351   3.910 -0.8839  0.6825  0.8341
12798TIP3    H259810   6.816   5.216   3.925  0.5062  1.2205 -0.3725
12799TIP3   OH259811   3.137   2.298  12.954  0.2156 -0.0011  0.3550
12799TIP3    H159812   3.080   2.262  12.885 -0.2041  0.4272  0.4722
12799TIP3    H259813   3.162   2.222  13.006 -1.3023 -0.0635  1.0731
12800TIP3   OH259814   5.768   6.419  11.372  0.2485 -0.1416  0.3020
12800TIP3    H159815   5.802   6.436  11.284  0.4310 -0.9299  0.2121
12800TIP3    H259816   5.673   6.425  11.363  0.3173  1.9215  0.5210
12801TIP3   OH259817   0.797   5.813  15.939  0.1590 -0.0022 -0.3718
12801TIP3    H159818   0.729   5.751  15.965  0.4725  0.3738  1.4955
12801TIP3    H259819   0.767   5.849  15.856 -1.3903 -0.6393 -0.1153
12802TIP3   OH259820   6.047   5.372   5.754  0.0713  0.0660 -0.7489
12802TIP3    H159821   5.963   5.347   5.715 -0.2943  0.7820 -0.4204
12802TIP3    H259822   6.033   5.459   5.789  0.6831 -0.1766  0.1395
12803TIP3   OH259823   5.938   5.513  15.279  0.2203  0.2370  0.6125
12803TIP3    H159824   5.895   5.580  15.226  0.2209  0.5786  1.0365
12803TIP3    H259825   5.947   5.553  15.366 -3.2095 -1.6263  2.0162
12804TIP3   OH259826   6.456   0.018   0.648 -0.2314 -0.1860  0.3705
12804TIP3    H159827   6.476  -0.015   0.561 -1.1309  0.5524 -0.1292
12804TIP3    H259828   6.437   0.111   0.635  0.6976  0.1949  1.5210
12805TIP3   OH259829   4.446   5.882   4.164 -0.2032  0.1673  0.0094
12805TIP3    H159830   4.388   5.813   4.196 -0.1097  0.3257  0.5437
12805TIP3    H259831   4.515   5.836   4.115  0.1847 -0.1790  0.8575
12806TIP3   OH259832   0.181   4.999   4.210  0.5643 -0.6159 -0.0691
12806TIP3    H159833   0.244   4.927   4.218  0.4084 -0.6851  0.5510
12806TIP3    H259834   0.107   4.973   4.265  0.4425 -0.0493  0.0395
12807TIP3   OH259835   3.995   0.647   3.795 -0.3719  0.0799 -0.1032
12807TIP3    H159836   3.997   0.743   3.787  0.7637  0.0575 -0.2067
12807TIP3    H259837   4.027   0.629   3.883  1.4995 -0.2700 -0.8147
12808TIP3   OH259838   5.690   6.567   3.029  0.1577  0.5370  0.4004
12808TIP3    H159839   5.743   6.644   3.052 -0.8388  1.0760  0.9445
12808TIP3    H259840   5.664   6.530   3.113 -0.5231  0.4209  0.1435
12809TIP3   OH259841   3.036   4.138   3.043  0.0888  0.0316  0.1907
12809TIP3    H159842   3.078   4.083   3.110  3.1558  3.5734  1.4926
12809TIP3    H259843   3.085   4.122   2.963 -0.4335 -0.6232 -0.0121
12810TIP3   OH259844   3.930   5.809   1.550 -0.0033 -0.1222 -0.5048
12810TIP3    H159845   3.926   5.840   1.640 -1.7031  0.6557 -0.8047
12810TIP3    H259846   3.938   5.889   1.497  0.5237 -0.5393 -1.0771
12811TIP3   OH259847   6.644   0.323  14.445 -0.1122 -0.4826 -0.6928
12811TIP3    H159848   6.576   0.377  14.485  0.5354  0.5567 -0.9706
12811TIP3    H259849   6.711   0.314  14.514 -0.1784 -0.8614 -0.6758
12812TIP3   OH259850   4.239   5.830   3.800  0.4086 -0.4228 -0.1272
12812TIP3    H159851   4.239   5.908   3.855 -1.4911 -0.9648  0.7307
12812TIP3    H259852   4.173   5.847   3.733 -0.6969 -1.6102  0.6120
12813TIP3   OH259853   0.822   5.238   5.283  0.0976 -0.6220 -0.7607
12813TIP3    H159854   0.783   5.199   5.205  1.3565 -0.8154 -1.3118
12813TIP3    H259855   0.913   5.253   5.259  0.4414 -0.4612  0.5975
12814TIP3   OH259856   1.095   1.326   0.897  0.5802 -0.9037  0.3329
12814TIP3    H159857   1.052   1.255   0.943 -1.5416  0.2152  0.2137
12814TIP3    H259858   1.186   1.322   0.925 -0.0497 -2.0125  2.3865
12815TIP3   OH259859   3.036   1.483  16.234  1.2231 -0.1301  0.7311
12815TIP3    H159860   3.105   1.418  16.242  0.9575 -0.4482  0.4411
12815TIP3    H259861   3.026   1.497  16.140  0.4903 -0.5236  0.7396
12816TIP3   OH259862   4.238   0.240   0.719  0.1363 -0.3405  0.6251
12816TIP3    H159863   4.319   0.277   0.683 -0.2535 -1.1093 -1.0893
12816TIP3    H259864   4.168   0.289   0.676 -0.3375 -1.1464  0.4689
12817TIP3   OH259865   1.110   6.638  13.410  0.0368  0.2513 -0.4841
12817TIP3    H159866   1.171   6.610  13.341 -0.5432 -0.3426 -0.7623
12817TIP3    H259867   1.026   6.602  13.384 -0.1959  0.0162  0.5487
12818TIP3   OH259868   6.539   3.101   1.120 -0.0465 -0.4952  0.2238
12818TIP3    H159869   6.581   3.173   1.073  1.0934 -0.7877  0.7712
12818TIP3    H259870   6.528   3.133   1.209 -1.9442 -0.0506 -0.1192
12819TIP3   OH259871   1.319   0.393  10.893 -0.0054  0.1422  0.1160
12819TIP3    H159872   1.329   0.314  10.840  0.3326  0.0264  0.3507
12819TIP3    H259873   1.273   0.455  10.836  2.2491  0.8026 -1.1038
12820TIP3   OH259874   5.183   6.172  10.896 -0.2285  0.0152 -0.2440
12820TIP3    H159875   5.264   6.145  10.938 -1.0466 -1.7162  0.3181
12820TIP3    H259876   5.188   6.136  10.807 -0.3077  0.0408 -0.2589
12821TIP3   OH259877   6.006   4.238  11.733  0.7972 -0.0465  0.6731
12821TIP3    H159878   6.053   4.158  11.710 -1.1750 -0.9262 -0.6425
12821TIP3    H259879   5.937   4.245  11.666  1.4819  3.3038  0.1143
12822TIP3   OH259880   4.817   0.343   1.376  0.4192 -0.2820 -0.5509
12822TIP3    H159881   4.747   0.296   1.331 -0.3175 -0.1434  0.4228
12822TIP3    H259882   4.799   0.436   1.360 -1.6159 -0.0531  2.4527
12823TIP3   OH259883   1.448   5.709   0.648  0.1301 -0.2404 -0.4586
12823TIP3    H159884   1.458   5.736   0.740  1.0401  0.2100 -0.6838
12823TIP3    H259885   1.356   5.730   0.628 -0.0397 -0.2030  0.3040
12824TIP3   OH259886   2.159   5.077   5.996  0.2295  0.0895  0.1715
12824TIP3    H159887   2.230   5.024   6.033 -0.8204 -2.6940 -1.5036
12824TIP3    H259888   2.165   5.063   5.901 -0.6666  2.3435 -0.2928
12825TIP3   OH259889   0.863   4.935   4.699 -0.0747 -0.5897  0.4112
12825TIP3    H159890   0.942   4.984   4.677 -0.6178 -0.5705 -1.7385
12825TIP3    H259891   0.791   4.995   4.680 -0.6845 -1.6225 -0.7725
12826TIP3   OH259892   0.966   5.571   4.406  0.2060  0.2430 -0.0101
12826TIP3    H159893   0.966   5.549   4.499  2.1347 -1.1193 -0.2592
12826TIP3    H259894   1.019   5.650   4.399 -1.7285  1.6319  0.2242
12827TIP3   OH259895   0.135   3.793  12.006 -0.2417 -0.0354  0.3941
12827TIP3    H159896   0.165   3.785  11.916 -1.4485 -1.4799  0.0810
12827TIP3    H259897   0.145   3.705  12.043  1.0454  0.7091  1.9724
12828TIP3   OH259898   1.943   1.792  13.194 -0.6435 -0.0026 -0.6697
12828TIP3    H159899   1.931   1.698  13.187 -0.4275 -0.1386  0.4645
12828TIP3    H259900   1.983   1.818  13.111  0.1768 -1.0680 -0.6341
12829TIP3   OH259901   6.300   3.794   2.172 -0.5428 -0.0099  0.2662
12829TIP3    H159902   6.252   3.877   2.180 -0.5520 -0.1857  2.6111
12829TIP3    H259903   6.291   3.752   2.257  1.9003 -1.1163  0.0724
12830TIP3   OH259904   0.980   1.396  15.367  0.1750 -0.1965  0.1618
12830TIP3    H159905   0.959   1.308  15.334  2.0913 -1.5491  2.2694
12830TIP3    H259906   0.895   1.433  15.391 -0.6164 -1.8529  0.0772
12831TIP3   OH259907   1.885   1.739  15.993 -0.1429  0.3943  0.6764
12831TIP3    H159908   1.898   1.747  16.087  1.0068  0.5205  0.5205
12831TIP3    H259909   1.886   1.644  15.977  3.8717  0.3209  0.3176
12832TIP3   OH259910   5.654   0.874   0.798 -0.1360 -0.1333 -0.4267
12832TIP3    H159911   5.624   0.857   0.708 -1.1744  1.7683 -0.4965
12832TIP3    H259912   5.596   0.943   0.829  2.7135  2.1199  0.2953
12833TIP3   OH259913   5.335   0.599  11.990  0.2643  0.2666 -0.0324
12833TIP3    H159914   5.351   0.517  11.945 -1.0655  0.5816 -1.1499
12833TIP3    H259915   5.242   0.597  12.013  0.1500  1.5188 -0.2670
12834TIP3   OH259916   1.097   1.063  13.833  0.0612  0.2896  0.0262
12834TIP3    H159917   1.157   0.989  13.823 -0.1315 -0.4448  3.3544
12834TIP3    H259918   1.015   1.032  13.795  0.0232 -1.2116  1.2511
12835TIP3   OH259919   1.672   4.920  12.761 -0.1907  0.1311  0.1141
12835TIP3    H159920   1.672   4.951  12.851 -1.1139 -0.1759  0.2380
12835TIP3    H259921   1.649   4.996  12.708 -1.8204 -0.1523  0.3582
12836TIP3   OH259922   3.033   3.297  11.376  0.1815  0.2478  0.1674
12836TIP3    H159923   3.071   3.320  11.461  1.5665 -2.3020  0.3382
12836TIP3    H259924   3.066   3.363  11.316  0.3970  1.2449  1.3403
12837TIP3   OH259925   3.395   4.248  12.029 -0.3945 -0.5072  0.1294
12837TIP3    H159926   3.395   4.339  12.000  2.3456 -0.3598  0.3463
12837TIP3    H259927   3.354   4.250  12.116  2.0366  1.0383  1.3385
12838TIP3   OH259928   5.742   3.046  15.494  0.2096 -0.1364  0.0738
12838TIP3    H159929   5.686   3.046  15.416 -0.7239 -0.9188  0.7223
12838TIP3    H259930   5.822   3.091  15.466 -1.0915  1.8371 -0.6141
12839TIP3   OH259931   6.294   0.877   3.004 -0.1610  0.3831 -0.4244
12839TIP3    H159932   6.309   0.945   3.069  0.1904  1.2539 -1.3928
12839TIP3    H259933   6.309   0.795   3.051 -0.3719  0.9717  0.6993
12840TIP3   OH259934   5.919   1.944  15.775  0.7138 -0.9890 -0.2486
12840TIP3    H159935   5.972   1.979  15.703 -1.6742  1.4877 -0.9729
12840TIP3    H259936   5.880   1.864  15.740  1.8218 -1.3857 -0.6295
12841TIP3   OH259937   6.029   6.127  14.547 -0.4541  0.3276  0.1566
12841TIP3    H159938   6.119   6.155  14.531 -0.4414  0.2082  0.0133
12841TIP3    H259939   5.976   6.174  14.483 -0.2568 -1.0667 -1.0908
12842TIP3   OH259940   5.541   3.764   5.640 -0.4650  0.3094  0.6494
12842TIP3    H159941   5.505   3.718   5.564 -1.3276  1.0031  0.6291
12842TIP3    H259942   5.591   3.837   5.602  0.5454 -0.3258  0.7006
12843TIP3   OH259943   1.090   0.426  16.882  0.3521 -0.0139  0.0686
12843TIP3    H159944   1.026   0.358  16.902  0.5421  0.2517  1.7969
12843TIP3    H259945   1.046   0.508  16.907  0.6153  0.3691 -0.6908
12844TIP3   OH259946   4.731   1.470   1.433 -0.1013 -0.2968  0.0673
12844TIP3    H159947   4.685   1.518   1.502 -1.4912 -3.2241  1.3485
12844TIP3    H259948   4.822   1.498   1.441 -0.7939  2.0683  0.6759
12845TIP3   OH259949   3.286   3.169   3.437 -0.1352 -0.3913 -0.2714
12845TIP3    H159950   3.310   3.254   3.474 -0.6789 -0.2534 -0.2380
12845TIP3    H259951   3.299   3.180   3.343 -1.1050  0.0297 -0.3655
12846TIP3   OH259952   0.233   5.800   4.661  0.1467 -0.5403 -0.3309
12846TIP3    H159953   0.306   5.846   4.620 -0.3314  0.6769  0.1524
12846TIP3    H259954   0.220   5.723   4.606  0.5496  0.2249 -1.5404
12847TIP3   OH259955   2.556   2.168   5.469 -0.3681  0.4632  0.0527
12847TIP3    H159956   2.493   2.104   5.501 -1.6031  1.3429 -0.5739
12847TIP3    H259957   2.641   2.132   5.495 -1.0669 -1.0857  0.3107
12848TIP3   OH259958   4.370   1.701  16.662 -0.5400 -0.4057 -0.5137
12848TIP3    H159959   4.343   1.702  16.570  1.2881 -0.0561 -1.0865
12848TIP3    H259960   4.357   1.791  16.691 -1.2857 -0.5566 -0.3730
12849TIP3   OH259961   1.046   6.345  13.044 -0.2317 -0.0189  0.6236
12849TIP3    H159962   1.104   6.294  13.100 -1.6534 -1.6451  0.6775
12849TIP3    H259963   1.074   6.324  12.954  0.4568  0.7037  0.6461
12850TIP3   OH259964   3.998   0.678   1.216 -0.5159  0.7315  0.0589
12850TIP3    H159965   3.913   0.636   1.197 -0.7766  1.5364 -0.5988
12850TIP3    H259966   3.976   0.768   1.237  0.0927  0.6721  0.9928
12851TIP3   OH259967   5.602   5.518   5.665 -0.0303 -0.0558  0.0396
12851TIP3    H159968   5.509   5.496   5.675  0.1024 -0.7623 -0.2208
12851TIP3    H259969   5.602   5.609   5.636 -0.7519 -0.6651 -2.0864
12852TIP3   OH259970   1.843   3.939   4.581 -0.2795 -0.1947 -0.3163
12852TIP3    H159971   1.788   3.899   4.514  1.4864  1.1392 -2.7121
12852TIP3    H259972   1.913   3.875   4.596  0.7614  0.5761 -1.7399
12853TIP3   OH259973   3.488   0.184   2.844 -0.3933 -0.3364  0.2841
12853TIP3    H159974   3.563   0.179   2.784  0.5246 -1.5188  1.4597
12853TIP3    H259975   3.508   0.258   2.901 -1.1024  0.5735 -0.6026
12854TIP3   OH259976   4.524   6.353   3.643  0.3595  0.0383 -0.0536
12854TIP3    H159977   4.550   6.331   3.554  0.6369  2.0593 -0.5192
12854TIP3    H259978   4.572   6.434   3.663 -1.2896  0.7889  1.1260
12855TIP3   OH259979   6.049   4.379  12.296 -0.4638 -0.0305 -0.1551
12855TIP3    H159980   6.126   4.330  12.268  0.1614  0.6129  0.3873
12855TIP3    H259981   6.085   4.456  12.341 -1.4010  0.9977 -1.0981
12856TIP3   OH259982   0.454   1.720  14.619  0.4469 -0.4456  0.1695
12856TIP3    H159983   0.433   1.814  14.624  0.0042 -0.6109  2.8421
12856TIP3    H259984   0.460   1.702  14.525  2.4390  2.6550 -0.4495
12857TIP3   OH259985   2.494   0.249  13.582 -0.0283  0.0956  0.0076
12857TIP3    H159986   2.552   0.271  13.509  0.6955  0.1742  0.5916
12857TIP3    H259987   2.474   0.156  13.570 -0.7644  0.3576 -0.8688
12858TIP3   OH259988   4.092   4.593  16.396  0.1006  0.2147 -0.5875
12858TIP3    H159989   4.173   4.619  16.440 -0.2098  0.3676 -0.0931
12858TIP3    H259990   4.093   4.498  16.399 -0.2279  0.2342  0.3387
12859TIP3   OH259991   3.353   2.340   1.587 -0.1753  0.7209 -0.8036
12859TIP3    H159992   3.276   2.393   1.568 -0.5591  0.5365  0.1447
12859TIP3    H259993   3.318   2.256   1.619  0.4178  0.2777 -1.2791
12860TIP3   OH259994   4.893   2.857  14.397 -0.0325  0.1540 -0.6271
12860TIP3    H159995   4.878   2.952  14.398 -1.0698 -0.0035  1.0326
12860TIP3    H259996   4.979   2.846  14.437  0.0922  0.3918 -0.8282
12861TIP3   OH259997   4.798   6.520   4.078 -0.4992  0.0085  0.2068
12861TIP3    H159998   4.815   6.430   4.107  0.3117  0.0073 -0.2564
12861TIP3    H259999   4.875   6.569   4.104 -0.4328  0.3266 -0.5521
12862TIP3   OH260000   5.487   6.662   1.782 -0.1573  0.2895 -0.3651
12862TIP3    H160001   5.480   6.749   1.742  0.7803 -0.0531 -1.2881
12862TIP3    H260002   5.572   6.629   1.755  0.5506  0.0443  1.9432
12863TIP3   OH260003   5.609   0.620   3.182 -0.0249  0.1184 -0.4869
12863TIP3    H160004   5.526   0.591   3.221  0.7111 -1.0469  0.2650
12863TIP3    H260005   5.583   0.656   3.097 -1.2157 -1.1179 -0.7013
12864TIP3   OH260006   3.079   1.459   6.425  0.7684  0.1417 -0.2504
12864TIP3    H160007   3.005   1.515   6.402  0.8249  0.2318 -0.2133
12864TIP3    H260008   3.091   1.472   6.520  3.0518  2.8582 -0.7519
12865TIP3   OH260009   2.722   1.570  15.000  0.8376  0.2013  0.6173
12865TIP3    H160010   2.775   1.527  15.067  1.5954  0.5169  0.2313
12865TIP3    H260011   2.772   1.648  14.977  0.3920  0.2948 -0.0401
12866TIP3   OH260012   3.689   0.280  16.767  0.6004 -0.1544  0.1154
12866TIP3    H160013   3.648   0.331  16.697 -1.1087 -1.4175  0.1284
12866TIP3    H260014   3.718   0.346  16.830  0.8472  0.9231 -1.0930
12867TIP3   OH260015   2.975   4.272  15.708 -0.0781  0.2000  0.0124
12867TIP3    H160016   2.999   4.365  15.712 -1.3906  0.5169  1.7388
12867TIP3    H260017   2.950   4.258  15.617  1.1243  1.2633 -0.5108
12868TIP3   OH260018   5.674   2.203  11.866  0.4394 -0.3267  0.3099
12868TIP3    H160019   5.707   2.210  11.956 -0.5278 -2.1667  0.8838
12868TIP3    H260020   5.587   2.164  11.877 -0.1830  0.4992 -1.3811
12869TIP3   OH260021   5.436   3.132  13.219 -0.3199 -0.0201 -0.4543
12869TIP3    H160022   5.347   3.105  13.241 -0.0765  0.2205  0.8834
12869TIP3    H260023   5.480   3.141  13.303  0.6913  0.8381 -1.0515
12870TIP3   OH260024   6.485   2.153   2.930 -0.3747 -0.2530  0.3742
12870TIP3    H160025   6.411   2.133   2.873 -1.1765  0.4098  1.1527
12870TIP3    H260026   6.503   2.071   2.977 -0.1587 -0.6049 -0.3140
12871TIP3   OH260027   2.661   3.864  12.731 -0.3951 -0.2205 -0.1960
12871TIP3    H160028   2.585   3.868  12.789  0.1655  0.4017  0.5117
12871TIP3    H260029   2.734   3.841  12.788 -0.4272 -3.4473 -1.2652
12872TIP3   OH260030   3.490   1.663   4.739  0.2826  0.5108  0.5577
12872TIP3    H160031   3.575   1.708   4.729 -0.2663  1.4646  0.0116
12872TIP3    H260032   3.426   1.734   4.743 -0.5304 -0.2124  0.6685
12873TIP3   OH260033   4.262   0.669   5.702 -0.2653 -0.1859  0.3648
12873TIP3    H160034   4.283   0.632   5.787 -0.3616 -0.6353  0.1931
12873TIP3    H260035   4.226   0.756   5.722 -1.0301 -0.5997  0.8253
12874TIP3   OH260036   2.116   2.396   2.548  0.0319  0.0525  0.0471
12874TIP3    H160037   2.070   2.438   2.475  0.9045 -1.2745 -1.3323
12874TIP3    H260038   2.168   2.466   2.586 -2.7359  1.5097  1.4303
12875TIP3   OH260039   2.859   2.676   4.694 -0.8586 -0.2366  0.0138
12875TIP3    H160040   2.839   2.766   4.667  0.0364  0.6093  1.9316
12875TIP3    H260041   2.871   2.628   4.612  1.1455  1.9798 -1.1350
12876TIP3   OH260042   2.073   3.978   3.512  0.4629 -0.3040 -0.0903
12876TIP3    H160043   2.056   3.951   3.602 -0.3849 -0.4555 -0.2897
12876TIP3    H260044   2.149   3.927   3.485  0.6078 -0.3917  0.4801
12877TIP3   OH260045   6.443   0.845  16.579 -0.3284 -0.2775  0.2253
12877TIP3    H160046   6.497   0.790  16.522  1.1113  1.7503 -0.4843
12877TIP3    H260047   6.408   0.912  16.521 -0.0748  0.9626  1.4641
12878TIP3   OH260048   2.199   2.045   1.147 -0.9369  0.0859  0.7438
12878TIP3    H160049   2.129   2.074   1.089 -0.4645  0.9348  0.5953
12878TIP3    H260050   2.257   2.120   1.155 -1.3034  0.2058  2.7860
12879TIP3   OH260051   1.065   5.918  14.768  0.1321 -0.4977  0.2986
12879TIP3    H160052   0.992   5.974  14.796 -0.8988 -0.8491 -1.5021
12879TIP3    H260053   1.032   5.828  14.780  0.8169 -0.6897  0.7958
12880TIP3   OH260054   2.519   4.722  13.595 -0.3261 -0.1275 -1.1569
12880TIP3    H160055   2.526   4.643  13.541 -0.4620  1.0599 -3.0081
12880TIP3    H260056   2.584   4.782  13.558  0.4997  0.3073  0.8705
12881TIP3   OH260057   3.618   3.317  16.368 -0.0811  0.7125  1.2052
12881TIP3    H160058   3.673   3.321  16.291  0.5001 -0.3867  1.5574
12881TIP3    H260059   3.556   3.246  16.351 -0.5080  1.0297  1.3938
12882TIP3   OH260060   2.034   6.022   5.922 -0.6645  0.3954  0.1863
12882TIP3    H160061   2.077   6.049   6.003 -0.5457 -0.0459  0.2718
12882TIP3    H260062   2.008   6.104   5.880  1.6941  0.7949 -0.6540
12883TIP3   OH260063   4.483   3.371   0.361  0.2996 -0.3956 -0.6709
12883TIP3    H160064   4.552   3.400   0.300  1.7134 -0.2440  0.9350
12883TIP3    H260065   4.521   3.385   0.448 -2.5768  1.7462  0.3888
12884TIP3   OH260066   6.154   2.273   2.590  0.1108  0.1619 -0.0243
12884TIP3    H160067   6.079   2.215   2.578  0.4284 -0.3357  0.3007
12884TIP3    H260068   6.118   2.353   2.627 -0.3183  0.1098 -0.3267
12885TIP3   OH260069   3.538   1.082  13.538 -0.5996  0.0586  0.2408
12885TIP3    H160070   3.585   0.999  13.529 -0.7960 -0.2435  1.8211
12885TIP3    H260071   3.445   1.058  13.532 -0.7165 -0.0712  2.1856
12886TIP3   OH260072   1.582   4.073   2.854 -0.1716  0.4799  0.3295
12886TIP3    H160073   1.538   4.001   2.898 -0.8252  1.7084  1.8111
12886TIP3    H260074   1.661   4.088   2.907  0.8200 -0.1504 -0.9073
12887TIP3   OH260075   5.604   2.624   1.665 -0.5174  0.0680 -0.5612
12887TIP3    H160076   5.637   2.537   1.642  0.2990 -0.0831  1.0525
12887TIP3    H260077   5.677   2.683   1.647 -0.9184  0.3672 -1.2295
12888TIP3   OH260078   1.192   0.325   4.160  0.5141 -0.1844 -0.0143
12888TIP3    H160079   1.223   0.250   4.211 -0.8732  1.4788  3.5117
12888TIP3    H260080   1.140   0.286   4.089 -0.0680 -2.5691  1.6283
12889TIP3   OH260081   1.274   4.001  15.274 -0.1621  0.2022  0.7028
12889TIP3    H160082   1.358   4.025  15.235  0.7934 -2.9788  0.4620
12889TIP3    H260083   1.209   4.024  15.208  1.2704 -3.7443 -2.4846
12890TIP3   OH260084   2.539   6.436   0.646 -0.2728  0.4741  0.3894
12890TIP3    H160085   2.523   6.463   0.556 -0.0827  0.8672  0.4717
12890TIP3    H260086   2.512   6.511   0.699  1.8828  1.2089  0.5400
12891TIP3   OH260087   0.054   4.019  16.482 -0.2210  0.3040 -0.1786
12891TIP3    H160088  -0.031   4.052  16.509 -0.4711  0.6296 -1.3031
12891TIP3    H260089   0.082   3.961  16.553 -0.9771  0.8728  0.5959
12892TIP3   OH260090   3.848   0.977  14.534 -0.0145  0.1204 -0.3895
12892TIP3    H160091   3.907   0.966  14.608 -2.0256  0.7963  1.4484
12892TIP3    H260092   3.771   1.020  14.572 -1.1665  0.4310 -2.8876
12893TIP3   OH260093   3.400   1.555  12.260  0.4033  0.2183  0.2339
12893TIP3    H160094   3.487   1.577  12.292  0.4302  0.6833 -0.1457
12893TIP3    H260095   3.408   1.559  12.164 -0.4911  2.1233  0.2065
12894TIP3   OH260096   6.628   1.815  12.238 -0.7744  0.8955  0.5951
12894TIP3    H160097   6.567   1.808  12.164  1.0263 -0.5544 -0.8491
12894TIP3    H260098   6.616   1.732  12.285 -0.2766  0.8168  0.5833
12895TIP3   OH260099   1.510   3.362   2.944 -0.4461 -0.2994 -0.2401
12895TIP3    H160100   1.416   3.360   2.959 -0.3910 -1.3172  0.0879
12895TIP3    H260101   1.521   3.411   2.863 -1.2362  0.0041 -0.1720
12896TIP3   OH260102   1.966   4.118   4.769  0.1477 -0.3840 -0.0185
12896TIP3    H160103   1.920   4.102   4.851  0.0828 -1.1665 -0.1965
12896TIP3    H260104   1.912   4.076   4.702  0.5090 -0.2814 -0.3839
12897TIP3   OH260105   2.896   4.424  16.441 -0.2344  0.3407 -0.2334
12897TIP3    H160106   2.968   4.371  16.407  0.6563 -0.2736  2.3316
12897TIP3    H260107   2.868   4.377  16.520 -0.0062  3.1663  1.6824
12898TIP3   OH260108   4.940   3.467  11.584  0.7183  0.1729  0.1998
12898TIP3    H160109   4.997   3.535  11.620  3.0287 -0.7715 -1.4824
12898TIP3    H260110   4.931   3.403  11.655 -0.2959  1.4625  1.2938
12899TIP3   OH260111   2.086   5.723  14.782  0.1504  0.5709 -0.3803
12899TIP3    H160112   2.015   5.663  14.756  1.5675 -1.3435 -0.0534
12899TIP3    H260113   2.041   5.797  14.822 -1.6712 -0.8708  0.4052
12900TIP3   OH260114   2.636   2.441  12.818 -0.0783 -0.1530 -0.7629
12900TIP3    H160115   2.614   2.361  12.866 -1.5738 -0.3881 -1.7792
12900TIP3    H260116   2.722   2.466  12.851 -0.5396 -0.9542  1.1692
12901TIP3   OH260117   4.116   0.766  15.761 -0.1029 -0.2834 -0.2730
12901TIP3    H160118   4.112   0.831  15.831  0.0020 -1.1229  0.5347
12901TIP3    H260119   4.081   0.686  15.801  1.2560 -1.1464 -0.7394
12902TIP3   OH260120   2.242   5.229  16.226  0.4279 -0.1333  0.4882
12902TIP3    H160121   2.171   5.195  16.281  0.1467  0.5085  0.5254
12902TIP3    H260122   2.259   5.317  16.260  0.3690  0.2042 -0.3402
12903TIP3   OH260123   2.747   1.296   2.713  0.4316 -0.4049 -0.3332
12903TIP3    H160124   2.655   1.276   2.697  0.8306 -1.4257 -1.5175
12903TIP3    H260125   2.762   1.272   2.804 -0.6598  0.5549  0.1215
12904TIP3   OH260126   3.392   4.471   0.091 -0.8264 -0.2466  0.5582
12904TIP3    H160127   3.431   4.405   0.148 -1.3328 -0.3668  0.7729
12904TIP3    H260128   3.297   4.462   0.106 -0.9770 -0.3912 -0.4122
12905TIP3   OH260129   1.030   1.441  13.105 -0.1437  0.5068 -0.5926
12905TIP3    H160130   0.947   1.451  13.152  0.0436 -1.2146  0.1962
12905TIP3    H260131   1.012   1.472  13.016 -1.9380 -0.7265 -0.7057
12906TIP3   OH260132   3.085   6.503   1.846 -0.3352  0.1275  0.7174
12906TIP3    H160133   3.076   6.562   1.921  0.8914  0.4223  0.6513
12906TIP3    H260134   3.146   6.548   1.787 -0.3096 -0.6688  0.1164
12907TIP3   OH260135   3.429   3.314  13.830  0.3581 -0.1764  0.0457
12907TIP3    H160136   3.500   3.305  13.893  0.9211 -0.9004 -0.6738
12907TIP3    H260137   3.452   3.392  13.779 -0.5111  0.8918  1.2224
12908TIP3   OH260138   6.246   2.412  16.458 -0.2119 -0.4500  0.1868
12908TIP3    H160139   6.243   2.393  16.551 -1.3524 -0.2330  0.2083
12908TIP3    H260140   6.321   2.361  16.425  0.6333  0.0251  1.3196
12909TIP3   OH260141   1.175   2.116   1.518 -1.0948 -0.0038  0.3006
12909TIP3    H160142   1.175   2.206   1.552 -2.3259  0.2741 -0.3427
12909TIP3    H260143   1.208   2.124   1.428  1.6359 -0.6569  1.1558
12910TIP3   OH260144   4.296   1.228   5.885  0.0866 -0.5386  0.2915
12910TIP3    H160145   4.315   1.139   5.915 -1.1542 -1.1028 -0.5273
12910TIP3    H260146   4.325   1.284   5.957  1.2066 -1.5736  0.6715
12911TIP3   OH260147   2.044   1.344  16.186  0.1614 -0.1383  0.6282
12911TIP3    H160148   2.140   1.348  16.187  0.3150 -2.6090  1.5911
12911TIP3    H260149   2.020   1.372  16.098  1.6887  1.1326  0.5526
12912TIP3   OH260150   2.053   4.337  15.930  0.1670  0.5085 -0.2590
12912TIP3    H160151   2.058   4.429  15.904  1.5045  0.8492  1.0731
12912TIP3    H260152   2.144   4.309  15.937 -0.2176 -0.8316 -0.2808
12913TIP3   OH260153   4.817   1.884  12.866  0.1182 -0.5685 -0.3183
12913TIP3    H160154   4.870   1.862  12.942 -2.4292 -0.8298  1.4945
12913TIP3    H260155   4.857   1.963  12.831  1.5867 -0.6644  1.0508
12914TIP3   OH260156   3.548   4.572  11.663  0.1136 -0.2937 -0.2769
12914TIP3    H160157   3.609   4.644  11.647  2.0128 -1.9312 -0.7616
12914TIP3    H260158   3.565   4.546  11.754 -2.1246  1.1921  0.6626
12915TIP3   OH260159   1.010   3.368   5.851  0.1624  0.3317 -0.2903
12915TIP3    H160160   1.074   3.400   5.914 -0.8419 -0.3152  1.1041
12915TIP3    H260161   0.951   3.313   5.902 -0.1586 -0.9729 -1.9785
12916TIP3   OH260162   1.249   6.357  12.434  0.1398  0.2915 -0.0323
12916TIP3    H160163   1.303   6.329  12.508 -1.6833  0.0049  1.2501
12916TIP3    H260164   1.235   6.451  12.448  0.7976  0.4968 -0.7029
12917TIP3   OH260165   0.629   3.151   5.845 -0.0146 -0.0807 -0.5627
12917TIP3    H160166   0.640   3.157   5.940  1.6144 -1.1157 -0.6506
12917TIP3    H260167   0.563   3.217   5.825  0.7597  1.3025  1.1028
12918TIP3   OH260168   4.752   0.240  10.898  0.3312  0.4122 -0.9619
12918TIP3    H160169   4.757   0.148  10.870  0.7064  0.4324 -0.9716
12918TIP3    H260170   4.815   0.285  10.841  0.3699  0.6223 -0.7528
12919TIP3   OH260171   5.081   1.457  16.538 -0.3040  0.2631 -0.5193
12919TIP3    H160172   4.987   1.458  16.553 -0.0193 -1.0898  1.7521
12919TIP3    H260173   5.096   1.381  16.482 -0.6401  1.2590 -2.0348
12920TIP3   OH260174   2.594   1.381   6.393 -0.7046 -0.5318  0.3133
12920TIP3    H160175   2.662   1.314   6.386 -0.9044 -0.7479  0.4635
12920TIP3    H260176   2.520   1.346   6.344 -1.0222 -0.6857  0.8995
12921TIP3   OH260177   0.026   2.950   1.255 -0.0184  0.4083 -0.2817
12921TIP3    H160178   0.045   2.908   1.338 -1.4067  1.1513  0.4529
12921TIP3    H260179  -0.039   2.894   1.214 -0.5276  0.8812 -0.1263
12922TIP3   OH260180   1.569   3.579   5.596  0.2829  0.4365 -0.1864
12922TIP3    H160181   1.474   3.586   5.601  0.3748  0.7688  1.7937
12922TIP3    H260182   1.601   3.666   5.618  1.0646  0.5687 -1.7133
12923TIP3   OH260183   0.116   4.353   4.083  0.4031  0.4763  0.3102
12923TIP3    H160184   0.021   4.360   4.092  0.2657  0.8809 -1.0793
12923TIP3    H260185   0.147   4.323   4.168 -0.7037  2.7727  1.6044
12924TIP3   OH260186   6.361   6.719  16.561 -0.0056 -0.1983 -0.5073
12924TIP3    H160187   6.435   6.743  16.505  1.6527 -0.5083  1.4414
12924TIP3    H260188   6.344   6.627  16.540  0.8890 -0.4405 -0.2030
12925TIP3   OH260189   2.138   1.655  12.976 -0.4493  0.1759 -0.2770
12925TIP3    H160190   2.231   1.634  12.986  0.3351  3.3798  0.3993
12925TIP3    H260191   2.123   1.652  12.882 -0.4540 -2.9707 -0.2651
12926TIP3   OH260192   2.999   5.076   5.332 -0.0499 -0.4083 -0.0551
12926TIP3    H160193   3.043   4.990   5.334 -1.0776 -0.9475  0.2884
12926TIP3    H260194   3.062   5.135   5.292  2.0266 -0.5722  2.6857
12927TIP3   OH260195   2.209   3.445   5.699 -0.0709 -0.1671  0.5189
12927TIP3    H160196   2.217   3.427   5.792  2.5583 -1.8232  0.0755
12927TIP3    H260197   2.299   3.463   5.670 -0.8387  0.4932 -1.6647
12928TIP3   OH260198   5.120   5.876   5.910 -0.1969  0.8058  0.2957
12928TIP3    H160199   5.176   5.943   5.949  0.0382 -0.3454  2.0680
12928TIP3    H260200   5.112   5.809   5.978 -0.7766 -0.7678 -1.2445
12929TIP3   OH260201   3.702   2.015   0.922  0.1251 -0.0175 -0.4768
12929TIP3    H160202   3.737   1.996   0.835  0.1277 -1.0097 -0.2770
12929TIP3    H260203   3.632   1.950   0.934 -0.0204  0.2562  0.1659
12930TIP3   OH260204   1.775   1.754   5.982  0.5959  0.6068  0.3384
12930TIP3    H160205   1.718   1.711   6.046  1.0590  1.5111  1.3932
12930TIP3    H260206   1.716   1.805   5.928  0.1825 -0.2695 -0.0591
12931TIP3   OH260207   0.472   0.383  15.629  0.7263 -0.2660  0.0178
12931TIP3    H160208   0.466   0.299  15.675 -1.4470 -0.9412 -1.2924
12931TIP3    H260209   0.430   0.446  15.688 -1.5082 -1.0097 -0.6495
12932TIP3   OH260210   4.062   0.790  16.427 -0.3121  0.0999 -0.6165
12932TIP3    H160211   4.000   0.856  16.395 -0.2883  0.3082 -0.2356
12932TIP3    H260212   4.133   0.791  16.364 -0.6215 -0.0325 -0.9740
12933TIP3   OH260213   3.418   4.260  14.668 -0.5708  0.2947 -0.2665
12933TIP3    H160214   3.428   4.214  14.752  2.5752  2.7808  0.9586
12933TIP3    H260215   3.501   4.246  14.623 -0.5121  2.4626 -0.9724
12934TIP3   OH260216   2.598   4.489   2.814 -0.3238  0.3946 -0.4768
12934TIP3    H160217   2.611   4.538   2.895  1.2736  1.9713 -1.6023
12934TIP3    H260218   2.684   4.456   2.791 -0.9956 -1.1545 -0.8919
12935TIP3   OH260219   5.440   1.973   2.386 -0.5674  0.1902 -0.2079
12935TIP3    H160220   5.370   2.034   2.363 -0.3779  0.9444  1.1315
12935TIP3    H260221   5.476   2.007   2.468 -0.2493 -1.5558  0.4201
12936TIP3   OH260222   5.677   3.581   1.870 -0.5923 -0.3805 -0.7333
12936TIP3    H160223   5.592   3.561   1.829 -0.3837 -0.7875 -0.9693
12936TIP3    H260224   5.729   3.502   1.857  0.2501  0.3051 -1.6986
12937TIP3   OH260225   1.968   3.303  14.053  0.0820 -0.4943  0.3808
12937TIP3    H160226   1.882   3.262  14.055  0.8256 -2.2087  3.4256
12937TIP3    H260227   2.028   3.234  14.081  2.3379  0.9556 -0.5443
12938TIP3   OH260228   4.002   2.695   3.504  0.7832  0.0873 -0.7024
12938TIP3    H160229   3.930   2.660   3.451 -1.1005 -0.2117  1.8427
12938TIP3    H260230   3.971   2.783   3.529  1.4444  0.0849  0.1514
12939TIP3   OH260231   6.684   1.746   2.120  0.7185 -0.4022  0.2512
12939TIP3    H160232   6.732   1.815   2.075  3.2914 -2.7239 -0.8251
12939TIP3    H260233   6.714   1.750   2.211 -1.5324  1.7558  1.0335
12940TIP3   OH260234   1.125   1.193  12.190 -0.3671  0.0950 -0.0403
12940TIP3    H160235   1.033   1.168  12.194 -0.9251  1.5221 -2.3930
12940TIP3    H260236   1.129   1.279  12.230  0.1568 -0.3908  0.9864
12941TIP3   OH260237   1.109   1.025  16.420 -0.6328 -0.5662 -0.0579
12941TIP3    H160238   1.103   0.956  16.486 -0.7931 -1.6104 -1.1294
12941TIP3    H260239   1.157   0.985  16.347 -0.2091  0.6511 -0.4701
12942TIP3   OH260240   3.635   3.761  16.243  0.1175  0.6646 -0.2446
12942TIP3    H160241   3.550   3.764  16.287  0.5940  0.0620  0.7514
12942TIP3    H260242   3.617   3.790  16.154 -1.2414 -0.0229 -0.2119
12943TIP3   OH260243   1.554   3.206   1.987 -0.0237 -0.3442 -0.6773
12943TIP3    H160244   1.488   3.227   2.053  1.1587 -0.0686  0.4656
12943TIP3    H260245   1.560   3.286   1.934 -0.4801 -0.3103 -0.6827
12944TIP3   OH260246   2.621   3.895  10.982  0.0882 -0.8357 -0.2473
12944TIP3    H160247   2.621   3.991  10.977 -2.9936 -0.7718 -0.6621
12944TIP3    H260248   2.638   3.876  11.074  3.2496 -0.0688 -0.5609
12945TIP3   OH260249   6.156   2.983  13.444 -0.0675 -0.5514 -0.0132
12945TIP3    H160250   6.243   2.944  13.455 -0.0224 -0.2867  0.6033
12945TIP3    H260251   6.130   2.960  13.355  1.2923  0.6899 -0.7627
12946TIP3   OH260252   3.280   1.854  14.884 -0.5435  0.0568 -0.1178
12946TIP3    H160253   3.278   1.914  14.810  0.1505  0.4310  0.1594
12946TIP3    H260254   3.300   1.910  14.959  1.7702 -0.7317 -0.0804
12947TIP3   OH260255   3.256   3.583  12.530  0.6693  0.1869  0.4994
12947TIP3    H160256   3.192   3.648  12.501  2.3075  0.6709 -2.3593
12947TIP3    H260257   3.300   3.625  12.604 -0.5941  0.8542  0.9081
12948TIP3   OH260258   0.156   2.109  15.181 -0.6215 -0.7809 -0.2317
12948TIP3    H160259   0.128   2.025  15.143 -1.2299 -0.4625 -0.4935
12948TIP3    H260260   0.250   2.111  15.165 -0.7497 -0.9911 -1.0722
12949TIP3   OH260261   0.454   5.656   1.417 -0.1062 -0.1779 -0.8126
12949TIP3    H160262   0.440   5.701   1.501 -0.1051 -0.2740 -0.7616
12949TIP3    H260263   0.504   5.719   1.365 -1.2791  0.4344 -1.2291
12950TIP3   OH260264   4.099   3.908  15.462  0.2551  0.4020 -0.4036
12950TIP3    H160265   4.020   3.860  15.433 -1.0369  1.4987  1.1567
12950TIP3    H260266   4.143   3.848  15.522 -1.8654  1.3516  2.3045
12951TIP3   OH260267   6.217   3.317   4.058  0.2291  0.4329  0.4375
12951TIP3    H160268   6.156   3.253   4.096 -0.2010  0.7861  0.3440
12951TIP3    H260269   6.207   3.395   4.113  0.4347  0.5700  0.2814
12952TIP3   OH260270   2.117   1.254   0.023 -0.5859 -0.8047 -0.1447
12952TIP3    H160271   2.190   1.315   0.008 -0.3462 -0.9646  0.3288
12952TIP3    H260272   2.150   1.169  -0.008 -0.0501 -1.1572  1.2877
12953TIP3   OH260273   2.982   5.714   5.644  0.3920  0.1327  0.3164
12953TIP3    H160274   3.020   5.766   5.573  0.4134 -0.4645 -0.1192
12953TIP3    H260275   3.018   5.753   5.724  2.1150 -0.5227 -0.0851
12954TIP3   OH260276   2.514   3.170  14.113  0.6018 -0.3893  0.7437
12954TIP3    H160277   2.425   3.164  14.078  0.6019  1.8369  0.1985
12954TIP3    H260278   2.571   3.156  14.037  0.6724  0.1739  0.6888
12955TIP3   OH260279   5.609   2.314   6.645 -0.0586  0.4503 -0.0796
12955TIP3    H160280   5.596   2.393   6.697  3.4725  1.3279 -0.2987
12955TIP3    H260281   5.595   2.242   6.707  0.9243  1.3748  1.2738
12956TIP3   OH260282   1.948   3.473   1.288  0.3994 -0.5035 -0.3851
12956TIP3    H160283   1.905   3.527   1.354 -0.8324 -2.3468  0.3665
12956TIP3    H260284   1.937   3.522   1.207  1.2525  1.4218  0.5972
12957TIP3   OH260285   1.489   4.678   4.150 -0.4860  0.0514  0.2079
12957TIP3    H160286   1.453   4.763   4.175  0.3068 -0.0223  1.6911
12957TIP3    H260287   1.490   4.680   4.054 -1.9131  1.0899  0.1873
12958TIP3   OH260288   2.911   2.163  12.834 -0.1105 -0.1674 -0.0549
12958TIP3    H160289   2.870   2.135  12.916  3.5489 -0.6812  1.8387
12958TIP3    H260290   2.961   2.087  12.805  1.3798  1.0447 -0.8251
12959TIP3   OH260291   4.171   1.713   2.368 -0.1020 -0.1773  0.3207
12959TIP3    H160292   4.236   1.645   2.350  0.2903 -0.2316  1.7619
12959TIP3    H260293   4.179   1.729   2.463  0.4212  2.4695 -0.0759
12960TIP3   OH260294   1.611   5.266  15.974 -0.1847 -0.2076  0.6531
12960TIP3    H160295   1.634   5.185  15.928  0.3356  0.8905 -1.0708
12960TIP3    H260296   1.536   5.241  16.028 -2.4170 -1.0542 -2.5377
12961TIP3   OH260297   5.902   4.592   3.649  0.4213 -0.1561  0.3331
12961TIP3    H160298   5.841   4.631   3.712  0.6460 -0.8095  0.9748
12961TIP3    H260299   5.881   4.498   3.650 -0.1204 -0.0895 -1.1851
12962TIP3   OH260300   3.551   2.358  11.825  1.3355 -0.9325 -0.3422
12962TIP3    H160301   3.631   2.371  11.877 -0.8129  0.5494  2.8583
12962TIP3    H260302   3.514   2.445  11.816 -0.5455 -1.7351 -0.7461
12963TIP3   OH260303   1.546   2.321   1.275 -0.0910  0.4775 -0.0705
12963TIP3    H160304   1.457   2.309   1.242  0.3429 -0.4771 -0.9575
12963TIP3    H260305   1.561   2.415   1.272 -1.4492  0.7649  1.1381
12964TIP3   OH260306   2.321   6.475  17.079 -0.2039 -0.4107  0.6469
12964TIP3    H160307   2.408   6.502  17.049  0.0433 -1.2649  0.5728
12964TIP3    H260308   2.315   6.506  17.169  0.5236 -1.0938  0.9405
12965TIP3   OH260309   5.364   6.653   3.623  0.0675  0.4125 -0.1764
12965TIP3    H160310   5.352   6.718   3.692  0.3565  1.1298 -0.7879
12965TIP3    H260311   5.308   6.684   3.551 -0.7599 -0.6925 -0.0276
12966TIP3   OH260312   0.772   0.173   5.703 -0.0452  0.0397  0.0941
12966TIP3    H160313   0.690   0.149   5.746 -0.9998 -0.8046 -2.0510
12966TIP3    H260314   0.822   0.091   5.702  0.3319  0.2641  0.3230
12967TIP3   OH260315   2.138   3.869  12.211 -0.2899  0.0059  0.5315
12967TIP3    H160316   2.118   3.863  12.117 -0.3802  0.9939  0.4782
12967TIP3    H260317   2.170   3.782  12.234 -1.5611 -0.6686 -0.1157
12968TIP3   OH260318   6.510   4.260  13.713 -0.0870 -0.7922 -0.1143
12968TIP3    H160319   6.456   4.312  13.772  0.0617 -0.9722  0.1808
12968TIP3    H260320   6.560   4.325  13.663 -0.0546 -0.6468  0.1059
12969TIP3   OH260321   6.088   1.441   0.537 -0.6995 -0.1428  0.4443
12969TIP3    H160322   6.038   1.497   0.478 -1.7304 -0.0589  1.3523
12969TIP3    H260323   6.132   1.503   0.596  3.3069  0.0148 -2.3149
12970TIP3   OH260324   3.442   3.873  16.070  0.0239 -0.4380  0.5855
12970TIP3    H160325   3.409   3.907  16.153 -1.3378  1.6325 -0.7283
12970TIP3    H260326   3.506   3.937  16.040  0.2627 -0.9900 -0.1318
12971TIP3   OH260327   2.773   4.921   0.701 -0.4277 -0.1502 -0.3854
12971TIP3    H160328   2.755   5.008   0.735 -1.9715 -1.2386  1.8743
12971TIP3    H260329   2.706   4.906   0.635 -1.3843 -0.3120  0.6008
12972TIP3   OH260330   0.550   1.050   3.207  0.6428 -0.4316 -1.0214
12972TIP3    H160331   0.506   0.966   3.194 -0.9773  0.7109 -3.5767
12972TIP3    H260332   0.576   1.078   3.120  0.9487  1.8216 -0.2721
12973TIP3   OH260333   3.125   4.920  14.874 -0.5917 -0.0290 -0.8537
12973TIP3    H160334   3.144   4.890  14.963 -1.5999  1.2439 -0.1718
12973TIP3    H260335   3.210   4.942  14.837 -0.0771 -1.3484 -0.5232
12974TIP3   OH260336   4.015   5.996  12.341 -0.4680 -0.6972  0.1083
12974TIP3    H160337   3.948   6.065  12.339 -0.0738 -0.3130 -0.2685
12974TIP3    H260338   4.012   5.956  12.254 -0.4593 -0.9235  0.2112
12975TIP3   OH260339   6.665   1.971   5.546  0.1349  0.1456 -0.1486
12975TIP3    H160340   6.572   1.962   5.525  0.4790 -0.4206 -1.5451
12975TIP3    H260341   6.673   2.060   5.581 -0.6963  0.7930 -1.5022
12976TIP3   OH260342   5.204   4.350   0.309 -0.3472 -0.0688 -0.2897
12976TIP3    H160343   5.130   4.320   0.362  0.0762 -1.7701 -0.6032
12976TIP3    H260344   5.280   4.306   0.347 -0.0046 -1.2150 -2.1543
12977TIP3   OH260345   1.215   0.825   1.990 -0.6146 -0.0697  0.5440
12977TIP3    H160346   1.231   0.884   1.916  1.1467 -1.3380 -0.1519
12977TIP3    H260347   1.126   0.792   1.974 -0.1612 -0.5560 -1.1969
12978TIP3   OH260348   0.171   2.382  12.821 -0.4687  0.1160 -0.3254
12978TIP3    H160349   0.226   2.372  12.899 -0.4683  0.5824 -0.2616
12978TIP3    H260350   0.139   2.473  12.826 -1.8119 -0.3409  0.0145
12979TIP3   OH260351   3.351   2.821   0.203 -0.6610 -0.1848 -0.1894
12979TIP3    H160352   3.292   2.745   0.204 -1.7364  0.5354  2.6580
12979TIP3    H260353   3.299   2.891   0.243  0.6850  1.7670 -1.6829
12980TIP3   OH260354   5.630   5.694  13.348  0.0695 -0.1653 -0.0728
12980TIP3    H160355   5.671   5.682  13.262 -0.3148  2.8046 -0.7815
12980TIP3    H260356   5.550   5.642  13.345  1.1157 -1.8241 -0.6394
12981TIP3   OH260357   5.806   2.146   6.125 -0.3926  0.1805 -0.1125
12981TIP3    H160358   5.867   2.217   6.104 -0.1384  0.0910  0.3011
12981TIP3    H260359   5.791   2.155   6.219 -1.8323  0.8349 -0.3830
12982TIP3   OH260360   1.257   1.700   4.106 -0.5281 -0.1139  0.2906
12982TIP3    H160361   1.344   1.726   4.076  0.4702 -1.2285  2.0565
12982TIP3    H260362   1.246   1.744   4.190 -0.3010 -2.4053  1.5882
12983TIP3   OH260363   0.386   2.236  12.728  0.2245 -0.6911  0.3535
12983TIP3    H160364   0.319   2.304  12.738  0.5427 -0.3361  0.1235
12983TIP3    H260365   0.338   2.154  12.733  0.0121 -0.4964  2.0593
12984TIP3   OH260366   1.088   4.075  15.059 -0.4393  0.6602 -0.0170
12984TIP3    H160367   1.125   4.160  15.037  1.3942 -0.4301 -1.4551
12984TIP3    H260368   1.069   4.034  14.975 -1.2454 -0.3907  0.6486
12985TIP3   OH260369   1.793   2.909   0.211 -0.0039  0.3957  0.6239
12985TIP3    H160370   1.702   2.883   0.227  0.1006  0.5668  1.5566
12985TIP3    H260371   1.797   2.928   0.118 -1.0072  0.6977  0.6341
12986TIP3   OH260372   6.122   1.518   0.851 -0.0079 -0.0500  0.0022
12986TIP3    H160373   6.106   1.499   0.944 -2.0347  1.0989 -0.0752
12986TIP3    H260374   6.055   1.581   0.827  0.9592  0.2616 -2.0791
12987TIP3   OH260375   1.920   4.363  11.899  0.0316  0.0394  0.4608
12987TIP3    H160376   1.884   4.449  11.879  0.4876  0.3052  0.7628
12987TIP3    H260377   1.859   4.326  11.963  0.5963  0.7301  1.4271
12988TIP3   OH260378   6.058   0.338  15.882 -0.2266 -0.4354  0.2531
12988TIP3    H160379   6.010   0.260  15.909 -1.3774  0.3359  0.4966
12988TIP3    H260380   6.145   0.329  15.921 -0.8381 -0.8678  1.5276
12989TIP3   OH260381   2.599   0.586   4.300  0.3519 -0.2518  0.6707
12989TIP3    H160382   2.605   0.625   4.213  2.4274 -1.0807  0.3915
12989TIP3    H260383   2.512   0.610   4.331 -0.2117  0.5497 -1.3876
12990TIP3   OH260384   3.179   4.981   3.481 -0.0306 -0.0597  0.2283
12990TIP3    H160385   3.138   5.010   3.400  0.1844 -1.1821 -0.2998
12990TIP3    H260386   3.214   4.894   3.461  2.7660  0.8916  0.5904
12991TIP3   OH260387   0.614   0.297   5.122  0.1808 -0.0975 -0.3022
12991TIP3    H160388   0.573   0.355   5.187  0.7284 -0.7782  0.6835
12991TIP3    H260389   0.555   0.222   5.117  1.0153 -0.8486  0.7430
12992TIP3   OH260390   1.698   0.048  16.778 -0.5937  0.1923 -0.4691
12992TIP3    H160391   1.639   0.027  16.705  0.4895 -0.3866 -1.1948
12992TIP3    H260392   1.782   0.009  16.754 -0.8204 -2.3656  2.2758
12993TIP3   OH260393   1.704   1.479  14.875 -0.1829 -0.0092 -0.7281
12993TIP3    H160394   1.621   1.509  14.911 -0.5463 -1.9190  0.1586
12993TIP3    H260395   1.770   1.524  14.927 -0.6862 -0.0450 -0.0487
12994TIP3   OH260396   5.428   6.468   2.231 -0.1287 -0.1515 -0.4470
12994TIP3    H160397   5.335   6.476   2.253  0.0454  1.4621 -0.1189
12994TIP3    H260398   5.460   6.559   2.230  2.0714 -0.7395  2.2019
12995TIP3   OH260399   6.153   4.979  16.026  0.1376  0.4595  0.3104
12995TIP3    H160400   6.132   4.888  16.002  0.4322  0.8116 -1.4238
12995TIP3    H260401   6.248   4.981  16.029  0.2042  1.0083 -1.1124
12996TIP3   OH260402   3.021   3.122   0.602 -0.1704 -0.3337 -0.0748
12996TIP3    H160403   3.064   3.047   0.561  1.2313  1.1241 -1.4042
12996TIP3    H260404   3.078   3.146   0.675 -0.7805 -0.7273  0.5440
12997TIP3   OH260405   5.502   0.637  11.377 -0.7665 -0.1959 -0.0560
12997TIP3    H160406   5.587   0.650  11.418 -0.8492  1.3652 -0.3254
12997TIP3    H260407   5.481   0.721  11.336 -1.2884 -1.2859 -2.1712
12998TIP3   OH260408   0.615   1.977   5.715 -0.6129 -0.5645  0.4922
12998TIP3    H160409   0.630   2.059   5.763 -2.1431 -0.5235  0.9599
12998TIP3    H260410   0.696   1.927   5.728  0.0141  0.5247  0.9199
12999TIP3   OH260411   1.803   3.166  13.050  0.4616 -0.0673 -0.8341
12999TIP3    H160412   1.769   3.246  13.090  0.1306 -1.1409  1.1929
12999TIP3    H260413   1.897   3.179  13.047  0.4543  0.2488 -0.0610
13000TIP3   OH260414   5.039   0.539  16.175 -0.1057 -0.1806  0.3429
13000TIP3    H160415   5.097   0.608  16.141 -0.3500  0.0736  0.4335
13000TIP3    H260416   4.997   0.579  16.251  0.4953 -0.7795  0.9971
13001TIP3   OH260417   0.352   2.089  14.981 -0.8701 -0.0410  0.0071
13001TIP3    H160418   0.429   2.043  14.948  0.1958  0.5790  1.5452
13001TIP3    H260419   0.298   2.104  14.903  1.2516  0.8336 -1.3754
13002TIP3   OH260420   1.146   6.798  15.740  0.4386  0.2144 -0.3572
13002TIP3    H160421   1.062   6.753  15.731  0.0694  0.7154  0.4765
13002TIP3    H260422   1.198   6.764  15.667 -0.0765 -0.9940 -0.2024
13003TIP3   OH260423   5.353   1.208  11.696  0.4955  0.1311  0.7890
13003TIP3    H160424   5.393   1.139  11.749 -0.2879 -0.1294  1.0408
13003TIP3    H260425   5.263   1.215  11.727  0.4978  1.1238  0.6198
13004TIP3   OH260426   6.762   6.528   1.295  0.0029 -0.0589  0.2214
13004TIP3    H160427   6.746   6.484   1.379  0.2610 -0.5867  0.0023
13004TIP3    H260428   6.811   6.606   1.318 -0.3176  0.0355  0.6062
13005TIP3   OH260429   3.358   6.243   4.555  0.4095  0.3383  1.2498
13005TIP3    H160430   3.296   6.311   4.580  0.1162  0.8050 -0.6040
13005TIP3    H260431   3.330   6.216   4.467  3.1982  1.0844  0.0157
13006TIP3   OH260432   5.125   5.674   0.142  0.6200 -0.6241  0.1175
13006TIP3    H160433   5.034   5.655   0.117  1.1524 -1.9095 -0.9776
13006TIP3    H260434   5.118   5.732   0.217 -1.1114 -0.2085 -0.3311
13007TIP3   OH260435   6.066   0.895   3.590  0.3779  0.0426  0.0740
13007TIP3    H160436   6.096   0.806   3.609  2.1207  0.4869 -0.3536
13007TIP3    H260437   6.041   0.930   3.676  0.2905 -0.6464  0.3370
13008TIP3   OH260438   1.746   3.024  16.647  0.0017 -0.4063  0.2113
13008TIP3    H160439   1.713   2.977  16.570 -2.6022  1.2030  0.1947
13008TIP3    H260440   1.807   3.088  16.612  1.1661 -1.6673 -0.1228
13009TIP3   OH260441   2.663   2.882  13.469 -0.1853  0.6096  0.9492
13009TIP3    H160442   2.740   2.937  13.455  0.5789 -0.4734  0.7761
13009TIP3    H260443   2.693   2.793  13.450 -1.5345  0.1855  0.6798
13010TIP3   OH260444   2.218   5.243   0.779 -0.6121 -0.1288  0.7236
13010TIP3    H160445   2.128   5.242   0.811 -1.0606 -0.8377 -0.5030
13010TIP3    H260446   2.215   5.301   0.703 -0.0791 -0.3311  0.5457
13011TIP3   OH260447   3.618   0.007   5.601 -0.1628  0.8117  0.4674
13011TIP3    H160448   3.574  -0.015   5.683  0.0283  0.7786  0.5605
13011TIP3    H260449   3.627  -0.077   5.556  0.5153  0.7011  0.7985
13012TIP3   OH260450   0.411   2.338  16.059  0.3651 -0.3644 -0.3586
13012TIP3    H160451   0.487   2.367  16.007  0.2549 -2.0233 -1.5122
13012TIP3    H260452   0.418   2.243  16.061 -0.3898 -0.4259  1.5915
13013TIP3   OH260453   3.038   5.938  16.471 -0.0631 -0.3655  0.2085
13013TIP3    H160454   3.068   6.008  16.529  3.4789 -3.3853  2.4851
13013TIP3    H260455   3.118   5.901  16.434 -1.8963 -2.0204 -2.4421
13014TIP3   OH260456   1.320   0.086  16.215 -0.6302 -0.2913  0.0083
13014TIP3    H160457   1.227   0.108  16.215 -1.3270 -2.9102 -0.3044
13014TIP3    H260458   1.332   0.031  16.293  0.6352 -0.0907 -0.0243
13015TIP3   OH260459   5.234   3.728   6.259  0.4537 -0.6541 -0.0525
13015TIP3    H160460   5.261   3.752   6.348  0.7047 -0.0797 -0.2751
13015TIP3    H260461   5.316   3.731   6.208 -0.1081  2.0907 -0.9542
13016TIP3   OH260462   3.219   3.531   4.306 -1.0151 -0.0617 -0.4337
13016TIP3    H160463   3.136   3.578   4.304 -1.7681 -1.2810  0.4132
13016TIP3    H260464   3.194   3.439   4.301  0.3937 -0.4140 -1.8831
13017TIP3   OH260465   1.648   4.850  15.514 -0.3537  0.0274 -0.0878
13017TIP3    H160466   1.713   4.885  15.453 -0.1840  0.6853  0.4568
13017TIP3    H260467   1.608   4.928  15.553  1.5771 -0.3032  2.8175
13018TIP3   OH260468   1.580   4.185  14.967 -0.4229 -0.5124  0.3925
13018TIP3    H160469   1.668   4.213  14.993 -1.1017  1.1512  1.0831
13018TIP3    H260470   1.542   4.263  14.926 -1.4316 -1.3358 -0.2930
13019TIP3   OH260471   1.496   1.763   0.898 -0.3572 -0.0940 -0.5046
13019TIP3    H160472   1.488   1.738   0.806 -0.9655 -3.2163  0.2862
13019TIP3    H260473   1.588   1.750   0.919  0.3110  2.9032 -1.1586
13020TIP3   OH260474   5.985   0.061   0.768 -0.1363 -0.1120 -0.1672
13020TIP3    H160475   5.926   0.019   0.831 -2.4311  0.7968 -1.5605
13020TIP3    H260476   6.072   0.048   0.804 -1.3330  0.8991  3.5294
13021TIP3   OH260477   1.825   4.285   5.488 -0.0412  0.8054  0.2769
13021TIP3    H160478   1.898   4.308   5.546 -0.0565  1.0674  0.1935
13021TIP3    H260479   1.860   4.297   5.400  0.7731 -1.8774  0.1247
13022TIP3   OH260480   1.884   5.076   0.440 -0.3575  0.0321 -0.3358
13022TIP3    H160481   1.868   5.168   0.457  0.5358 -0.2071  2.1552
13022TIP3    H260482   1.804   5.045   0.398 -1.4805  1.4995  0.6161
13023TIP3   OH260483   6.641   3.955  16.290  0.1568  0.1897 -0.2983
13023TIP3    H160484   6.556   3.918  16.266 -0.6518  1.6949  0.0911
13023TIP3    H260485   6.639   3.962  16.385  0.1709  1.4355 -0.3738
13024TIP3   OH260486   5.040   1.264  13.047 -0.1618  0.0585  0.3927
13024TIP3    H160487   5.049   1.324  13.121  0.3148 -0.0088  0.3873
13024TIP3    H260488   5.015   1.319  12.973 -1.8615 -0.0133  0.8637
13025TIP3   OH260489   0.572   2.404   3.474  0.1982 -0.7780 -0.2321
13025TIP3    H160490   0.643   2.405   3.538 -0.1508 -1.4504  0.1790
13025TIP3    H260491   0.615   2.409   3.389  0.7532 -1.5742  0.0031
13026TIP3   OH260492   4.349   2.773   6.311  0.2440  0.2087 -0.6941
13026TIP3    H160493   4.334   2.819   6.394 -1.0973 -0.4055 -0.5565
13026TIP3    H260494   4.341   2.680   6.334 -2.0974  0.0584 -1.7797
13027TIP3   OH260495   1.292   0.268   2.289 -0.4784 -0.2704  0.0211
13027TIP3    H160496   1.340   0.192   2.256 -0.1903  0.6510 -1.8009
13027TIP3    H260497   1.208   0.266   2.243 -0.6796  0.2371  0.3480
13028TIP3   OH260498   5.973   3.981   5.365  0.0147  1.0929  0.1457
13028TIP3    H160499   5.963   3.927   5.443  2.5171  0.0537 -0.1791
13028TIP3    H260500   5.961   4.071   5.397 -1.3781  0.5664  1.2166
13029TIP3   OH260501   0.928   4.763   5.398  0.3834 -0.1902 -0.0280
13029TIP3    H160502   1.014   4.800   5.416  0.7595 -1.4782  1.0129
13029TIP3    H260503   0.867   4.820   5.444  1.0711 -1.5403  2.8312
13030TIP3   OH260504   5.301   0.586   3.238  0.0049  0.4155 -0.2158
13030TIP3    H160505   5.223   0.637   3.217  0.5575  1.1610 -0.4870
13030TIP3    H260506   5.317   0.534   3.160 -1.1038 -0.9056  0.4007
13031TIP3   OH260507   4.710   6.686   4.347 -0.3207  0.3646 -0.1731
13031TIP3    H160508   4.718   6.591   4.342  0.1801  0.4074 -0.2837
13031TIP3    H260509   4.626   6.706   4.306 -0.0627  0.0282 -0.8902
13032TIP3   OH260510   1.621   0.212   0.253 -0.8857  0.0317  0.1417
13032TIP3    H160511   1.547   0.234   0.197 -0.7034  0.5773  0.1100
13032TIP3    H260512   1.695   0.261   0.216 -0.1787 -1.5676 -0.6628
13033TIP3   OH260513   3.444   6.443   5.619  0.4547  0.1052  0.1395
13033TIP3    H160514   3.353   6.415   5.619  0.5590 -0.3542 -1.4968
13033TIP3    H260515   3.442   6.531   5.580  0.8565 -0.6092 -1.5795
13034TIP3   OH260516   6.113   6.285   0.743  0.4741  0.5018  0.1135
13034TIP3    H160517   6.199   6.244   0.749  1.5071  2.2027 -1.7463
13034TIP3    H260518   6.073   6.245   0.666 -0.3538 -0.1395  0.8588
13035TIP3   OH260519   5.103   4.634   0.335  0.3328  0.2483 -0.2616
13035TIP3    H160520   5.070   4.660   0.249  0.5129  0.0826 -0.3837
13035TIP3    H260521   5.163   4.561   0.316 -1.2536 -1.2359  0.1909
13036TIP3   OH260522   2.458   0.155  17.062  0.7284  0.6621  0.4959
13036TIP3    H160523   2.424   0.187  17.146 -0.5761 -2.8882  1.4615
13036TIP3    H260524   2.552   0.151  17.075  0.4989 -0.5024  2.1258
13037TIP3   OH260525   2.531   6.583   2.954  0.5378 -0.2075 -0.3729
13037TIP3    H160526   2.522   6.598   3.048 -2.1741  0.1417 -0.6150
13037TIP3    H260527   2.564   6.494   2.947 -3.1296 -1.8612  0.9830
13038TIP3   OH260528   6.372   2.982  12.026 -0.2779  0.2619  0.3991
13038TIP3    H160529   6.301   3.023  12.076  0.0040  1.0378  0.1623
13038TIP3    H260530   6.339   2.978  11.936 -2.1095 -3.9509  0.9931
13039TIP3   OH260531   2.829   0.270  16.784 -0.1192 -0.1335 -0.0123
13039TIP3    H160532   2.734   0.254  16.781 -0.1674 -0.7942  2.5304
13039TIP3    H260533   2.837   0.364  16.770 -0.9555 -0.3135 -2.0692
13040TIP3   OH260534   2.591   3.650   4.698 -0.0485 -0.5139  0.9669
13040TIP3    H160535   2.544   3.725   4.663 -0.7937 -2.1410 -1.7624
13040TIP3    H260536   2.529   3.608   4.758 -1.0477 -1.0434 -0.4127
13041TIP3   OH260537   2.819   6.213   4.019  0.4558  0.2164 -0.4030
13041TIP3    H160538   2.759   6.227   4.092  1.1968  0.4387  0.1784
13041TIP3    H260539   2.904   6.199   4.060  0.8055 -0.0963 -1.2106
13042TIP3   OH260540   0.828   2.124  11.677  0.4663 -0.2633 -0.2574
13042TIP3    H160541   0.876   2.051  11.716 -0.4795 -0.5354  0.4284
13042TIP3    H260542   0.777   2.084  11.606  0.6251 -0.1123 -0.4585
13043TIP3   OH260543   5.568   5.977   3.466 -0.0568 -0.2633  0.0603
13043TIP3    H160544   5.660   5.952   3.473 -0.6475 -2.4808  0.8713
13043TIP3    H260545   5.533   5.963   3.553 -1.2937  0.0294 -0.3740
13044TIP3   OH260546   2.352   1.122  16.051  0.1239 -0.2252 -0.3465
13044TIP3    H160547   2.273   1.068  16.053 -0.0359  0.0182  0.1120
13044TIP3    H260548   2.350   1.170  16.134  0.3378  0.3728 -0.6823
13045TIP3   OH260549   0.381   1.614   1.613 -0.1191  0.5497 -0.3542
13045TIP3    H160550   0.406   1.559   1.539 -1.0656 -0.6131  0.1533
13045TIP3    H260551   0.287   1.627   1.602 -0.3339  0.0867  0.8070
13046TIP3   OH260552   1.775   0.329  17.081  0.6363  0.9987  0.1900
13046TIP3    H160553   1.859   0.368  17.105 -0.0850  1.8668  1.3932
13046TIP3    H260554   1.798   0.242  17.048  2.0499  1.4337 -0.0226
13047TIP3   OH260555   2.646   4.954   5.313 -0.0605  0.0364  0.0011
13047TIP3    H160556   2.674   4.879   5.366  1.0731  0.3169 -0.1750
13047TIP3    H260557   2.620   5.020   5.377  0.1320 -0.0672  0.1902
13048TIP3   OH260558   3.188   5.240  12.331 -0.0857 -0.0657  0.1290
13048TIP3    H160559   3.227   5.324  12.305  1.3897 -0.4412  1.0182
13048TIP3    H260560   3.095   5.259  12.342  0.0479  1.1970 -0.7217
13049TIP3   OH260561   0.213   5.847   5.118 -0.1102  0.0227 -0.5626
13049TIP3    H160562   0.135   5.856   5.172 -0.8176 -0.9793 -1.3667
13049TIP3    H260563   0.187   5.882   5.033  0.2277 -0.5274 -0.8990
13050TIP3   OH260564   2.478   6.662  12.513  0.5107 -0.5973 -0.0995
13050TIP3    H160565   2.403   6.668  12.453  1.2203 -0.6420 -1.0230
13050TIP3    H260566   2.449   6.602  12.581 -0.6627  0.2026  0.1317
13051TIP3   OH260567   5.072   3.055   4.117  0.3996  0.0539  1.2467
13051TIP3    H160568   5.098   3.062   4.025  2.7463 -0.1013  1.8265
13051TIP3    H260569   5.121   2.979   4.150 -1.3246 -0.6245  2.3632
13052TIP3   OH260570   4.359   0.150  11.583  0.4258 -1.0818  0.4547
13052TIP3    H160571   4.272   0.113  11.597 -0.5715  0.7807 -0.4451
13052TIP3    H260572   4.386   0.114  11.499 -0.4168 -0.0733 -0.2803
13053TIP3   OH260573   6.548   6.313  10.708 -0.6146 -0.8279  0.0925
13053TIP3    H160574   6.558   6.386  10.648  1.1336 -2.8152 -2.2058
13053TIP3    H260575   6.477   6.261  10.672 -0.6264 -1.2200  0.6580
13054TIP3   OH260576   4.943   5.906  11.844  0.0886  0.1861 -0.4942
13054TIP3    H160577   4.931   5.972  11.912  0.7975  1.2398 -1.3431
13054TIP3    H260578   4.875   5.841  11.860 -2.3924  2.4491 -1.1793
13055TIP3   OH260579   0.418   6.166   4.583  0.7578  0.1546 -0.1748
13055TIP3    H160580   0.503   6.121   4.585  1.8803  2.1855 -0.1087
13055TIP3    H260581   0.375   6.138   4.665  1.3343 -0.8941 -0.2093
13056TIP3   OH260582   1.302   4.013  11.367  0.3480  0.1896  0.1925
13056TIP3    H160583   1.248   3.935  11.378 -0.3634  0.7791  0.9479
13056TIP3    H260584   1.240   4.083  11.344  0.7471  0.9030  1.2090
13057TIP3   OH260585   5.394   2.482   0.338  0.3992  0.1193 -0.2051
13057TIP3    H160586   5.347   2.414   0.290 -0.5851  0.7747 -0.1775
13057TIP3    H260587   5.447   2.526   0.272 -1.0065  1.0686 -0.7473
13058TIP3   OH260588   1.022   3.831  13.899 -0.3924  0.1236  0.4487
13058TIP3    H160589   1.047   3.880  13.821 -0.1567 -0.7912 -0.0636
13058TIP3    H260590   1.091   3.850  13.963  0.5610 -0.7853 -0.2837
13059TIP3   OH260591   5.850   1.460   4.238  0.4821 -0.1767  0.0661
13059TIP3    H160592   5.893   1.498   4.161 -1.3991  2.1936  0.0787
13059TIP3    H260593   5.836   1.533   4.297 -3.9670 -0.5470 -0.1756
13060TIP3   OH260594   3.435   2.525   6.519  0.7676 -0.0667 -0.1666
13060TIP3    H160595   3.475   2.441   6.495  1.2594  0.5452 -1.5720
13060TIP3    H260596   3.510   2.584   6.532  0.3950  0.4032 -0.1436
13061TIP3   OH260597   2.234   3.904   0.096  0.2523 -0.5366  0.0663
13061TIP3    H160598   2.225   3.858   0.012 -0.2795 -1.0402  0.3957
13061TIP3    H260599   2.230   3.834   0.162 -1.3384  0.0304  0.6188
13062TIP3   OH260600   2.147   4.125   5.397  0.3592  0.0362  0.4823
13062TIP3    H160601   2.116   4.162   5.479  1.1159  1.3673  0.1964
13062TIP3    H260602   2.241   4.143   5.396  0.3648  0.0387 -0.6656
13063TIP3   OH260603   3.375   0.271  16.436  0.5288  0.3730  0.1595
13063TIP3    H160604   3.440   0.201  16.438  0.3553  0.1832  2.6617
13063TIP3    H260605   3.313   0.244  16.368  0.6200 -1.8131  0.8483
13064TIP3   OH260606   3.327   1.361   5.962  0.3398  0.6791  0.1081
13064TIP3    H160607   3.282   1.351   6.045 -1.0220  0.7366 -0.5905
13064TIP3    H260608   3.305   1.282   5.913  1.1368  0.6378 -0.2065
13065TIP3   OH260609   5.745   2.193  12.118 -0.3081  0.5383 -0.0581
13065TIP3    H160610   5.806   2.263  12.143 -0.6901  0.3881  1.4307
13065TIP3    H260611   5.682   2.191  12.190 -0.1661 -1.4889  0.0519
13066TIP3   OH260612   3.555   5.893   4.985 -0.4354  0.3158 -0.3964
13066TIP3    H160613   3.579   5.977   4.947 -0.8111 -0.3525 -2.2042
13066TIP3    H260614   3.633   5.864   5.032  0.0048  1.2325 -0.5545
13067TIP3   OH260615   4.242   3.872  13.686 -0.1832 -0.2465 -0.0476
13067TIP3    H160616   4.310   3.931  13.718 -1.8736  2.1270 -0.5253
13067TIP3    H260617   4.290   3.796  13.653  1.9827 -0.2001  2.5832
13068TIP3   OH260618   5.353   0.110  12.697  0.1135 -0.1086 -0.5421
13068TIP3    H160619   5.258   0.111  12.703  0.1758 -0.8375  0.8779
13068TIP3    H260620   5.377   0.200  12.674 -0.8450  0.3755  0.2902
13069TIP3   OH260621   3.729   1.945  13.937  0.6287 -0.4464 -0.1868
13069TIP3    H160622   3.725   1.899  14.021  0.7317 -1.3537 -0.6589
13069TIP3    H260623   3.808   1.998  13.941  0.2542  0.0652  0.5574
13070TIP3   OH260624   4.150   1.409   6.491 -0.0410 -0.7176 -0.9146
13070TIP3    H160625   4.200   1.357   6.428  1.0817 -0.4306 -0.2788
13070TIP3    H260626   4.137   1.493   6.448 -0.9367 -1.1418 -1.5145
13071TIP3   OH260627   6.716   2.634  15.356  0.1949 -0.2997 -0.1720
13071TIP3    H160628   6.785   2.610  15.295 -0.1184 -1.1607 -0.2035
13071TIP3    H260629   6.675   2.551  15.380  0.8562 -0.0952  1.8649
13072TIP3   OH260630   3.582   3.283   3.965  0.2887 -0.2292  0.3979
13072TIP3    H160631   3.568   3.229   3.887 -1.7586  1.4062 -0.4534
13072TIP3    H260632   3.496   3.286   4.007  0.5888  1.5318  0.9479
13073TIP3   OH260633   0.377   6.752  12.854  0.2358  0.0282  0.1569
13073TIP3    H160634   0.441   6.707  12.799  1.6731  3.1437 -0.9530
13073TIP3    H260635   0.429   6.805  12.914 -1.3519 -0.6679  2.2534
13074TIP3   OH260636   4.588   1.824  11.536  0.2387 -0.3057 -0.3312
13074TIP3    H160637   4.526   1.897  11.528 -0.3567 -0.8324 -0.6713
13074TIP3    H260638   4.627   1.817  11.449  2.3683  1.3645  0.4089
13075TIP3   OH260639   6.639   1.971   1.570  0.6359 -0.2723 -0.1304
13075TIP3    H160640   6.655   2.028   1.495  1.0747  0.8326  0.7721
13075TIP3    H260641   6.694   2.007   1.640 -0.6817 -0.5378  1.0759
13076TIP3   OH260642   3.090   5.305   1.824 -0.1135 -0.5433  0.2243
13076TIP3    H160643   3.071   5.349   1.741  0.2418 -1.1210 -0.1764
13076TIP3    H260644   3.017   5.329   1.881 -0.7167 -0.6746 -0.4711
13077TIP3   OH260645   2.831   5.188  10.522  0.0222  0.4615  0.4693
13077TIP3    H160646   2.800   5.259  10.465  2.4536  1.1732 -0.0653
13077TIP3    H260647   2.808   5.108  10.474  0.7548  1.0154 -0.8619
13078TIP3   OH260648   5.805   3.341   4.503 -0.1646 -0.5552  0.4811
13078TIP3    H160649   5.802   3.398   4.426  0.3964 -1.0190  0.0971
13078TIP3    H260650   5.715   3.312   4.515 -0.3650  0.0106  0.3759
13079TIP3   OH260651   6.609   2.555   5.536  0.3116 -0.3357 -0.0825
13079TIP3    H160652   6.525   2.594   5.560 -0.2140 -1.0428 -0.7075
13079TIP3    H260653   6.600   2.537   5.442  1.1090 -0.5543 -0.1221
13080TIP3   OH260654   0.388   1.613  13.580  0.2177  0.0865  0.1296
13080TIP3    H160655   0.349   1.585  13.662  1.0185  0.7839  0.7703
13080TIP3    H260656   0.357   1.703  13.567  0.0573 -0.0347 -0.3552
13081TIP3   OH260657   5.951   4.689  15.208 -0.7121  0.5248  0.1694
13081TIP3    H160658   6.043   4.710  15.219 -0.8422  1.9255 -1.1238
13081TIP3    H260659   5.950   4.604  15.164 -0.0770  0.0510  1.0480
13082TIP3   OH260660   3.443   5.035  12.321 -0.1577  0.2208  0.6815
13082TIP3    H160661   3.368   5.074  12.365 -0.2338  1.9408 -0.8224
13082TIP3    H260662   3.510   5.104  12.322  0.1111  0.0407 -1.1289
13083TIP3   OH260663   5.312   6.192  16.507  0.3064 -0.9880  0.1091
13083TIP3    H160664   5.344   6.257  16.445 -1.0087  0.1404  0.5595
13083TIP3    H260665   5.259   6.132  16.454 -2.4519  1.0691  0.2838
13084TIP3   OH260666   4.378   0.365   2.876 -0.0101  0.0949  0.5773
13084TIP3    H160667   4.423   0.355   2.791 -0.2610  0.6674  0.3702
13084TIP3    H260668   4.295   0.319   2.864  0.4038 -0.7617  0.8825
13085TIP3   OH260669   6.299   2.441  12.935  0.1374  0.2777 -0.0396
13085TIP3    H160670   6.223   2.481  12.892  0.4375  0.7673 -0.1203
13085TIP3    H260671   6.285   2.458  13.028  0.9913  1.8808 -0.1756
13086TIP3   OH260672   4.315   5.530  11.968 -0.3986 -0.1570 -0.3355
13086TIP3    H160673   4.246   5.464  11.972 -0.8258  0.3118  0.2021
13086TIP3    H260674   4.326   5.548  11.875  0.1021 -1.3655 -0.5289
13087TIP3   OH260675   2.202   6.032  12.478 -0.3461  0.3864 -0.1152
13087TIP3    H160676   2.290   6.069  12.470  0.2707 -0.4273  2.0707
13087TIP3    H260677   2.149   6.103  12.513 -0.4673  0.7543 -1.0347
13088TIP3   OH260678   6.286   4.367  14.712  0.4587 -0.1938  0.4330
13088TIP3    H160679   6.299   4.405  14.625 -1.9926 -0.5083 -0.1529
13088TIP3    H260680   6.302   4.439  14.772 -1.5270  1.1573 -0.5284
13089TIP3   OH260681   5.313   1.660  16.219  0.0320 -0.2582 -0.5502
13089TIP3    H160682   5.226   1.694  16.238  0.1302 -0.5662  0.5016
13089TIP3    H260683   5.346   1.717  16.149 -0.7427  0.2858 -0.4880
13090TIP3   OH260684   3.211   4.655   4.346 -0.2738 -0.7232  0.2769
13090TIP3    H160685   3.211   4.581   4.286 -0.4847  0.1133 -0.7985
13090TIP3    H260686   3.267   4.720   4.304  0.0986 -0.3564  1.3087
13091TIP3   OH260687   0.610   6.060  13.367 -0.0751  0.2529  0.4621
13091TIP3    H160688   0.530   6.109  13.385  0.5903  1.0558  1.3467
13091TIP3    H260689   0.590   6.009  13.289 -1.0419  1.3835 -0.0637
13092TIP3   OH260690   2.769   1.869  16.711 -0.0372 -0.2124 -0.1864
13092TIP3    H160691   2.843   1.927  16.694 -0.6215  0.4230 -0.6063
13092TIP3    H260692   2.808   1.782  16.722  0.9743  0.4313  1.6609
13093TIP3   OH260693   2.136   2.434   1.165 -0.2348 -0.7407  0.1288
13093TIP3    H160694   2.110   2.354   1.119  1.9034 -2.6464  1.9520
13093TIP3    H260695   2.071   2.445   1.234 -1.1917 -0.1780 -0.8322
13094TIP3   OH260696   4.050   4.333   2.153 -0.3936  0.1062  0.3623
13094TIP3    H160697   3.961   4.313   2.182 -1.0518  1.5893 -0.5006
13094TIP3    H260698   4.068   4.267   2.085 -1.1008  0.2102  0.0636
13095TIP3   OH260699   0.353   3.214  11.414 -0.5246  0.5180  0.2275
13095TIP3    H160700   0.267   3.185  11.382  0.2980 -1.1678 -0.5758
13095TIP3    H260701   0.404   3.230  11.335  0.8670 -1.6331  0.6029
13096TIP3   OH260702   5.331   4.728  13.900 -0.0475 -0.4208  0.0062
13096TIP3    H160703   5.359   4.817  13.876  0.5717 -0.1189  1.7102
13096TIP3    H260704   5.238   4.738  13.921  0.3761  0.2124  1.7713
13097TIP3   OH260705   4.301   1.803  13.015 -0.2989 -0.0392 -0.0454
13097TIP3    H160706   4.306   1.856  13.094 -1.4032 -1.1852  0.8234
13097TIP3    H260707   4.322   1.864  12.944 -0.8592  1.3900  0.9726
13098TIP3   OH260708   3.354   1.485  11.450 -0.9145  0.6261  0.0172
13098TIP3    H160709   3.296   1.479  11.527  0.2970  1.1667  1.0078
13098TIP3    H260710   3.341   1.402  11.404  0.0440 -0.7709  2.0968
13099TIP3   OH260711   1.254   6.642   2.583  0.4454  0.6287  0.2644
13099TIP3    H160712   1.238   6.725   2.538 -2.6533  0.4408  0.7631
13099TIP3    H260713   1.228   6.660   2.674  1.1171 -0.5069  0.6934
13100TIP3   OH260714   4.211   6.718  15.854 -0.4853 -0.0760  0.6443
13100TIP3    H160715   4.137   6.779  15.855  0.9766  2.0728 -2.6189
13100TIP3    H260716   4.196   6.664  15.777  1.0479  0.0908  0.1910
13101TIP3   OH260717   6.265   1.497  11.320  0.1290 -0.4760 -0.0105
13101TIP3    H160718   6.196   1.559  11.343  0.7096  0.2651 -0.1923
13101TIP3    H260719   6.242   1.467  11.232  0.8800  1.0566 -0.7875
13102TIP3   OH260720   6.772   5.891   5.244 -0.0495  0.3235  0.1019
13102TIP3    H160721   6.748   5.964   5.301  1.1097  0.1500  0.8206
13102TIP3    H260722   6.688   5.850   5.223 -0.6045  1.1286  0.6651
13103TIP3   OH260723   5.095   5.640   2.019 -0.2439 -0.0330 -0.5623
13103TIP3    H160724   5.037   5.634   1.942 -1.4009  0.2891  0.2573
13103TIP3    H260725   5.037   5.625   2.093  0.7043  0.5244  0.3053
13104TIP3   OH260726   4.501   0.469   5.882 -0.4890 -0.0863 -0.4045
13104TIP3    H160727   4.415   0.487   5.920 -0.5763 -1.3913  0.0387
13104TIP3    H260728   4.563   0.511   5.942 -0.7831  0.7012 -0.6286
13105TIP3   OH260729   4.896   1.079   0.540  0.1011 -0.1221 -0.0228
13105TIP3    H160730   4.852   1.069   0.455 -0.7006  3.1516 -0.1243
13105TIP3    H260731   4.828   1.113   0.598  1.7540  2.4775  0.5406
13106TIP3   OH260732   2.652   1.390   0.684  0.5437 -0.3523 -0.1512
13106TIP3    H160733   2.592   1.340   0.630  0.0855  0.2733 -0.2354
13106TIP3    H260734   2.696   1.450   0.623 -1.3099  1.6633  0.3615
13107TIP3   OH260735   5.009   2.344   6.059 -0.2462  0.1371 -0.2627
13107TIP3    H160736   4.927   2.389   6.039 -0.1104  0.2886 -0.4802
13107TIP3    H260737   4.982   2.262   6.100 -0.5120  1.7563  3.1698
13108TIP3   OH260738   5.538   1.849  13.376 -0.9840 -0.6403 -0.0048
13108TIP3    H160739   5.520   1.769  13.328 -0.8293 -0.2496 -0.7325
13108TIP3    H260740   5.505   1.919  13.320  2.5051  0.1256 -1.3719
13109TIP3   OH260741   2.978   3.803   0.281  0.0364 -0.0275  0.1413
13109TIP3    H160742   3.032   3.828   0.206 -3.1510  1.6084 -1.8180
13109TIP3    H260743   2.955   3.885   0.323 -0.2808 -0.7445  1.4168
13110TIP3   OH260744   3.489   0.676  14.460 -0.3368 -0.4315  0.2115
13110TIP3    H160745   3.469   0.590  14.424 -0.2673  0.0259 -0.9818
13110TIP3    H260746   3.584   0.677  14.471 -0.2686 -0.3121 -0.3411
13111TIP3   OH260747   6.706   0.857   0.808  0.1941 -0.0900 -0.3696
13111TIP3    H160748   6.786   0.910   0.805  0.5148 -0.5158  0.4257
13111TIP3    H260749   6.667   0.875   0.893 -0.1947 -0.4121 -0.4721
13112TIP3   OH260750   0.989   3.127  13.382 -0.3522  0.2664 -0.0611
13112TIP3    H160751   1.045   3.049  13.378 -0.5320 -0.0352  2.1109
13112TIP3    H260752   1.024   3.178  13.454 -1.7805  0.9581  0.1679
13113TIP3   OH260753   5.134   2.370  13.841  0.2176 -1.1234  0.1953
13113TIP3    H160754   5.227   2.347  13.831  0.6311  1.2690 -3.3362
13113TIP3    H260755   5.133   2.436  13.910  1.2853 -0.5215 -0.3473
13114TIP3   OH260756   1.613   1.027  15.308 -0.2198  0.3537  0.1178
13114TIP3    H160757   1.594   0.962  15.375  1.2028  1.0243  1.2092
13114TIP3    H260758   1.587   0.984  15.226 -1.3504 -0.7363  0.9972
13115TIP3   OH260759   6.282   0.910   3.838 -0.2350 -0.4541 -0.0708
13115TIP3    H160760   6.226   0.987   3.840 -0.0207 -0.2674 -0.8052
13115TIP3    H260761   6.255   0.863   3.759  0.7329 -0.2876 -0.5203
13116TIP3   OH260762   3.309   1.475  15.058 -0.5870  0.1207 -1.1509
13116TIP3    H160763   3.356   1.555  15.084 -1.9414  0.3379  0.8504
13116TIP3    H260764   3.235   1.507  15.006 -2.4455  0.5022  1.5223
13117TIP3   OH260765   5.131   3.574   0.013  0.0872 -0.0075  0.0041
13117TIP3    H160766   5.205   3.520   0.040  1.0160  2.1652  2.0909
13117TIP3    H260767   5.169   3.642  -0.042 -0.2507  1.2034  1.2018
13118TIP3   OH260768   0.787   4.966  11.754  0.3668 -0.2415  0.7508
13118TIP3    H160769   0.826   4.904  11.816  1.0827  1.2334  1.8292
13118TIP3    H260770   0.802   4.926  11.668  1.7135 -1.0832  1.3434
13119TIP3   OH260771   2.158   3.959   0.622 -0.0214 -0.3586  0.2269
13119TIP3    H160772   2.074   3.975   0.578 -0.4439 -2.2259  0.2856
13119TIP3    H260773   2.134   3.927   0.709  0.8018  2.9441  1.8578
13120TIP3   OH260774   5.753   5.697  11.452 -0.1240  0.0612 -0.2677
13120TIP3    H160775   5.835   5.739  11.478  0.2959 -1.4967  1.1087
13120TIP3    H260776   5.775   5.651  11.371  0.2641 -0.0517 -0.1021
13121TIP3   OH260777   3.060   2.691  14.112  0.1955 -0.3602  0.3755
13121TIP3    H160778   3.084   2.702  14.020  1.3988 -2.5266  0.3621
13121TIP3    H260779   3.086   2.773  14.153  0.3589  0.3525 -1.0635
13122TIP3   OH260780   4.288   4.846  11.125 -0.0744 -0.1085 -0.8572
13122TIP3    H160781   4.381   4.856  11.105  0.3305 -3.3865 -1.2104
13122TIP3    H260782   4.247   4.824  11.041 -0.6515 -1.3010 -0.2976
13123TIP3   OH260783   6.329   5.418  13.895  0.0613  0.4756  0.0973
13123TIP3    H160784   6.332   5.370  13.812 -0.4235  1.3810 -0.4560
13123TIP3    H260785   6.286   5.501  13.873  2.5110  1.9921  0.5996
13124TIP3   OH260786   5.282   5.836  14.834 -0.1419  0.3758  0.1657
13124TIP3    H160787   5.325   5.921  14.838  2.3156 -0.7841  0.1985
13124TIP3    H260788   5.342   5.776  14.877 -1.4289 -1.5266 -0.5363
13125TIP3   OH260789   1.114   6.223  12.820 -0.7493 -0.1649  0.4914
13125TIP3    H160790   1.119   6.275  12.740 -0.4723  0.8356  1.1442
13125TIP3    H260791   1.170   6.147  12.802 -0.3071  0.2860 -0.0956
13126TIP3   OH260792   5.106   3.382  14.332 -0.3965  0.0944 -0.2500
13126TIP3    H160793   5.072   3.432  14.406 -0.1351 -1.8080  1.2294
13126TIP3    H260794   5.156   3.446  14.281  1.1185  1.0738  2.2970
13127TIP3   OH260795   0.906   1.764  16.138  0.1315  0.8278  0.1084
13127TIP3    H160796   0.960   1.766  16.217  0.2949  1.8219 -0.0099
13127TIP3    H260797   0.886   1.672  16.124 -0.4312  0.6832  1.6703
13128TIP3   OH260798   4.927   6.066   0.475  0.0886  0.0856  0.3770
13128TIP3    H160799   5.003   6.104   0.520  0.8141 -1.2201  0.3156
13128TIP3    H260800   4.855   6.076   0.538  0.8046 -0.5815  1.3326
13129TIP3   OH260801   5.274   3.771   0.526  0.1634 -0.2286 -0.0915
13129TIP3    H160802   5.302   3.834   0.592 -1.3377  1.7209 -1.1924
13129TIP3    H260803   5.346   3.767   0.464  1.1726 -1.3132  1.1069
13130TIP3   OH260804   2.652   3.323  15.043  0.3318 -0.3556  0.3699
13130TIP3    H160805   2.711   3.265  14.995  3.9922  2.1793  1.3304
13130TIP3    H260806   2.612   3.267  15.109  1.2893 -2.3324 -0.6265
13131TIP3   OH260807   3.250   5.483  12.804  0.0993 -0.4084 -0.1341
13131TIP3    H160808   3.265   5.389  12.805 -1.5481 -0.6998 -0.2639
13131TIP3    H260809   3.211   5.501  12.719  0.3334  0.3752 -0.0841
13132TIP3   OH260810   5.889   1.247  16.082  0.1669  0.6689  0.7257
13132TIP3    H160811   5.947   1.291  16.144  0.3459 -0.3993  1.3393
13132TIP3    H260812   5.946   1.216  16.012  0.3540 -0.3401  1.3056
13133TIP3   OH260813   2.358   2.467   1.773  0.0530 -0.3577  0.3398
13133TIP3    H160814   2.399   2.430   1.694 -0.4380 -0.7389  0.2662
13133TIP3    H260815   2.345   2.560   1.751 -0.0136 -0.4462  0.0006
13134TIP3   OH260816   0.406   0.425  16.688 -0.2849 -0.2432  0.7083
13134TIP3    H160817   0.440   0.346  16.646  1.7494  1.6311 -1.4092
13134TIP3    H260818   0.323   0.443  16.643 -0.1448 -0.4896  0.3554
13135TIP3   OH260819   0.433   6.749   2.398  0.4771  0.2923  0.1451
13135TIP3    H160820   0.420   6.835   2.358 -1.7327 -0.3456 -0.6573
13135TIP3    H260821   0.510   6.713   2.354 -0.6929  0.4358 -2.1567
13136TIP3   OH260822   2.248   5.085   1.362  0.5872  0.6916 -0.2379
13136TIP3    H160823   2.305   5.151   1.322  0.4373  3.1827  3.1522
13136TIP3    H260824   2.166   5.132   1.380 -0.8021 -1.4349 -0.6793
13137TIP3   OH260825   4.417   3.830  16.859 -0.1585  0.3413  0.8184
13137TIP3    H160826   4.428   3.830  16.764 -2.5903 -0.7624  0.4768
13137TIP3    H260827   4.505   3.816  16.894  0.7563  0.6609 -1.2501
13138TIP3   OH260828   2.126   2.961   1.876  0.2663 -0.4072 -0.2678
13138TIP3    H160829   2.052   2.982   1.934  0.0305  2.3660 -1.4119
13138TIP3    H260830   2.202   3.000   1.919  0.9461 -2.3513  0.3855
13139TIP3   OH260831   5.913   1.434  12.728  0.0441 -0.0392  1.2106
13139TIP3    H160832   5.836   1.395  12.686 -1.1409  1.7076  1.5966
13139TIP3    H260833   5.907   1.527  12.705  2.3563  0.0601  0.8531
13140TIP3   OH260834   3.199   3.836   4.674 -0.2493 -0.0651  0.2095
13140TIP3    H160835   3.151   3.818   4.593  0.6471  1.8042 -0.7986
13140TIP3    H260836   3.178   3.927   4.695  2.9859  0.9625 -0.4404
13141TIP3   OH260837   4.244   1.540   4.205  0.1608 -0.3404  0.2896
13141TIP3    H160838   4.265   1.507   4.117  0.4704 -0.3541  0.3666
13141TIP3    H260839   4.329   1.564   4.242  0.1366 -1.1772  0.9305
13142TIP3   OH260840   4.806   5.559  12.846  0.2062  0.5640 -0.3096
13142TIP3    H160841   4.802   5.617  12.770 -2.3759  0.7420 -0.1085
13142TIP3    H260842   4.717   5.557  12.880  0.7686 -1.4848  1.2527
13143TIP3   OH260843   2.719   5.558  15.706  0.3855  0.0810  0.0779
13143TIP3    H160844   2.692   5.482  15.757  2.7222 -0.8336  0.0662
13143TIP3    H260845   2.802   5.586  15.746 -0.4789  2.7699  0.1925
13144TIP3   OH260846   6.298   4.041   3.798  0.2907  0.4315  0.4195
13144TIP3    H160847   6.271   4.127   3.830  0.5905  1.3234 -1.5969
13144TIP3    H260848   6.388   4.031   3.828  0.9922  1.8009 -1.1126
13145TIP3   OH260849   6.029   5.943   4.328 -0.4231 -0.0417  0.8051
13145TIP3    H160850   6.085   5.963   4.253  0.5305 -1.2698  1.1661
13145TIP3    H260851   6.083   5.890   4.386 -2.1338 -1.8658  0.8675
13146TIP3   OH260852   5.827   1.353  16.888 -1.0939 -0.5256 -0.3150
13146TIP3    H160853   5.733   1.337  16.886 -1.6369  2.2634 -0.6008
13146TIP3    H260854   5.854   1.325  16.976 -2.4796 -0.0651  0.2935
13147TIP3   OH260855   3.092   6.279   0.043  0.3874  0.8070 -0.3525
13147TIP3    H160856   3.069   6.188   0.063  1.1452  0.9241  1.2656
13147TIP3    H260857   3.009   6.326   0.048 -0.0531  0.1758 -1.4701
13148TIP3   OH260858   6.411   3.387  12.977 -0.2992 -0.0481  0.0789
13148TIP3    H160859   6.403   3.476  13.011 -2.5303 -0.0192 -0.3311
13148TIP3    H260860   6.503   3.377  12.956 -0.0868  2.3911 -0.4091
13149TIP3   OH260861   1.691   0.164  15.126  0.4800 -0.3340  0.2334
13149TIP3    H160862   1.759   0.231  15.122 -0.4227  0.5628 -0.6579
13149TIP3    H260863   1.727   0.089  15.079  0.7436  0.2385 -0.4778
13150TIP3   OH260864   5.023   2.357  13.536  0.1489 -0.0269  0.0263
13150TIP3    H160865   4.997   2.299  13.464  2.6176 -0.8424 -0.2887
13150TIP3    H260866   5.007   2.305  13.615  0.5964 -0.4411 -0.1498
13151TIP3   OH260867   6.619   1.557  12.507 -0.3882 -0.2494  0.1291
13151TIP3    H160868   6.666   1.624  12.558 -1.7242  0.6047  0.2990
13151TIP3    H260869   6.574   1.504  12.573 -1.5788  0.4393 -0.1067
13152TIP3   OH260870   5.947   2.482  15.759 -0.1078 -0.1590  0.2918
13152TIP3    H160871   5.933   2.390  15.741 -1.4602 -0.1028  0.9313
13152TIP3    H260872   5.873   2.507  15.815  1.0121  0.9483  1.3310
13153TIP3   OH260873   0.854   3.857   0.958 -0.2290 -0.0358 -0.0729
13153TIP3    H160874   0.797   3.934   0.967  0.0100  0.1154  0.1707
13153TIP3    H260875   0.916   3.881   0.890 -3.0628 -1.8073 -3.6449
13154TIP3   OH260876   0.407   4.914   1.514 -0.0171 -0.1122  0.0875
13154TIP3    H160877   0.337   4.968   1.551 -0.3392 -1.7370  2.0712
13154TIP3    H260878   0.457   4.974   1.459 -1.6847  1.6193  0.3292
13155TIP3   OH260879   1.402   5.691  16.622  0.2065  0.0949 -0.2472
13155TIP3    H160880   1.368   5.770  16.580  0.8523  0.9497  0.8040
13155TIP3    H260881   1.468   5.659  16.560  1.5914  1.6857  0.3342
13156TIP3   OH260882   4.513   2.028   0.805  0.1223  0.3352 -0.2013
13156TIP3    H160883   4.507   2.024   0.901  0.0271 -0.0903 -0.2224
13156TIP3    H260884   4.427   1.999   0.774  0.1124  0.5919 -0.4128
13157TIP3   OH260885   6.656   1.312  11.658  0.8184  0.4663 -0.0020
13157TIP3    H160886   6.581   1.344  11.608 -0.3261 -2.1359 -0.1019
13157TIP3    H260887   6.703   1.254  11.597  1.1650 -0.3129  0.9810
13158TIP3   OH260888   3.055   2.580  11.766  0.0098  0.3308  0.0999
13158TIP3    H160889   3.027   2.510  11.708  1.5404 -0.0845 -0.1827
13158TIP3    H260890   3.003   2.656  11.741 -0.3405 -0.2191 -0.8551
13159TIP3   OH260891   0.469   6.176  15.503 -0.5319 -0.0069 -0.3144
13159TIP3    H160892   0.459   6.207  15.413  1.5727 -1.3213 -1.0612
13159TIP3    H260893   0.471   6.080  15.496  0.2982 -0.1242  1.0340
13160TIP3   OH260894   4.368   6.359   1.865  0.3450  0.4063 -0.4018
13160TIP3    H160895   4.310   6.391   1.934 -0.1039  2.4812 -1.6350
13160TIP3    H260896   4.380   6.266   1.884  0.5004  0.9391  2.6018
13161TIP3   OH260897   5.896   5.418  14.943  0.0384  0.6435 -0.4723
13161TIP3    H160898   5.911   5.331  14.979  0.6003  0.8249 -0.2438
13161TIP3    H260899   5.813   5.446  14.982  1.0255  1.1731  1.4264
13162TIP3   OH260900   4.417   0.286  16.376 -0.2190  0.2520  0.7911
13162TIP3    H160901   4.499   0.283  16.425  0.1452  0.1397  0.1733
13162TIP3    H260902   4.442   0.278  16.284 -1.0472 -2.2306  0.6869
13163TIP3   OH260903   0.731   0.366   2.907  0.2432  0.3034  0.1141
13163TIP3    H160904   0.805   0.382   2.849  0.7968  0.2970  0.8087
13163TIP3    H260905   0.755   0.286   2.955 -0.7822 -0.4387 -0.5623
13164TIP3   OH260906   2.668   1.433  14.555 -0.2107  0.4208  0.3261
13164TIP3    H160907   2.684   1.349  14.512  0.0168  0.4553  0.3414
13164TIP3    H260908   2.667   1.411  14.649 -0.1122  0.4412  0.3321
13165TIP3   OH260909   1.978   0.336   4.023  0.6095  0.2505 -0.3226
13165TIP3    H160910   2.013   0.257   3.982 -0.1965 -0.7376  0.8414
13165TIP3    H260911   2.055   0.383   4.054  1.0431 -1.2432  1.0294
13166TIP3   OH260912   3.671   1.655  10.841 -0.1848 -0.1406  0.5061
13166TIP3    H160913   3.746   1.610  10.805 -0.3065 -1.1886  1.5267
13166TIP3    H260914   3.659   1.732  10.784  1.2987 -0.2545  0.0183
13167TIP3   OH260915   1.871   5.402  15.865 -0.3106  0.4207  0.4119
13167TIP3    H160916   1.789   5.353  15.854  1.0049 -1.5075 -1.5603
13167TIP3    H260917   1.931   5.339  15.905  1.1698  0.6486 -1.3337
13168TIP3   OH260918   6.772   3.085   0.534 -0.1057  0.1872  0.3475
13168TIP3    H160919   6.725   3.111   0.613 -3.6783  0.9073 -1.8150
13168TIP3    H260920   6.774   3.164   0.480  0.3437 -0.8038 -1.1589
13169TIP3   OH260921   4.618   2.260   1.550 -0.2322 -0.6241  0.1554
13169TIP3    H160922   4.562   2.286   1.623 -1.8362 -0.5912 -1.0533
13169TIP3    H260923   4.657   2.177   1.578  1.2399  0.6023  2.0854
13170TIP3   OH260924   3.590   2.290   5.641 -0.2221 -0.4562 -0.2150
13170TIP3    H160925   3.499   2.281   5.613 -0.9967  0.3854  1.8429
13170TIP3    H260926   3.593   2.375   5.686  1.7670 -0.1193 -0.8865
13171TIP3   OH260927   6.378   1.239   0.249  0.2688 -0.1319 -0.3436
13171TIP3    H160928   6.346   1.204   0.166 -0.6572 -1.0299  0.3598
13171TIP3    H260929   6.440   1.173   0.281 -0.3409 -0.4201  0.2717
13172TIP3   OH260930   1.904   1.166  11.393  0.0033 -0.2081  0.5277
13172TIP3    H160931   1.904   1.199  11.482 -0.5334  1.1956  0.0362
13172TIP3    H260932   1.867   1.237  11.341 -1.9528 -1.8794 -0.5133
13173TIP3   OH260933   4.171   1.931  16.187 -0.1522 -0.1085 -0.1626
13173TIP3    H160934   4.113   1.883  16.128  0.1111 -0.0858 -0.4412
13173TIP3    H260935   4.129   2.016  16.198 -0.3239 -0.1979 -0.1270
13174TIP3   OH260936   5.019   1.195   3.003  0.0488 -0.6304  0.1120
13174TIP3    H160937   5.049   1.116   3.048  0.2729  0.7531  2.5712
13174TIP3    H260938   5.028   1.174   2.910  2.9377 -2.4290  0.6671
13175TIP3   OH260939   2.443   5.174  12.344 -0.0138 -0.5712 -0.6542
13175TIP3    H160940   2.471   5.140  12.429  2.3519 -0.6323 -1.3724
13175TIP3    H260941   2.508   5.140  12.282  0.0284  1.7536 -2.0391
13176TIP3   OH260942   2.617   6.264   4.204  0.3194 -0.1453  0.6179
13176TIP3    H160943   2.549   6.201   4.232 -1.6541  0.7682 -1.7301
13176TIP3    H260944   2.574   6.349   4.211  1.5583  0.5561 -0.1163
13177TIP3   OH260945   0.719   4.943   5.467  0.4048 -0.1268 -0.6088
13177TIP3    H160946   0.671   4.908   5.392  0.8207 -2.2401  0.0440
13177TIP3    H260947   0.659   5.005   5.508 -0.2027  0.3014 -2.0882
13178TIP3   OH260948   1.993   5.073  14.519 -0.0078  0.1736  0.5931
13178TIP3    H160949   1.973   5.114  14.435  0.9233 -1.6717 -0.6050
13178TIP3    H260950   1.923   5.010  14.532  0.6324 -0.5843  0.4387
13179TIP3   OH260951   1.788   6.769  11.814 -0.0644  0.3537 -0.1196
13179TIP3    H160952   1.822   6.856  11.832  0.9198 -0.3284  1.4886
13179TIP3    H260953   1.832   6.712  11.876 -1.6292 -1.1230 -0.2795
13180TIP3   OH260954   0.892   4.161   4.259 -0.6247  0.5128 -0.5793
13180TIP3    H160955   0.908   4.147   4.166  0.4198 -1.5959 -0.1554
13180TIP3    H260956   0.804   4.125   4.274  0.0304 -1.1327 -0.4315
13181TIP3   OH260957   6.234   3.207   2.141  0.6121  0.6075 -0.5959
13181TIP3    H160958   6.296   3.142   2.173 -1.0211 -0.3394  0.8491
13181TIP3    H260959   6.282   3.290   2.143  1.7593 -0.0557  0.7023
13182TIP3   OH260960   1.241   0.589  16.433 -0.0303  0.0635  0.7426
13182TIP3    H160961   1.321   0.637  16.453  0.3439 -1.0071  1.9428
13182TIP3    H260962   1.171   0.644  16.468  0.3514 -0.0224  1.6528
13183TIP3   OH260963   3.046   5.183  16.388 -0.0426  0.4358 -0.6858
13183TIP3    H160964   3.034   5.104  16.335 -1.9995  0.4672 -0.3732
13183TIP3    H260965   3.115   5.232  16.344  0.8496 -1.1839 -1.1791
13184TIP3   OH260966   3.782   1.158  10.629 -0.0459  0.6268  0.7245
13184TIP3    H160967   3.688   1.151  10.647 -0.6960  2.7921 -1.2899
13184TIP3    H260968   3.816   1.069  10.641 -2.6754 -0.6007 -0.2150
13185TIP3   OH260969   2.788   5.881  16.427 -0.0327 -0.2199  0.0291
13185TIP3    H160970   2.868   5.922  16.460  0.1489  1.3027 -2.1261
13185TIP3    H260971   2.818   5.815  16.365 -0.3716  1.2460 -1.7879
13186TIP3   OH260972   3.103   6.691  13.799 -0.4639 -0.4910  0.2026
13186TIP3    H160973   3.069   6.716  13.713 -1.3216  2.3575  1.2318
13186TIP3    H260974   3.148   6.770  13.830  2.8620 -2.5440  1.0005
13187TIP3   OH260975   5.333   1.765  12.721 -0.9427  0.1618  0.0965
13187TIP3    H160976   5.306   1.725  12.638 -0.6479  1.5675 -0.7060
13187TIP3    H260977   5.386   1.697  12.763 -1.0140 -0.5441 -0.9083
13188TIP3   OH260978   0.518   2.271  16.351 -0.0776 -0.2368 -0.2508
13188TIP3    H160979   0.497   2.183  16.382 -1.2512  0.7836  2.1567
13188TIP3    H260980   0.439   2.300  16.304  1.0552 -1.1351 -2.8618
13189TIP3   OH260981   0.389   0.938  15.855 -0.2224  0.1757 -0.0177
13189TIP3    H160982   0.418   0.987  15.778  0.4805  1.2329  0.8901
13189TIP3    H260983   0.465   0.883  15.878 -0.3201  0.0853  0.0930
13190TIP3   OH260984   0.497   0.983   3.939  0.0610 -0.2231 -0.7670
13190TIP3    H160985   0.443   0.968   4.017  0.3373  0.9703 -0.3209
13190TIP3    H260986   0.580   1.014   3.973  0.4090 -0.2989 -1.5272
13191TIP3   OH260987   5.691   5.628   4.855 -0.3173 -0.5224  0.0339
13191TIP3    H160988   5.699   5.535   4.874  0.7849 -0.6386 -0.8807
13191TIP3    H260989   5.645   5.632   4.772  0.2787 -0.2983 -0.2955
13192TIP3   OH260990   1.634   6.783   4.715  0.3565 -0.0865  0.0546
13192TIP3    H160991   1.703   6.837   4.679  0.3788 -0.9701 -1.2801
13192TIP3    H260992   1.602   6.731   4.641 -1.4644  0.0101  0.7119
13193TIP3   OH260993   5.698   0.896   2.098 -0.3463 -0.0466  0.3500
13193TIP3    H160994   5.687   0.869   2.189  0.8166 -0.8246  0.2858
13193TIP3    H260995   5.718   0.990   2.103  0.3159 -0.2072  0.9560
13194TIP3   OH260996   5.643   0.175  13.584 -0.5014 -0.5542 -0.1053
13194TIP3    H160997   5.708   0.243  13.565 -0.2598 -1.0354 -1.0740
13194TIP3    H260998   5.644   0.168  13.680 -0.3891  0.6549  0.0058
13195TIP3   OH260999   2.278   1.721  12.047 -0.4347  0.5232  0.0152
13195TIP3    H161000   2.249   1.793  12.104  0.1623  1.6235 -1.0289
13195TIP3    H261001   2.215   1.651  12.063 -2.6875  2.2239 -0.9110
13196TIP3   OH261002   1.125   6.414  14.249 -0.8535  0.0283 -0.0085
13196TIP3    H161003   1.210   6.451  14.227 -1.1198  0.4249 -0.3925
13196TIP3    H261004   1.109   6.441  14.340 -1.6090  1.9796 -0.6652
13197TIP3   OH261005   1.413   4.089   5.793  0.2253 -0.6718 -0.2554
13197TIP3    H161006   1.410   4.124   5.704  0.4862 -1.2281 -0.4869
13197TIP3    H261007   1.487   4.028   5.793  0.9379  0.1709  0.6627
13198TIP3   OH261008   5.779   6.275  12.973  0.0051 -0.0235  0.2111
13198TIP3    H161009   5.774   6.182  12.951 -0.3675 -0.1223  0.7075
13198TIP3    H261010   5.816   6.277  13.062  2.2726  0.4027 -0.6596
13199TIP3   OH261011   3.697   0.367  14.448 -0.1033  1.1980 -0.0886
13199TIP3    H161012   3.722   0.459  14.450  1.9147  0.6998  0.0349
13199TIP3    H261013   3.752   0.328  14.380 -0.4028 -0.0574  0.3526
13200TIP3   OH261014   5.646   4.312   5.049  0.5758 -0.6893 -0.1924
13200TIP3    H161015   5.659   4.220   5.027  3.6674 -0.2175 -0.7460
13200TIP3    H261016   5.678   4.319   5.139  2.0557  0.1207 -0.7547
13201TIP3   OH261017   1.930   2.601  13.844 -0.1597 -0.4022  0.0696
13201TIP3    H161018   1.900   2.554  13.766 -1.5366 -2.4240  1.6887
13201TIP3    H261019   2.020   2.625  13.825 -0.5243 -0.6484 -2.2076
13202TIP3   OH261020   0.030   1.216  15.391 -0.1536  0.1853  0.2036
13202TIP3    H161021   0.011   1.298  15.346  1.9786  1.2692  1.1526
13202TIP3    H261022   0.029   1.238  15.484  0.1154 -0.9313  0.4888
13203TIP3   OH261023   3.023   4.162   0.229 -0.2468  0.3835 -0.9251
13203TIP3    H161024   3.011   4.159   0.324 -1.0436  1.1633 -0.9843
13203TIP3    H261025   2.942   4.127   0.193  0.0342  0.1303 -1.3249
13204TIP3   OH261026   1.375   2.696   0.997 -0.4985 -0.4699 -0.0115
13204TIP3    H161027   1.309   2.726   1.059 -0.1660 -1.3833  0.8168
13204TIP3    H261028   1.405   2.775   0.952  0.1906  0.4349  1.9187
13205TIP3   OH261029   0.258   0.902  11.060 -0.0565 -0.1708 -0.3083
13205TIP3    H161030   0.283   0.955  11.136 -2.2789 -0.4923  0.7115
13205TIP3    H261031   0.296   0.948  10.985  2.1972  0.1607  0.9524
13206TIP3   OH261032   3.885   1.304   2.528  0.2245  0.0249  0.1350
13206TIP3    H161033   3.916   1.390   2.503  0.5010 -0.0198  0.3127
13206TIP3    H261034   3.844   1.269   2.450 -0.4054  0.5475  0.2246
13207TIP3   OH261035   0.983   0.417  10.636  0.0565 -0.4058 -0.4712
13207TIP3    H161036   1.050   0.476  10.672 -0.3047  0.4824 -1.2291
13207TIP3    H261037   0.993   0.336  10.687  1.1364  0.0043  0.0025
13208TIP3   OH261038   2.720   0.066   5.250  0.1794 -0.3889 -0.2825
13208TIP3    H161039   2.779   0.010   5.300 -3.1601 -2.3378  1.8592
13208TIP3    H261040   2.748   0.056   5.159  1.3599 -3.4967  0.3067
13209TIP3   OH261041   2.077   0.309   0.325  0.3398  0.6159 -0.6942
13209TIP3    H161042   2.004   0.330   0.382 -0.5690 -0.1260 -1.5414
13209TIP3    H261043   2.136   0.385   0.332  0.4952  0.3540  1.5241
13210TIP3   OH261044   4.375   2.986  14.042  0.6927 -0.4055  0.5922
13210TIP3    H161045   4.391   3.050  14.111 -0.3697 -0.0034  0.4793
13210TIP3    H261046   4.287   2.952  14.060  0.3942 -0.2928 -0.5448
13211TIP3   OH261047   2.259   1.291  10.531  0.6349 -0.1466  0.7062
13211TIP3    H161048   2.268   1.206  10.489 -0.9898  0.1619 -0.3514
13211TIP3    H261049   2.164   1.305  10.538  0.8634  1.4202  1.1840
13212TIP3   OH261050   4.028   6.171  13.521  0.4829  0.3876  0.4127
13212TIP3    H161051   3.938   6.202  13.512  0.7159  1.2116  0.8563
13212TIP3    H261052   4.022   6.097  13.581  0.1135  0.4693  0.4789
13213TIP3   OH261053   4.123   2.916  15.973 -0.6391  0.6407  0.0351
13213TIP3    H161054   4.051   2.956  16.022 -2.1455 -0.5742 -1.1240
13213TIP3    H261055   4.081   2.860  15.908  1.3649 -0.8566 -0.0738
13214TIP3   OH261056   3.243   3.577   5.725 -0.1508 -0.6674  0.2272
13214TIP3    H161057   3.250   3.541   5.813 -0.5140 -1.7047 -0.1481
13214TIP3    H261058   3.331   3.606   5.704  0.1836 -1.4279  0.5225
13215TIP3   OH261059   6.073   1.353   5.794 -0.1333  0.2248 -0.0699
13215TIP3    H161060   6.016   1.426   5.769 -0.2634 -0.2240 -1.1431
13215TIP3    H261061   6.014   1.278   5.803  0.1998 -0.1218 -0.6601
13216TIP3   OH261062   4.181   0.044   2.657  0.1007 -0.3249  0.3991
13216TIP3    H161063   4.160  -0.008   2.580 -0.4911 -1.9234  1.5835
13216TIP3    H261064   4.268   0.012   2.684 -0.3567 -0.8736  1.2528
13217TIP3   OH261065   3.041   2.687  15.276 -0.3765 -0.1757 -0.1247
13217TIP3    H161066   2.964   2.635  15.255 -1.6228  0.8378  1.7052
13217TIP3    H261067   3.089   2.634  15.341  1.2838 -1.4230 -2.2194
13218TIP3   OH261068   2.309   1.867   0.937  0.1918  0.3403 -0.0978
13218TIP3    H161069   2.277   1.911   1.016  2.2084 -2.9257  2.7750
13218TIP3    H261070   2.397   1.903   0.923  0.8710 -0.9370  0.7772
13219TIP3   OH261071   1.121   3.834  10.776  0.7704  0.5598  0.1169
13219TIP3    H161072   1.180   3.840  10.701 -1.8686 -0.2927 -2.2385
13219TIP3    H261073   1.099   3.741  10.782 -1.1342  0.9568  0.1174
13220TIP3   OH261074   1.406   2.075  14.205  0.0880 -0.0133  0.2429
13220TIP3    H161075   1.312   2.094  14.196  0.2824  0.3530 -1.4516
13220TIP3    H261076   1.424   2.013  14.135  0.6975 -1.8507  1.9565
13221TIP3   OH261077   4.925   2.447  12.689  0.1209 -0.1964  0.5619
13221TIP3    H161078   4.879   2.364  12.704 -1.3002  0.6764  1.2868
13221TIP3    H261079   4.997   2.424  12.631 -0.1703 -1.9576  0.8259
13222TIP3   OH261080   4.694   4.812  16.159 -0.2114 -0.0882 -0.0493
13222TIP3    H161081   4.738   4.737  16.198  0.1230 -0.5336 -1.2441
13222TIP3    H261082   4.764   4.874  16.138 -0.6032  1.2284  2.2248
13223TIP3   OH261083   3.051   6.463   1.058  0.5359 -0.1623  0.1187
13223TIP3    H161084   3.108   6.447   0.982 -0.9256 -1.0399 -0.8457
13223TIP3    H261085   3.027   6.376   1.088 -1.1021  0.1650 -0.1510
13224TIP3   OH261086   3.769   6.211   1.917  0.7105  0.2377  0.6008
13224TIP3    H161087   3.686   6.164   1.911  0.7777  0.2812 -1.5961
13224TIP3    H261088   3.746   6.296   1.956 -0.2757  0.2272  0.0691
13225TIP3   OH261089   0.022   2.198  11.522 -0.0418  0.1711  0.1871
13225TIP3    H161090   0.002   2.163  11.609  0.9037  0.1534  0.3999
13225TIP3    H261091   0.099   2.254  11.535  0.4715 -0.3017 -0.7419
13226TIP3   OH261092   4.413   2.113  12.416 -0.3398  0.5718  0.2702
13226TIP3    H161093   4.372   2.136  12.333 -2.2886 -0.7615  0.8026
13226TIP3    H261094   4.486   2.174  12.425 -0.2368  0.8976 -2.2820
13227TIP3   OH261095   0.985   3.467   0.615  0.3280 -0.3676 -0.4398
13227TIP3    H161096   0.902   3.495   0.656  1.8256 -0.7218  3.1781
13227TIP3    H261097   0.978   3.372   0.610  1.0455 -0.5429  1.3185
13228TIP3   OH261098   4.726   6.745   5.382 -0.0983  0.3840 -0.5849
13228TIP3    H161099   4.652   6.802   5.403 -0.5386 -0.0619 -0.9026
13228TIP3    H261100   4.687   6.658   5.372  0.7646 -0.2558  1.2662
13229TIP3   OH261101   1.272   5.529   3.478 -0.1366  0.4643 -0.2050
13229TIP3    H161102   1.180   5.553   3.484 -0.1887  0.1014  0.4909
13229TIP3    H261103   1.303   5.571   3.398 -1.5657 -1.5882 -1.9551
13230TIP3   OH261104   2.435   2.113   4.649 -0.4379 -0.7390  0.1315
13230TIP3    H161105   2.453   2.121   4.555  0.3690 -0.6282  0.2938
13230TIP3    H261106   2.372   2.041   4.654 -0.0125 -1.1636 -0.4458
13231TIP3   OH261107   4.204   1.223   2.898 -0.4205  0.2971 -0.1648
13231TIP3    H161108   4.234   1.147   2.848 -0.2937 -0.6548  1.2750
13231TIP3    H261109   4.175   1.286   2.832  1.9275  0.0745 -1.5112
13232TIP3   OH261110   5.536   6.728   2.608 -0.4442  0.0948 -0.1496
13232TIP3    H161111   5.533   6.821   2.585  0.1910  0.0227 -0.5502
13232TIP3    H261112   5.609   6.693   2.556  0.3835 -0.2878  1.2075
13233TIP3   OH261113   5.720   4.641   1.604 -0.3569 -0.4450  0.1594
13233TIP3    H161114   5.794   4.701   1.599  0.3128 -1.3152 -1.2630
13233TIP3    H261115   5.759   4.557   1.631 -1.2379 -0.3270  1.9286
13234TIP3   OH261116   3.056   0.483   0.276  0.0279  0.3801  0.4994
13234TIP3    H161117   3.078   0.568   0.238  2.0658  0.1741  1.0985
13234TIP3    H261118   3.032   0.503   0.366  0.9080  0.3132  0.7615
13235TIP3   OH261119   4.656   5.346   1.308 -0.0975  0.1982  0.1326
13235TIP3    H161120   4.565   5.327   1.331 -0.2541  0.3180 -0.3841
13235TIP3    H261121   4.701   5.355   1.392 -0.6467  0.5450  0.3896
13236TIP3   OH261122   5.462   0.036   0.408 -0.2893  0.3527 -1.2052
13236TIP3    H161123   5.410   0.117   0.407 -1.2013 -0.2278 -2.1859
13236TIP3    H261124   5.549   0.063   0.378 -0.2966  1.1427 -0.5668
13237TIP3   OH261125   4.189   2.260  16.978 -0.0157  0.0799 -0.3521
13237TIP3    H161126   4.212   2.268  16.885  1.3925 -1.3127 -0.1581
13237TIP3    H261127   4.271   2.275  17.025 -0.2075 -1.4413  0.5413
13238TIP3   OH261128   1.889   5.998  17.082  0.1496  0.0381 -0.1221
13238TIP3    H161129   1.803   5.969  17.113 -0.7211  0.0256 -2.3238
13238TIP3    H261130   1.951   5.938  17.122 -1.1677 -1.7922 -0.7065
13239TIP3   OH261131   3.700   5.163   2.622  0.1470  0.7334 -0.0429
13239TIP3    H161132   3.743   5.088   2.663 -0.5510  0.8368  0.9211
13239TIP3    H261133   3.737   5.168   2.534 -0.0111 -0.9266 -0.2311
13240TIP3   OH261134   4.014   4.210   4.135  0.1431 -0.2483  0.2636
13240TIP3    H161135   3.963   4.287   4.160  0.1688  1.1353 -3.3346
13240TIP3    H261136   3.949   4.149   4.099  0.6371  1.5681 -4.4482
13241TIP3   OH261137   6.721   0.315  11.963 -0.1203  0.0843 -0.5807
13241TIP3    H161138   6.665   0.374  11.913  0.0661  0.6408 -0.1357
13241TIP3    H261139   6.786   0.372  12.005  0.9947 -0.5774 -1.3521
13242TIP3   OH261140   6.332   4.359   0.234  0.5995  0.0600 -0.5010
13242TIP3    H161141   6.384   4.296   0.185  2.6145  1.1987  0.0665
13242TIP3    H261142   6.303   4.423   0.169  2.8486  1.2920 -0.3898
13243TIP3   OH261143   0.475   2.176   4.426  0.0295 -0.2445 -0.4290
13243TIP3    H161144   0.479   2.138   4.514 -2.2881  1.7249  0.6386
13243TIP3    H261145   0.418   2.116   4.377 -0.6566 -0.0967  0.1626
13244TIP3   OH261146   5.222   3.485   3.369 -0.0895 -0.1858 -0.9364
13244TIP3    H161147   5.277   3.563   3.358 -0.5657  0.2406 -0.3460
13244TIP3    H261148   5.279   3.413   3.344  0.2941  0.3620 -1.7001
13245TIP3   OH261149   5.062   4.608  15.757  0.4884 -0.1445  0.7581
13245TIP3    H161150   5.039   4.518  15.780  0.5384 -0.3316  0.1115
13245TIP3    H261151   5.084   4.604  15.664 -0.4899  0.7289  0.4782
13246TIP3   OH261152   2.931   2.915   5.623 -0.2111 -0.0044 -0.0603
13246TIP3    H161153   2.905   2.955   5.706 -2.4094 -1.9234  0.2665
13246TIP3    H261154   2.871   2.953   5.559  1.3784  1.3557 -0.8215
13247TIP3   OH261155   1.676   2.439  11.247  0.1922  0.2264 -0.2330
13247TIP3    H161156   1.586   2.428  11.215  0.1002 -3.2114  0.8310
13247TIP3    H261157   1.720   2.488  11.178 -2.3646  1.6526 -0.9705
13248TIP3   OH261158   2.028   2.556   5.590 -0.4887 -0.1285 -0.1198
13248TIP3    H161159   1.986   2.616   5.529  0.1367  0.6821  0.2333
13248TIP3    H261160   1.958   2.532   5.651 -0.5186  1.0136  0.3179
13249TIP3   OH261161   5.252   2.488   1.517 -0.2642 -0.3637 -0.0002
13249TIP3    H161162   5.181   2.480   1.581 -1.2869 -1.0105 -1.1818
13249TIP3    H261163   5.281   2.398   1.502 -1.0024 -0.3677 -1.4913
13250TIP3   OH261164   6.253   2.812   0.341  0.4007 -0.9039  0.2879
13250TIP3    H161165   6.270   2.754   0.416  0.4256 -1.0351  0.1820
13250TIP3    H261166   6.186   2.872   0.372  1.2322 -0.2230  0.7886
13251TIP3   OH261167   1.889   4.667   3.459 -0.2791  0.5966  0.7222
13251TIP3    H161168   1.848   4.582   3.450 -0.3385  0.8606 -2.7409
13251TIP3    H261169   1.816   4.728   3.471 -0.8116  0.6643 -2.0864
13252TIP3   OH261170   3.082   3.422  13.918 -0.1210 -0.0612  0.3522
13252TIP3    H161171   3.050   3.334  13.897 -2.1315  0.7300 -0.1416
13252TIP3    H261172   3.121   3.452  13.836 -1.6551  0.3833 -0.2598
13253TIP3   OH261173   0.399   4.792  12.264 -0.1900 -0.0643  0.1921
13253TIP3    H161174   0.357   4.877  12.278 -0.3617  0.0114 -0.7455
13253TIP3    H261175   0.463   4.808  12.194 -0.2759 -0.7239 -0.0397
13254TIP3   OH261176   5.979   1.018  14.278  0.3168 -0.0789  0.1370
13254TIP3    H161177   5.997   1.090  14.218 -0.7508  0.1175  0.0430
13254TIP3    H261178   5.919   0.961  14.230  2.6670 -2.1146 -0.5883
13255TIP3   OH261179   5.315   6.022  11.942  0.2547  0.4870  0.3692
13255TIP3    H161180   5.320   6.040  11.848  0.8212 -1.2333  0.0294
13255TIP3    H261181   5.406   6.019  11.971  0.1080  0.3059  0.8212
13256TIP3   OH261182   4.916   5.552  14.700 -0.2794 -0.2730 -0.2309
13256TIP3    H161183   4.984   5.582  14.760  1.3446 -1.6434 -1.2732
13256TIP3    H261184   4.852   5.509  14.756  0.6173 -0.4981  0.6523
13257TIP3   OH261185   0.394   3.350   3.908  0.4238 -0.0618  0.0045
13257TIP3    H161186   0.328   3.409   3.872 -0.4517 -1.6219 -1.0645
13257TIP3    H261187   0.471   3.364   3.853  0.3667  0.4202  0.0478
13258TIP3   OH261188   2.914   5.193  12.877  0.6869 -0.1456 -0.1337
13258TIP3    H161189   2.920   5.219  12.969  1.5274 -0.2785 -0.1489
13258TIP3    H261190   2.934   5.273  12.828  2.8738 -0.6627 -0.1820
13259TIP3   OH261191   1.868   3.329   0.197 -0.4233 -0.3657  0.4163
13259TIP3    H161192   1.799   3.263   0.199 -0.1421 -0.6553  0.4792
13259TIP3    H261193   1.921   3.307   0.121  0.8280 -1.3960  1.5364
13260TIP3   OH261194   4.152   0.623  13.962 -0.5488  0.5524 -0.4776
13260TIP3    H161195   4.222   0.563  13.938 -1.2729 -0.9111  0.8795
13260TIP3    H261196   4.191   0.682  14.027 -0.0223  1.1701 -1.3237
13261TIP3   OH261197   5.249   1.395   1.538 -0.2881 -0.1774  0.0356
13261TIP3    H161198   5.199   1.329   1.586 -1.0809  0.5384  0.2140
13261TIP3    H261199   5.334   1.396   1.583 -0.1848 -1.2119 -0.1050
13262TIP3   OH261200   0.219   6.323  15.043  0.3561  0.1945 -0.4985
13262TIP3    H161201   0.241   6.309  14.951  2.6967  0.5238 -0.0555
13262TIP3    H261202   0.293   6.374  15.078 -0.0370 -0.6627  1.7559
13263TIP3   OH261203   5.204   0.551   2.858 -0.3032 -0.3628 -0.0161
13263TIP3    H161204   5.296   0.524   2.856  0.4608  1.9941 -1.1900
13263TIP3    H261205   5.170   0.526   2.772 -0.4857 -0.4246  0.0752
13264TIP3   OH261206   1.791   0.168   2.464  0.1902  0.3742  0.7244
13264TIP3    H161207   1.747   0.149   2.382  2.5091 -0.2319 -0.4471
13264TIP3    H261208   1.805   0.083   2.505  0.5252  0.5377  0.9557
13265TIP3   OH261209   3.648   6.753  12.466 -0.2949  0.3235  0.2332
13265TIP3    H161210   3.558   6.785  12.464 -0.5907 -0.1736  2.8119
13265TIP3    H261211   3.652   6.689  12.394 -3.4224 -3.0378  2.6656
13266TIP3   OH261212   4.411   1.002   1.653  0.5929 -0.2967 -0.0066
13266TIP3    H161213   4.421   1.092   1.621 -1.4326 -0.1448 -0.3102
13266TIP3    H261214   4.460   0.949   1.591  0.2344  0.4225 -0.9259
13267TIP3   OH261215   5.427   2.745  14.816 -0.2545 -0.4469 -0.4528
13267TIP3    H161216   5.464   2.681  14.877 -1.8879 -1.2614 -0.2729
13267TIP3    H261217   5.488   2.819  14.820 -0.0722 -0.6338  1.8850
13268TIP3   OH261218   4.647   4.376   5.678 -0.4344 -0.0160  0.2102
13268TIP3    H161219   4.558   4.349   5.700 -0.4222 -0.3833 -0.1759
13268TIP3    H261220   4.638   4.466   5.647 -0.3786  0.7270  2.2189
13269TIP3   OH261221   6.115   2.478   2.757 -0.0911  0.1397 -0.3100
13269TIP3    H161222   6.199   2.453   2.796 -0.0178  0.1544 -0.4590
13269TIP3    H261223   6.110   2.572   2.770 -0.2092  0.0983 -0.0574
13270TIP3   OH261224   1.085   0.094  17.056 -0.1963 -0.4614  0.0950
13270TIP3    H161225   1.081   0.022  17.119  0.5039 -0.6419 -0.0533
13270TIP3    H261226   1.178   0.104  17.037 -0.2278  0.8355  0.4989
13271TIP3   OH261227   0.968   2.413  12.899  0.7230  0.2925 -0.2454
13271TIP3    H161228   1.056   2.378  12.911 -0.4113 -2.5521  0.6228
13271TIP3    H261229   0.932   2.417  12.988 -0.0455  1.4463 -0.5884
13272TIP3   OH261230   4.304   3.340   1.045 -0.0763 -0.1742  0.0842
13272TIP3    H161231   4.267   3.330   0.958 -1.0354  0.7508  0.3621
13272TIP3    H261232   4.242   3.295   1.103 -0.1282  0.3086  0.4158
13273TIP3   OH261233   0.572   3.077  14.527  0.4478 -0.4835 -0.0204
13273TIP3    H161234   0.493   3.092  14.475  0.9545  1.0319 -0.3982
13273TIP3    H261235   0.605   2.992  14.497 -1.3037 -1.4246  0.5336
13274TIP3   OH261236   5.471   3.972  16.291 -0.7544 -0.1768 -0.1717
13274TIP3    H161237   5.391   3.923  16.271 -0.9329  0.2678 -0.5517
13274TIP3    H261238   5.441   4.045  16.344 -0.3179 -1.2236  1.6201
13275TIP3   OH261239   0.625   5.007  15.238 -0.1160  0.4553  0.2885
13275TIP3    H161240   0.706   4.996  15.188  1.1202  0.5457  2.1772
13275TIP3    H261241   0.576   4.925  15.223  2.2888 -1.5413  2.4454
13276TIP3   OH261242   6.540   4.337  12.287 -0.3221 -0.1582 -0.2808
13276TIP3    H161243   6.588   4.296  12.215 -0.8050  1.2317 -1.4384
13276TIP3    H261244   6.534   4.268  12.354  0.9114 -1.2053 -1.1851
13277TIP3   OH261245   6.269   3.674  12.192  0.0982  0.0823  0.4853
13277TIP3    H161246   6.241   3.670  12.283 -0.3569  1.7533  0.4553
13277TIP3    H261247   6.321   3.595  12.179 -1.2838 -1.0623  1.6845
13278TIP3   OH261248   1.559   3.713   2.941  0.0921  0.2737  0.3147
13278TIP3    H161249   1.548   3.693   2.848 -0.1153  1.0831  0.1522
13278TIP3    H261250   1.489   3.665   2.985  1.7764 -2.2584  0.3881
13279TIP3   OH261251   3.522   4.625   1.546 -0.0019 -0.0122 -0.3527
13279TIP3    H161252   3.579   4.612   1.470  0.4235  0.3956 -0.1141
13279TIP3    H261253   3.486   4.539   1.565  0.8494 -0.3579 -0.2664
13280TIP3   OH261254   1.021   6.713  13.945  0.7091  0.2314 -0.3686
13280TIP3    H161255   0.973   6.717  13.862 -0.0589 -0.0793  0.0481
13280TIP3    H261256   1.040   6.620  13.958 -1.2532 -0.0674  0.9248
13281TIP3   OH261257   5.872   5.796  13.707 -0.4298 -0.4409 -0.1099
13281TIP3    H161258   5.961   5.815  13.678  0.3105  0.2317  2.3239
13281TIP3    H261259   5.871   5.702  13.722 -0.1113 -0.4450 -0.1117
13282TIP3   OH261260   3.564   6.630   3.718  0.3270 -0.2344  0.6931
13282TIP3    H161261   3.610   6.656   3.797 -0.1932  2.3216  0.2387
13282TIP3    H261262   3.632   6.617   3.653  0.5947  2.4606  0.3166
13283TIP3   OH261263   5.684   3.858   0.042  0.1437 -0.1422  0.0929
13283TIP3    H161264   5.729   3.828   0.121  1.1585  0.6813 -0.1594
13283TIP3    H261265   5.595   3.878   0.071  0.1634 -0.9957  0.7717
13284TIP3   OH261266   3.392   0.728  16.321 -0.0700  0.1089 -0.1673
13284TIP3    H161267   3.425   0.650  16.276 -2.3447 -0.1106 -1.6023
13284TIP3    H261268   3.407   0.710  16.414  2.0175 -0.7505 -0.5959
13285TIP3   OH261269   6.157   1.158  15.602 -0.3266 -0.1121 -0.1329
13285TIP3    H161270   6.213   1.158  15.680 -2.6274  3.2134  1.7548
13285TIP3    H261271   6.184   1.235  15.553 -0.4584 -0.8990 -1.5132
13286TIP3   OH261272   6.531   5.991  12.428  0.2667 -0.3322  0.2334
13286TIP3    H161273   6.573   6.038  12.499  0.0420 -1.7981  1.3881
13286TIP3    H261274   6.470   6.055  12.389  1.8917  1.1127 -0.0318
13287TIP3   OH261275   4.024   6.755   3.936 -0.1641 -0.1443  0.1918
13287TIP3    H161276   3.931   6.762   3.917  0.1420  0.1188 -1.2703
13287TIP3    H261277   4.053   6.845   3.953 -0.2234 -0.2617  0.9856
13288TIP3   OH261278   1.892   6.156   4.933  0.4199 -0.5518 -0.1453
13288TIP3    H161279   1.949   6.207   4.991  0.3698  0.3301 -0.8529
13288TIP3    H261280   1.815   6.136   4.986  1.0505 -1.1119  0.5837
13289TIP3   OH261281   1.789   5.230  11.727  0.5828  0.2578 -0.1908
13289TIP3    H161282   1.710   5.237  11.780  0.4383 -0.5419 -0.2859
13289TIP3    H261283   1.820   5.140  11.742  1.9295  0.8035  0.4925
13290TIP3   OH261284   6.602   0.823   3.637  0.5446 -0.4814  0.1067
13290TIP3    H161285   6.598   0.765   3.714  0.6394 -0.2373  0.2984
13290TIP3    H261286   6.689   0.806   3.599  1.2193  0.6622  1.0669
13291TIP3   OH261287   2.512   3.302   5.751 -0.4039 -0.0715  0.4068
13291TIP3    H161288   2.501   3.378   5.808  1.9314  0.1528  0.6535
13291TIP3    H261289   2.513   3.338   5.662 -1.9069 -0.1653  0.3301
13292TIP3   OH261290   0.057   2.612   5.505  0.7873 -0.0980 -0.5260
13292TIP3    H161291   0.109   2.544   5.548 -0.1319 -0.9624 -0.7398
13292TIP3    H261292  -0.034   2.587   5.523  0.4254  0.5282 -1.4407
13293TIP3   OH261293   1.381   3.817   1.961 -0.4328 -0.4013  0.2522
13293TIP3    H161294   1.326   3.849   1.889 -0.1057  0.8119  0.5309
13293TIP3    H261295   1.461   3.788   1.918  0.7210  2.4576  0.2740
13294TIP3   OH261296   4.018   2.820  13.764  0.5408 -0.4970  0.0134
13294TIP3    H161297   4.028   2.802  13.858  3.8011 -0.8645 -0.2981
13294TIP3    H261298   4.034   2.913  13.755  2.6832 -0.8419 -0.3458
13295TIP3   OH261299   6.590   1.205   1.278  0.2148 -0.6652  0.5655
13295TIP3    H161300   6.669   1.253   1.253 -1.5714  1.9436 -0.5065
13295TIP3    H261301   6.577   1.225   1.370 -0.6825  1.3644  0.0609
13296TIP3   OH261302   1.698   0.150   5.714 -0.3457 -0.3300 -0.3009
13296TIP3    H161303   1.608   0.127   5.734  0.1073 -0.2606  2.1545
13296TIP3    H261304   1.700   0.245   5.713 -0.2374 -0.3228  0.1326
13297TIP3   OH261305   5.771   3.123   1.239 -0.4892 -0.2742 -0.1266
13297TIP3    H161306   5.736   3.084   1.319  2.9128 -0.8102  1.2634
13297TIP3    H261307   5.774   3.051   1.177 -0.0883 -0.6777  0.3520
13298TIP3   OH261308   5.742   0.112  14.318  0.1203  0.0022  0.1550
13298TIP3    H161309   5.696   0.029  14.312  1.4908 -0.9015  1.3469
13298TIP3    H261310   5.733   0.151  14.231 -1.0768 -1.0810 -0.2410
13299TIP3   OH261311   5.217   4.067  13.563  0.5529  0.0743  0.1879
13299TIP3    H161312   5.265   3.992  13.531 -1.1268 -1.8885  1.9558
13299TIP3    H261313   5.261   4.093  13.644  0.1202 -0.1386  0.4985
13300TIP3   OH261314   0.442   0.908   5.469 -0.3366  0.0169  0.1277
13300TIP3    H161315   0.520   0.963   5.464 -0.8378  0.8162  0.7372
13300TIP3    H261316   0.456   0.839   5.404  0.1233  1.1227 -0.9821
13301TIP3   OH261317   4.822   1.636  11.984  0.0075  0.0988 -0.2749
13301TIP3    H161318   4.732   1.633  12.017 -0.7278  0.4491 -2.1132
13301TIP3    H261319   4.817   1.689  11.905  1.8221 -0.0021 -0.5067
13302TIP3   OH261320   3.970   4.456  16.812  0.2508  0.1107  0.4559
13302TIP3    H161321   3.941   4.542  16.780  0.6220  0.2195  0.4069
13302TIP3    H261322   4.061   4.450  16.785 -0.1241 -0.8475 -0.7096
13303TIP3   OH261323   4.063   2.980  16.432  0.3712 -0.2362  0.1526
13303TIP3    H161324   4.028   2.966  16.520  2.3114 -2.5710  0.6790
13303TIP3    H261325   4.107   3.065  16.437 -2.1547  1.1408  0.4346
13304TIP3   OH261326   3.543   2.446  13.895 -0.2148 -0.2533  0.3112
13304TIP3    H161327   3.539   2.526  13.843 -1.2187 -0.2670  0.3443
13304TIP3    H261328   3.626   2.452  13.942 -1.3242  1.9267  2.1434
13305TIP3   OH261329   4.934   5.378   0.154  0.1622 -0.1889 -0.5817
13305TIP3    H161330   4.932   5.381   0.058  0.0973 -0.6989 -0.5953
13305TIP3    H261331   4.887   5.457   0.181  0.3391  0.0522 -0.9690
13306TIP3   OH261332   5.825   1.898   0.451 -0.2409 -0.2416 -0.0175
13306TIP3    H161333   5.859   1.965   0.391  0.4760 -0.0623  0.5824
13306TIP3    H261334   5.759   1.852   0.399  1.7581 -1.4283 -1.6477
13307TIP3   OH261335   0.377   0.170   4.970  0.1301  0.1902 -0.1385
13307TIP3    H161336   0.321   0.218   5.031  3.1022  3.7202  0.2301
13307TIP3    H261337   0.394   0.233   4.900  1.0989 -1.8549 -1.8433
13308TIP3   OH261338   2.246   5.491  16.318  0.6618  0.3457 -0.1609
13308TIP3    H161339   2.251   5.471  16.411  0.1376 -2.2021 -0.6041
13308TIP3    H261340   2.160   5.531  16.306 -0.4610 -1.8377  0.1133
13309TIP3   OH261341   0.933   2.987  14.443  0.2982 -0.7232  0.3907
13309TIP3    H161342   0.968   3.060  14.391  1.4665 -0.9365  0.8473
13309TIP3    H261343   0.896   2.927  14.379  1.2504 -0.7299 -0.1667
13310TIP3   OH261344   4.699   6.615  16.031 -0.0555  0.3195  0.1562
13310TIP3    H161345   4.672   6.590  16.119  0.1177  3.2054  1.1125
13310TIP3    H261346   4.620   6.650  15.990  0.3720  1.1608  0.0283
13311TIP3   OH261347   6.296   2.399   3.445  0.4699  0.1637 -0.4894
13311TIP3    H161348   6.383   2.382   3.408  1.0501  0.3084  0.7399
13311TIP3    H261349   6.260   2.468   3.389  1.9147  1.4206  0.0372
13312TIP3   OH261350   5.462   2.979  16.825 -0.4781  0.3566 -0.1552
13312TIP3    H161351   5.475   3.002  16.733 -0.9101 -1.8650 -0.8345
13312TIP3    H261352   5.536   2.923  16.847 -1.8724 -1.6108 -0.1289
13313TIP3   OH261353   3.525   4.697   0.482 -0.0280  0.1613  0.5611
13313TIP3    H161354   3.610   4.655   0.473 -0.0336  0.0618  0.9753
13313TIP3    H261355   3.466   4.643   0.428 -0.0958 -0.5360  1.3230
13314TIP3   OH261356   4.137   5.537   5.162 -0.0557 -0.0673 -0.0116
13314TIP3    H161357   4.136   5.465   5.099 -1.3075  0.3568 -0.4988
13314TIP3    H261358   4.086   5.606   5.121 -1.1400  0.1215  1.5714
13315TIP3   OH261359   0.035   1.785  15.798 -0.1672  0.2910  0.1689
13315TIP3    H161360   0.029   1.803  15.892  1.7225 -1.3411  0.6678
13315TIP3    H261361   0.105   1.841  15.767  0.2273 -0.2494  0.0653
13316TIP3   OH261362   5.145   4.482  11.318  0.5616 -0.4276  0.1607
13316TIP3    H161363   5.143   4.439  11.233 -0.8923  0.5160 -0.3144
13316TIP3    H261364   5.082   4.434  11.371 -0.6028  0.6724 -0.1807
13317TIP3   OH261365   6.651   3.106   2.076 -0.5752  0.3732  0.1012
13317TIP3    H161366   6.707   3.030   2.088  0.5255  1.0392 -0.6845
13317TIP3    H261367   6.564   3.076   2.105 -0.0874 -1.0472  0.1851
13318TIP3   OH261368   6.042   6.517   2.575 -0.2589  0.2503  0.6208
13318TIP3    H161369   6.131   6.493   2.602 -0.3084 -0.2915  0.3163
13318TIP3    H261370   5.990   6.511   2.656 -0.1795 -0.2331  0.6382
13319TIP3   OH261371   0.121   6.645  16.368 -0.1754  0.1665 -0.0216
13319TIP3    H161372   0.042   6.594  16.348 -0.7135  1.5415 -1.7196
13319TIP3    H261373   0.096   6.736  16.349  1.8980  0.5996 -0.9248
13320TIP3   OH261374   2.151   6.357   0.872 -0.2774 -0.0837  0.1295
13320TIP3    H161375   2.217   6.289   0.885 -1.5869 -1.0867  1.8813
13320TIP3    H261376   2.081   6.314   0.824 -1.2883 -0.1408  1.5914
13321TIP3   OH261377   4.081   4.671   3.734 -0.3136  0.5207  0.7005
13321TIP3    H161378   4.048   4.675   3.644 -2.0108  2.6349  1.3225
13321TIP3    H261379   4.130   4.752   3.745 -1.2913  0.9695  2.0442
13322TIP3   OH261380   1.509   1.530   2.406 -0.3097  0.1349 -0.1974
13322TIP3    H161381   1.432   1.502   2.358 -0.1597  1.1450 -1.0636
13322TIP3    H261382   1.474   1.568   2.487 -0.5986 -1.0416  0.2385
13323TIP3   OH261383   5.363   0.107   5.776  0.0924 -0.0694 -0.1541
13323TIP3    H161384   5.293   0.169   5.795 -0.0970 -0.7729  1.6686
13323TIP3    H261385   5.438   0.161   5.751 -0.8766  0.7244 -1.4257
13324TIP3   OH261386   4.959   5.444   4.629 -0.1576  0.2353 -0.1532
13324TIP3    H161387   4.886   5.417   4.574  0.1122 -0.5478 -0.1392
13324TIP3    H261388   4.919   5.468   4.713 -0.5820  1.5337 -0.7046
13325TIP3   OH261389   5.310   1.481   2.443  0.0698  0.8051  0.6423
13325TIP3    H161390   5.222   1.443   2.437  0.3948  0.3000 -1.5053
13325TIP3    H261391   5.294   1.575   2.454 -0.7240  0.6562  0.8860
13326TIP3   OH261392   2.383   2.310  13.423 -0.0836 -0.0597 -0.2939
13326TIP3    H161393   2.335   2.241  13.469 -0.6925  0.6234  0.1234
13326TIP3    H261394   2.321   2.342  13.358 -0.0424  0.5379 -0.0436
13327TIP3   OH261395   6.500   5.662   3.151  0.4337  0.7956 -0.0383
13327TIP3    H161396   6.586   5.646   3.112  0.1253  0.8398 -0.7447
13327TIP3    H261397   6.473   5.576   3.184  0.0611  0.4496 -1.2246
13328TIP3   OH261398   1.367   2.204  10.927  0.0619  0.2034  0.6561
13328TIP3    H161399   1.291   2.253  10.896  0.2415 -0.5125 -0.9973
13328TIP3    H261400   1.330   2.129  10.973 -0.2212  0.1444  0.3298
13329TIP3   OH261401   4.129   5.546   2.587 -0.2265  0.1192  0.2617
13329TIP3    H161402   4.197   5.525   2.522  0.2554 -0.1290  0.8319
13329TIP3    H261403   4.143   5.482   2.656 -1.2117 -0.0874  0.2748
13330TIP3   OH261404   2.544   5.826   3.448 -0.3011  0.0604 -0.4724
13330TIP3    H161405   2.557   5.919   3.464 -0.9399  0.0308  0.2363
13330TIP3    H261406   2.577   5.783   3.527  2.0814 -0.4837 -1.6757
13331TIP3   OH261407   2.130   3.102  16.737 -0.3439  0.7108  0.1751
13331TIP3    H161408   2.150   3.038  16.668  1.8563  1.5168 -0.0405
13331TIP3    H261409   2.067   3.162  16.697  0.5034  0.8629 -0.9871
13332TIP3   OH261410   3.160   1.850  13.211 -0.2401 -0.6717  0.0003
13332TIP3    H161411   3.164   1.760  13.245 -1.9066 -0.7434  0.0755
13332TIP3    H261412   3.096   1.845  13.140 -0.2102  0.4300 -0.1126
13333TIP3   OH261413   3.310   3.402  16.027  0.1237 -0.5273 -0.0062
13333TIP3    H161414   3.282   3.493  16.019  1.5342 -0.1521 -1.0306
13333TIP3    H261415   3.358   3.384  15.946 -0.6153 -2.3727 -0.0954
13334TIP3   OH261416   0.481   0.350  10.955  0.1151 -0.1487 -0.0502
13334TIP3    H161417   0.445   0.387  11.036  0.2444 -0.7000  0.2653
13334TIP3    H261418   0.405   0.315  10.909  0.0769 -0.0850 -0.0351
13335TIP3   OH261419   0.321   5.445   3.426  0.1791 -0.3693  0.1148
13335TIP3    H161420   0.404   5.428   3.382 -0.2731 -0.5444 -0.6817
13335TIP3    H261421   0.263   5.479   3.357 -0.9727 -1.9571  0.2471
13336TIP3   OH261422   0.974   4.571  12.177  0.1062  0.0758 -0.0573
13336TIP3    H161423   0.911   4.505  12.150  0.1495 -0.1832  0.4587
13336TIP3    H261424   1.041   4.523  12.226  1.2449  0.2001 -1.4483
13337TIP3   OH261425   2.372   2.785   4.045 -0.2901 -0.5344  0.2277
13337TIP3    H161426   2.276   2.774   4.049 -0.0390 -2.9619  1.9304
13337TIP3    H261427   2.394   2.759   3.955 -1.1551 -0.7106  0.0494
13338TIP3   OH261428   3.255   0.525  11.672 -0.1364  0.1040 -0.3322
13338TIP3    H161429   3.331   0.519  11.730 -0.2495  1.4423 -0.0149
13338TIP3    H261430   3.248   0.618  11.651 -3.5745  0.6577  2.2623
13339TIP3   OH261431   2.951   5.928  16.050  0.4155  0.1545 -0.6712
13339TIP3    H161432   2.876   5.879  16.084  1.0918 -1.1217 -0.9792
13339TIP3    H261433   2.913   5.988  15.986 -0.3406 -0.4987 -0.8515
13340TIP3   OH261434   5.235   0.805  14.724  0.6735 -0.1822 -0.6908
13340TIP3    H161435   5.282   0.721  14.726  1.3757  0.1871  1.5556
13340TIP3    H261436   5.297   0.865  14.682  2.1442  0.1732  1.7569
13341TIP3   OH261437   6.520   0.743   4.975 -0.1777  0.1488 -0.0111
13341TIP3    H161438   6.458   0.684   4.931 -0.3401 -0.0307  0.4523
13341TIP3    H261439   6.517   0.823   4.923  2.0446 -1.1091 -2.2570
13342TIP3   OH261440   1.028   0.832   5.562  0.2753 -0.1098 -0.3235
13342TIP3    H161441   0.944   0.788   5.575 -1.6400  3.5780  1.4439
13342TIP3    H261442   1.069   0.830   5.649  0.5017  0.8462 -0.3976
13343TIP3   OH261443   0.389   6.699   2.100  0.0733  0.0622 -0.1492
13343TIP3    H161444   0.338   6.633   2.147  0.0615  0.0227 -0.2170
13343TIP3    H261445   0.334   6.777   2.099  0.7386  0.6059  1.3748
13344TIP3   OH261446   1.543   3.748  17.092 -0.1552 -0.0259  0.3900
13344TIP3    H161447   1.564   3.773  17.002 -0.8600  0.1463  0.2701
13344TIP3    H261448   1.481   3.814  17.121  0.2187  0.0319  1.0739
13345TIP3   OH261449   0.704   5.889   6.002  0.4939 -0.1475  0.3308
13345TIP3    H161450   0.664   5.971   6.030 -0.8614 -1.0147  1.0353
13345TIP3    H261451   0.647   5.821   6.037  1.5787 -1.4045 -0.2463
13346TIP3   OH261452   4.638   0.452   0.252 -0.3283  0.2499  0.6194
13346TIP3    H161453   4.542   0.452   0.257 -0.3632 -1.7039  0.6897
13346TIP3    H261454   4.665   0.373   0.299  1.1732 -0.3832 -1.1510
13347TIP3   OH261455   3.834   3.628  11.435 -0.3733 -0.1070  0.5867
13347TIP3    H161456   3.899   3.627  11.506  2.0828 -2.0938 -1.4731
13347TIP3    H261457   3.809   3.720  11.426  2.4146  0.8215  1.3178
13348TIP3   OH261458   5.168   3.172  16.883  0.1481  0.0519 -0.3576
13348TIP3    H161459   5.157   3.078  16.869  1.1275  0.1401 -1.9941
13348TIP3    H261460   5.214   3.179  16.966 -0.3980 -0.8813  0.0380
13349TIP3   OH261461   0.680   2.599   0.611  0.1907  0.1396  0.2850
13349TIP3    H161462   0.704   2.647   0.690  0.4570  1.2123 -0.4253
13349TIP3    H261463   0.585   2.613   0.602 -0.1492 -1.3356  1.2779
13350TIP3   OH261464   5.488   0.066   1.321  0.2443 -0.1893 -0.3544
13350TIP3    H161465   5.500   0.156   1.353 -0.0304  0.2520 -1.4261
13350TIP3    H261466   5.577   0.036   1.304  0.3851 -0.3914  0.6857
13351TIP3   OH261467   5.035   3.006  14.771 -0.0772 -0.2252  0.1717
13351TIP3    H161468   5.051   2.987  14.864 -0.6129  1.4412  0.6334
13351TIP3    H261469   4.961   3.066  14.771 -0.1567 -0.2853 -1.3573
13352TIP3   OH261470   3.415   5.856   6.193  0.0314  0.3055  0.0993
13352TIP3    H161471   3.450   5.945   6.197 -0.4683  0.4549  2.4164
13352TIP3    H261472   3.321   5.866   6.207  0.0238 -0.6171  0.8107
13353TIP3   OH261473   0.306   0.004  12.524  0.1536  0.8307 -0.3135
13353TIP3    H161474   0.217  -0.017  12.553  0.5323  0.7149  0.8547
13353TIP3    H261475   0.350  -0.081  12.520  0.6485  1.0218  0.7220
13354TIP3   OH261476   2.828   5.361   2.394 -0.5408 -0.3959 -0.2479
13354TIP3    H161477   2.876   5.317   2.324 -1.0076 -0.0908 -0.7619
13354TIP3    H261478   2.797   5.289   2.450  0.1964 -0.6161 -0.1027
13355TIP3   OH261479   4.633   0.460  16.844  0.9342 -0.2210  0.2328
13355TIP3    H161480   4.684   0.449  16.764 -0.3938  0.6441 -0.7858
13355TIP3    H261481   4.690   0.429  16.914  1.6114 -2.4077 -1.1761
13356TIP3   OH261482   0.589   1.668   0.195 -0.3885  0.0488  0.1648
13356TIP3    H161483   0.652   1.732   0.160 -1.5979  0.7315 -0.8449
13356TIP3    H261484   0.522   1.722   0.237  0.4031 -0.7208  2.5689
13357TIP3   OH261485   5.038   3.210   6.233 -0.2918 -0.4254 -0.0265
13357TIP3    H161486   4.950   3.214   6.271  0.0098 -1.9982  0.9485
13357TIP3    H261487   5.079   3.293   6.259 -1.9269  1.0378 -1.8005
13358TIP3   OH261488   3.828   2.703  15.342  0.1308  0.2571  0.5594
13358TIP3    H161489   3.867   2.636  15.286 -0.4821  0.2745  0.0936
13358TIP3    H261490   3.866   2.785  15.311 -0.0144  0.2407  0.3339
13359TIP3   OH261491   2.429   0.545   4.624 -0.1591  0.0810  0.1870
13359TIP3    H161492   2.485   0.597   4.566 -2.0999  0.0666 -1.8321
13359TIP3    H261493   2.473   0.547   4.709  1.1207  2.8694 -0.4571
13360TIP3   OH261494   6.639   0.517  11.793  0.3129 -0.4148  0.2069
13360TIP3    H161495   6.600   0.603  11.808 -0.0232 -0.7448  1.3592
13360TIP3    H261496   6.729   0.526  11.823  0.0717 -0.6490  1.0408
13361TIP3   OH261497   0.521   5.330   3.254 -0.4571 -0.0505 -0.3518
13361TIP3    H161498   0.496   5.242   3.283  0.2619 -0.2420 -0.3039
13361TIP3    H261499   0.499   5.332   3.161  1.3878 -1.0021 -0.8624
13362TIP3   OH261500   0.523   0.654  16.830  0.2133  0.4938 -0.1232
13362TIP3    H161501   0.461   0.584  16.807  0.6889  0.2436 -0.6750
13362TIP3    H261502   0.487   0.693  16.909 -0.5046  0.1701 -0.2843
13363TIP3   OH261503   1.322   6.460   2.223 -0.0675 -0.5610  0.2730
13363TIP3    H161504   1.342   6.367   2.231 -2.9633 -1.2835  0.2302
13363TIP3    H261505   1.302   6.473   2.130  0.2895  0.0857  0.2833
13364TIP3   OH261506   0.466   0.025  10.721 -0.6914  0.2770  0.0533
13364TIP3    H161507   0.422  -0.007  10.642  0.8459  1.4753 -1.3874
13364TIP3    H261508   0.516  -0.050  10.753  0.2444  0.2899 -1.3080
13365TIP3   OH261509   1.979   4.812   3.680 -0.1331 -0.2151  0.2716
13365TIP3    H161510   1.947   4.780   3.595  1.8096 -0.3108 -0.4673
13365TIP3    H261511   1.901   4.815   3.735 -1.0861 -2.2907 -0.8449
13366TIP3   OH261512   1.589   6.273  13.220 -0.1417  0.0693  0.2031
13366TIP3    H161513   1.684   6.288  13.218 -0.1930  0.4904  0.6153
13366TIP3    H261514   1.568   6.273  13.314 -0.3786 -1.1481  0.1674
13367TIP3   OH261515   2.980   4.066  12.305 -0.9555 -0.1777  0.1779
13367TIP3    H161516   3.059   4.095  12.351 -0.3418 -0.4077 -0.7095
13367TIP3    H261517   3.005   3.982  12.266 -2.1501 -1.0714  1.2447
13368TIP3   OH261518   1.316   1.747   1.869  0.5658 -0.1180  0.1256
13368TIP3    H161519   1.331   1.842   1.869  1.3971 -0.1941  2.2739
13368TIP3    H261520   1.223   1.738   1.893  0.8944  0.1703  1.6279
13369TIP3   OH261521   1.001   0.572   3.129 -0.4981 -0.0787  0.4303
13369TIP3    H161522   0.995   0.535   3.041 -0.8688 -0.7736  0.7438
13369TIP3    H261523   0.968   0.662   3.119 -2.0409 -0.6515  0.1463
13370TIP3   OH261524   6.686   2.674   2.765  0.5057  0.2872  0.6058
13370TIP3    H161525   6.741   2.597   2.777 -1.5033 -1.3368 -0.1389
13370TIP3    H261526   6.642   2.685   2.850  1.3742  1.1353  0.9650
13371TIP3   OH261527   4.213   5.789  13.548  0.1560 -0.1740 -0.1656
13371TIP3    H161528   4.278   5.852  13.578 -0.0655 -0.1047  0.1698
13371TIP3    H261529   4.261   5.732  13.487  0.6206 -0.3429  0.3532
13372TIP3   OH261530   1.546   4.881   3.008  0.0288  0.0591 -0.4678
13372TIP3    H161531   1.480   4.825   2.966  1.8643 -1.5738 -1.3390
13372TIP3    H261532   1.624   4.869   2.955  0.6927  3.1089 -0.3528
13373TIP3   OH261533   6.532   6.398  10.324  0.4007  0.7372 -0.1784
13373TIP3    H161534   6.456   6.342  10.304 -1.6303  2.7280  1.5145
13373TIP3    H261535   6.571   6.416  10.239  0.0506 -1.7257 -0.9443
13374TIP3   OH261536   0.293   2.955   4.230 -0.0729 -0.3031 -0.2706
13374TIP3    H161537   0.256   2.946   4.318 -0.4247 -0.8368 -0.4674
13374TIP3    H261538   0.318   3.047   4.223  1.2846 -0.5344  0.9203
13375TIP3   OH261539   1.304   2.090   5.969 -0.2503 -0.0094  0.0288
13375TIP3    H161540   1.316   2.153   6.040  1.4751 -2.4554  2.1109
13375TIP3    H261541   1.391   2.052   5.956 -0.9980 -1.2386 -1.8591
13376TIP3   OH261542   1.739   4.424   0.123  0.2444 -0.9148  0.1834
13376TIP3    H161543   1.757   4.482   0.197  2.4399  0.0061 -0.9805
13376TIP3    H261544   1.643   4.421   0.119  0.0203  1.8254  0.9611
13377TIP3   OH261545   6.241   5.258  15.063 -0.2348 -0.6000 -0.0986
13377TIP3    H161546   6.217   5.302  15.144  1.2438 -0.9952  0.5883
13377TIP3    H261547   6.185   5.180  15.061 -0.6052 -0.3477  0.3000
13378TIP3   OH261548   5.935   5.577  11.251 -0.5673 -0.7397  0.3004
13378TIP3    H161549   5.977   5.499  11.288 -1.5836 -0.4678  2.1489
13378TIP3    H261550   5.964   5.648  11.308  0.0011  0.1859 -1.1043
13379TIP3   OH261551   0.504   4.744  16.703 -0.4035 -0.7539  0.1474
13379TIP3    H161552   0.484   4.725  16.795 -0.3093  1.4822  0.6906
13379TIP3    H261553   0.479   4.835  16.691  1.0945 -0.5051 -1.6200
13380TIP3   OH261554   1.856   0.594   3.968  0.0697  0.3126 -0.4807
13380TIP3    H161555   1.820   0.570   4.053 -0.5287 -0.3841 -0.9154
13380TIP3    H261556   1.923   0.527   3.950  0.7645  0.9246 -0.2024
13381TIP3   OH261557   1.914   6.536  12.510 -0.3042 -0.1778 -0.2534
13381TIP3    H161558   1.962   6.521  12.429 -1.8935 -0.7703 -1.1263
13381TIP3    H261559   1.874   6.452  12.531 -0.6985  0.2120  0.6088
13382TIP3   OH261560   1.493   3.462  12.946  0.0366 -0.0910  0.3966
13382TIP3    H161561   1.418   3.460  13.005  0.6048  0.2751  1.1390
13382TIP3    H261562   1.570   3.464  13.003  0.7292 -2.5383 -0.2962
13383TIP3   OH261563   5.400   3.596   1.770  1.4293 -0.6748  0.2758
13383TIP3    H161564   5.387   3.685   1.803 -2.4448 -0.6954 -0.6669
13383TIP3    H261565   5.432   3.609   1.680 -0.6087 -0.0468 -0.4287
13384TIP3   OH261566   0.110   0.385  11.462  0.1859 -0.2905  0.0120
13384TIP3    H161567   0.172   0.456  11.446 -0.9795  0.6741 -0.3596
13384TIP3    H261568   0.030   0.429  11.492  0.0710 -1.5917  1.7774
13385TIP3   OH261569   1.830   1.270   2.604  0.2962 -0.2923 -0.3048
13385TIP3    H161570   1.845   1.337   2.670 -1.0356 -0.4193  0.1587
13385TIP3    H261571   1.917   1.251   2.568  0.7682  1.2581 -0.0547
13386TIP3   OH261572   1.654   4.383  13.151 -0.0901  0.1186  0.5689
13386TIP3    H161573   1.681   4.465  13.192 -0.2427  0.9229 -0.8796
13386TIP3    H261574   1.736   4.334  13.139  0.3518  1.1223 -0.7632
13387TIP3   OH261575   1.952   1.774  11.092  0.1629 -0.2087  0.3475
13387TIP3    H161576   1.939   1.737  11.179 -0.9442 -1.2631 -0.2300
13387TIP3    H261577   1.923   1.705  11.032  3.0291 -0.3998 -0.9826
13388TIP3   OH261578   0.255   3.070   0.008 -0.3500 -0.0148 -0.0949
13388TIP3    H161579   0.257   2.979  -0.023 -0.6533  0.4688 -1.6393
13388TIP3    H261580   0.176   3.075   0.062  0.1554 -0.8857  0.7479
13389TIP3   OH261581   6.505   1.077   3.837  0.4319 -0.2487 -0.0868
13389TIP3    H161582   6.454   0.996   3.842 -1.0260  0.4951 -1.8653
13389TIP3    H261583   6.487   1.111   3.750  1.6926  1.5772  0.3153
13390TIP3   OH261584   1.328   5.273   0.444 -0.0001 -0.1827 -0.2358
13390TIP3    H161585   1.317   5.367   0.431 -0.0708 -0.1997 -0.3011
13390TIP3    H261586   1.332   5.237   0.355  0.7923 -0.1543 -0.2157
13391TIP3   OH261587   5.751   4.864   4.072  0.5506 -0.4886 -0.0097
13391TIP3    H161588   5.691   4.798   4.037  0.1201  0.6396 -1.4892
13391TIP3    H261589   5.836   4.843   4.034  0.2823  0.1599 -0.9973
13392TIP3   OH261590   6.096   5.704  16.252 -0.3905 -0.3048  0.0260
13392TIP3    H161591   6.005   5.717  16.224 -0.3964 -0.3183  0.0379
13392TIP3    H261592   6.119   5.617  16.218  0.0951  0.2971 -1.2110
13393TIP3   OH261593   6.552   5.671  14.553 -0.0093  0.8868  0.4269
13393TIP3    H161594   6.554   5.575  14.558  0.3525  0.9549  2.4030
13393TIP3    H261595   6.532   5.699  14.642  1.6386  2.7069  0.2801
13394TIP3   OH261596   0.206   5.443   6.225  0.2786 -0.0803  0.0004
13394TIP3    H161597   0.143   5.491   6.171 -0.0920 -0.6651 -0.0954
13394TIP3    H261598   0.273   5.508   6.247 -0.7877  0.7789  0.8307
13395TIP3   OH261599   6.447   6.488  16.021  0.3568  0.0549  1.0040
13395TIP3    H161600   6.426   6.414  16.078  0.3810  0.4113  1.4788
13395TIP3    H261601   6.542   6.485  16.012  0.4521  0.5864  1.7922
13396TIP3   OH261602   2.753   0.652   5.681 -0.3889 -0.1894 -0.1088
13396TIP3    H161603   2.662   0.661   5.651 -0.4336  0.0399  0.0889
13396TIP3    H261604   2.781   0.742   5.700 -0.1702 -0.2746 -0.0242
13397TIP3   OH261605   0.859   5.758   5.386  0.2665 -0.0940 -0.0071
13397TIP3    H161606   0.772   5.792   5.404  1.0449  0.2627  4.0432
13397TIP3    H261607   0.912   5.835   5.367 -0.1064 -0.2626 -1.9249
13398TIP3   OH261608   4.237   0.676  13.230 -0.2417 -0.1180  0.1198
13398TIP3    H161609   4.225   0.756  13.178  2.1716  0.1192 -0.1693
13398TIP3    H261610   4.320   0.689  13.275 -0.4848 -1.9049  1.1571
13399TIP3   OH261611   4.712   5.271  14.128 -0.0935  0.2086  0.2856
13399TIP3    H161612   4.796   5.294  14.168  0.0703  1.1845 -0.5628
13399TIP3    H261613   4.724   5.289  14.035 -1.0298 -0.2988  0.0537
13400TIP3   OH261614   1.960   1.471  15.940 -0.5355 -0.6196  0.1496
13400TIP3    H161615   2.050   1.445  15.921 -0.2786 -0.8139  1.5718
13400TIP3    H261616   1.907   1.422  15.876  0.1812 -2.4171  0.8557
13401TIP3   OH261617   6.739   1.224  16.563  0.2285 -0.2208  0.6739
13401TIP3    H161618   6.833   1.206  16.567  0.0409 -2.0351 -1.0990
13401TIP3    H261619   6.699   1.150  16.610 -0.3096  1.1677  2.4802
13402TIP3   OH261620   1.148   5.317  15.157 -0.3124  0.2580 -0.3917
13402TIP3    H161621   1.168   5.337  15.249 -1.1302 -1.4172  0.2128
13402TIP3    H261622   1.176   5.226  15.146 -1.2923  0.0557 -1.4543
13403TIP3   OH261623   1.759   5.241   0.177 -0.3097  0.0666 -0.3920
13403TIP3    H161624   1.782   5.306   0.243  0.2932  0.5093 -1.0382
13403TIP3    H261625   1.815   5.260   0.102 -0.0802 -1.2277 -0.5792
13404TIP3   OH261626   5.563   6.449  15.518  0.0227 -0.0025 -0.0129
13404TIP3    H161627   5.499   6.389  15.481  0.4941 -0.6710  0.2509
13404TIP3    H261628   5.551   6.530  15.468 -1.5935  0.1622  0.6015
13405TIP3   OH261629   2.321   5.288   6.229  0.0788 -0.2035  0.0363
13405TIP3    H161630   2.303   5.363   6.173 -1.2805 -0.9151 -0.5100
13405TIP3    H261631   2.339   5.326   6.315 -0.8296  0.7433 -0.1798
13406TIP3   OH261632   4.030   4.352   5.368  0.0407 -0.2250  0.7916
13406TIP3    H161633   3.992   4.432   5.332 -0.2099  0.2199  1.9993
13406TIP3    H261634   4.061   4.303   5.292  0.3412  1.0901  0.0524
13407TIP3   OH261635   6.437   5.755  14.863 -0.1425  0.0676  0.0739
13407TIP3    H161636   6.367   5.696  14.891 -0.7663  1.2896  1.1897
13407TIP3    H261637   6.517   5.716  14.899  0.0484 -2.1552 -2.4662
13408TIP3   OH261638   6.133   6.612  12.820  0.3106 -0.6955 -0.1155
13408TIP3    H161639   6.094   6.608  12.733 -0.1817  1.7097 -0.0689
13408TIP3    H261640   6.169   6.524  12.834 -1.3519 -1.7562 -1.8983
13409TIP3   OH261641   6.750   5.947  11.287  0.0711 -0.4072 -0.1478
13409TIP3    H161642   6.695   5.869  11.276 -1.2269  0.7412 -2.6483
13409TIP3    H261643   6.760   5.982  11.198  0.9877  2.0288  0.8278
13410TIP3   OH261644   1.206   4.476   0.059  0.0829 -0.2605  0.1174
13410TIP3    H161645   1.145   4.408   0.030 -0.6069 -0.7667  2.5916
13410TIP3    H261646   1.154   4.556   0.058 -0.7533 -0.7082  2.3236
13411TIP3   OH261647   0.960   2.162   3.072 -0.0380 -0.1469 -0.0673
13411TIP3    H161648   0.999   2.139   3.156 -0.6120  0.7490  0.4649
13411TIP3    H261649   0.866   2.162   3.089 -0.1545  0.1165 -0.6968
13412TIP3   OH261650   6.048   1.661   5.023 -0.5408  0.6637  0.2657
13412TIP3    H161651   6.142   1.675   5.038 -0.0020  0.2527 -2.3098
13412TIP3    H261652   6.031   1.702   4.939 -1.3521 -4.1102 -2.2267
13413TIP3   OH261653   0.392   6.010  10.753  0.0340 -0.5358 -0.1361
13413TIP3    H161654   0.323   6.077  10.759 -0.6659 -1.1870 -0.8167
13413TIP3    H261655   0.471   6.060  10.729  0.1837  0.4349  2.0912
13414TIP3   OH261656   1.135   2.136  14.181 -0.2095  0.2190  0.9378
13414TIP3    H161657   1.086   2.103  14.256  1.9023 -1.1612  1.7943
13414TIP3    H261658   1.151   2.228  14.201  0.6647 -0.2230  2.4209
13415TIP3   OH261659   2.355   2.694  10.867  0.3574  0.3289  0.4873
13415TIP3    H161660   2.317   2.620  10.914 -2.6584  3.1350  2.9660
13415TIP3    H261661   2.330   2.680  10.775  2.1107 -2.8124  0.3217
13416TIP3   OH261662   5.718   1.779   2.595  0.1780 -0.0243 -0.4070
13416TIP3    H161663   5.813   1.788   2.605  0.2293 -1.2373  0.4840
13416TIP3    H261664   5.685   1.868   2.604  1.3805  0.7964 -3.0928
13417TIP3   OH261665   0.454   2.782   3.882 -0.5124  0.3123  0.4738
13417TIP3    H161666   0.481   2.704   3.931 -0.6514  0.5060  0.8620
13417TIP3    H261667   0.442   2.751   3.792 -1.0870 -0.2266  0.7358
13418TIP3   OH261668   3.428   3.116   5.240  0.4565 -0.5262 -0.6196
13418TIP3    H161669   3.379   3.183   5.287  0.3618 -1.0552  0.0456
13418TIP3    H261670   3.485   3.166   5.180  0.1713  0.1318 -0.3538
13419TIP3   OH261671   6.066   6.177   0.169 -0.2217  0.4094  0.5278
13419TIP3    H161672   6.033   6.093   0.138 -0.1171  0.1832  1.0078
13419TIP3    H261673   6.088   6.225   0.090 -0.0900 -0.0969  0.2485
13420TIP3   OH261674   6.718   0.581   2.038 -0.9949 -0.4143  0.2529
13420TIP3    H161675   6.732   0.490   2.009  1.3967  0.2805 -1.0417
13420TIP3    H261676   6.702   0.629   1.957  1.6890  0.9214  0.4277
13421TIP3   OH261677   6.533   2.856  15.414 -0.3712  0.2483  0.6360
13421TIP3    H161678   6.576   2.776  15.385 -2.1953 -0.3069 -0.6540
13421TIP3    H261679   6.571   2.925  15.359 -3.8937 -0.7920 -3.6080
13422TIP3   OH261680   4.354   0.781   4.772  0.0337 -0.3646 -0.1416
13422TIP3    H161681   4.438   0.818   4.744  0.4444 -1.1595  0.0282
13422TIP3    H261682   4.315   0.744   4.693 -0.6945  0.9954 -0.4529
13423TIP3   OH261683   2.042   4.189  12.452 -0.1106  0.2766  0.4905
13423TIP3    H161684   2.024   4.258  12.516 -0.8133  1.2460 -0.7165
13423TIP3    H261685   1.960   4.179  12.404  0.3031 -0.6755 -0.0457
13424TIP3   OH261686   0.340   6.130   4.837  0.1280  0.7316  0.0148
13424TIP3    H161687   0.269   6.070   4.859  1.2748 -0.6259  0.1281
13424TIP3    H261688   0.355   6.179   4.917 -0.4089  0.7521  0.1104
13425TIP3   OH261689   2.176   2.506  12.397  0.6101 -0.0656  0.0998
13425TIP3    H161690   2.148   2.436  12.457 -0.6434  1.2550  1.1203
13425TIP3    H261691   2.167   2.586  12.447 -0.8327  1.1510 -1.9141
13426TIP3   OH261692   2.551   4.757   4.470 -0.7362 -0.1091  0.1511
13426TIP3    H161693   2.621   4.820   4.488  0.0490 -0.9642  0.1481
13426TIP3    H261694   2.474   4.811   4.455 -0.4462  0.8091  1.7409
13427TIP3   OH261695   2.492   3.327  14.507  0.8386  0.4266  0.3347
13427TIP3    H161696   2.526   3.383  14.576 -0.5241  2.1324 -0.2968
13427TIP3    H261697   2.552   3.340  14.434  0.0668  1.8170 -0.0965
13428TIP3   OH261698   6.374   5.394   3.913  0.1120  0.4187 -0.2257
13428TIP3    H161699   6.460   5.388   3.871  0.9950 -0.8680  1.5932
13428TIP3    H261700   6.354   5.487   3.915  1.5246  0.7581 -0.6284
13429TIP3   OH261701   3.522   2.385  11.241 -0.2639 -0.0942 -0.2791
13429TIP3    H161702   3.520   2.425  11.328  1.9768 -0.1846 -0.1381
13429TIP3    H261703   3.581   2.440  11.190 -0.4359 -0.8563 -1.3317
13430TIP3   OH261704   6.192   2.541  14.712 -0.2310 -0.7797 -0.2513
13430TIP3    H161705   6.204   2.628  14.674 -0.1402 -1.9451 -3.1946
13430TIP3    H261706   6.266   2.530  14.771  1.3201  0.1442 -1.9220
13431TIP3   OH261707   4.316   3.061  11.797  0.3882  0.2216  0.1575
13431TIP3    H161708   4.265   3.044  11.876  0.6408 -0.7785  0.1218
13431TIP3    H261709   4.255   3.041  11.725  0.4682  0.1792  0.1018
13432TIP3   OH261710   1.038   5.011  17.041  0.1795  0.0878  0.6137
13432TIP3    H161711   0.972   4.993  17.108 -0.3005  0.9785  0.3777
13432TIP3    H261712   0.989   5.019  16.959  0.5527  0.9455  0.4697
13433TIP3   OH261713   6.192   4.961   5.279  0.2978  0.8304 -0.0387
13433TIP3    H161714   6.172   4.885   5.225 -1.3021 -0.0850  1.7226
13433TIP3    H261715   6.109   5.008   5.285  0.6745  1.3999  0.8899
13434TIP3   OH261716   2.613   5.930  12.662  0.2641  0.5055 -0.2921
13434TIP3    H161717   2.639   5.886  12.581 -1.1686 -3.0994  1.0108
13434TIP3    H261718   2.673   5.897  12.728 -1.3951 -0.2268  0.9148
13435TIP3   OH261719   4.228   1.373   2.137  0.0642  0.3599  0.7122
13435TIP3    H161720   4.226   1.467   2.117 -0.3126  0.2637  0.2767
13435TIP3    H261721   4.136   1.351   2.155  0.0967 -0.0022  0.4365
13436TIP3   OH261722   2.162   1.018  11.068 -0.4165  0.3878 -0.6258
13436TIP3    H161723   2.237   0.968  11.100  0.0864  2.0057  0.9455
13436TIP3    H261724   2.092   0.954  11.059  0.2389 -0.6387  1.1096
13437TIP3   OH261725   5.263   6.748   3.384 -0.3169  0.8926  0.1906
13437TIP3    H161726   5.284   6.690   3.310  0.0618  0.4230  0.6571
13437TIP3    H261727   5.186   6.796   3.355  0.4140  1.4504 -0.9142
13438TIP3   OH261728   4.289   4.188  15.604  0.0448 -0.1094 -0.0915
13438TIP3    H161729   4.286   4.236  15.522  0.1212 -0.5149 -0.3307
13438TIP3    H261730   4.349   4.238  15.659 -2.5119  2.1136  0.9693
13439TIP3   OH261731   1.911   2.660  10.795 -0.3967  0.2889  0.3250
13439TIP3    H161732   1.953   2.669  10.710  0.1723  1.8338  0.7457
13439TIP3    H261733   1.831   2.713  10.788 -0.8755 -0.4052  0.4316
13440TIP3   OH261734   1.086   4.006   6.300  0.1125 -0.1054 -0.7432
13440TIP3    H161735   1.017   4.066   6.272 -0.3627  0.4623  1.4658
13440TIP3    H261736   1.139   4.058   6.361 -1.3920 -2.3265  2.7450
13441TIP3   OH261737   5.838   3.927  13.475  0.4842 -0.0864  0.3399
13441TIP3    H161738   5.816   3.853  13.417 -2.0971 -0.8674  2.1310
13441TIP3    H261739   5.932   3.939  13.464  0.6314 -2.3066 -1.5555
13442TIP3   OH261740   5.117   5.177   4.191  0.4542  0.0062  0.8550
13442TIP3    H161741   5.158   5.259   4.218  0.1454  1.0595 -1.5401
13442TIP3    H261742   5.171   5.108   4.230  2.0564  1.3637  1.1232
13443TIP3   OH261743   5.570   3.502   0.601 -0.3009 -0.0516 -0.6531
13443TIP3    H161744   5.553   3.538   0.688  0.0500 -0.5239 -0.3816
13443TIP3    H261745   5.591   3.578   0.547 -0.1707  0.2088 -0.2424
13444TIP3   OH261746   5.313   4.198  17.068  0.5511  0.6456 -0.2054
13444TIP3    H161747   5.237   4.140  17.081 -1.0349  3.0215  2.0230
13444TIP3    H261748   5.387   4.146  17.098 -0.4796 -0.9819 -0.3338
13445TIP3   OH261749   1.457   3.903  16.116  0.0379  0.3482  0.2503
13445TIP3    H161750   1.439   3.937  16.204  2.2681  0.5424  0.6869
13445TIP3    H261751   1.420   3.969  16.057 -0.5381  0.7479  1.0392
13446TIP3   OH261752   1.756   3.216   4.955  0.2642  0.0125  0.2282
13446TIP3    H161753   1.783   3.203   5.046  0.4433 -0.1499  0.1526
13446TIP3    H261754   1.750   3.311   4.945  2.3440  0.1548 -0.1838
13447TIP3   OH261755   1.637   4.721  13.822  0.0703 -0.4441 -0.2190
13447TIP3    H161756   1.726   4.689  13.835 -0.1536 -0.4109  1.7585
13447TIP3    H261757   1.598   4.720  13.910 -1.1545  1.6616 -0.6527
13448TIP3   OH261758   6.680   3.372  11.359 -0.3836 -0.3385  0.4032
13448TIP3    H161759   6.724   3.458  11.361 -1.1957  0.1067  2.8032
13448TIP3    H261760   6.629   3.373  11.278  0.7329  0.8449 -0.3309
13449TIP3   OH261761   3.905   4.767  16.307  0.0359  0.5965 -0.4931
13449TIP3    H161762   3.819   4.732  16.333  0.2405  1.4363  1.4974
13449TIP3    H261763   3.968   4.701  16.337  0.1821  0.7790 -0.3970
13450TIP3   OH261764   0.982   4.128  13.718  0.3555  0.5124  0.1125
13450TIP3    H161765   1.069   4.088  13.731  0.0647 -1.0789 -2.1850
13450TIP3    H261766   0.998   4.201  13.659  0.2390  0.6856  0.2964
13451TIP3   OH261767   4.189   5.080   0.690 -0.1295  0.2322  0.6246
13451TIP3    H161768   4.203   4.995   0.732  0.7329 -0.1688 -0.4234
13451TIP3    H261769   4.106   5.111   0.726  0.3309 -0.2988  2.2390
13452TIP3   OH261770   5.522   0.781   2.973 -0.3182  0.4901 -0.5329
13452TIP3    H161771   5.454   0.835   2.933 -0.3540  0.5303 -0.4188
13452TIP3    H261772   5.595   0.841   2.988 -0.2989  0.4714 -0.5521
13453TIP3   OH261773   4.352   3.187   6.176 -1.2212 -0.2977  0.1977
13453TIP3    H161774   4.443   3.159   6.184 -1.0770  0.1232  0.0695
13453TIP3    H261775   4.306   3.109   6.143 -0.4644  0.1482 -2.1485
13454TIP3   OH261776   4.296   6.218   2.600  0.5862  0.0548  0.2218
13454TIP3    H161777   4.239   6.155   2.644  3.4543 -1.9955  1.3103
13454TIP3    H261778   4.283   6.202   2.507 -0.5099 -0.3944  0.4369
13455TIP3   OH261779   3.253   5.424  10.398  0.3252  0.0173 -0.2439
13455TIP3    H161780   3.244   5.481  10.322  1.4641  0.3424 -0.1631
13455TIP3    H261781   3.239   5.336  10.364  0.8893  0.1557 -0.8568
13456TIP3   OH261782   6.253   2.478  15.725 -0.3172  0.3199 -0.0466
13456TIP3    H161783   6.242   2.427  15.644 -2.1858  0.3787  0.1408
13456TIP3    H261784   6.274   2.412  15.791 -2.2093 -0.1978  0.0867
13457TIP3   OH261785   4.617   5.904   0.857 -0.0575 -0.5610  0.2811
13457TIP3    H161786   4.566   5.823   0.861  1.1472 -1.3059  1.9080
13457TIP3    H261787   4.672   5.901   0.936  0.6879  1.4015 -0.1101
13458TIP3   OH261788   1.295   5.868   3.695  0.0275 -0.0709 -0.3699
13458TIP3    H161789   1.220   5.861   3.636 -0.4120  0.5336  0.0958
13458TIP3    H261790   1.371   5.857   3.639 -0.3867  0.1893 -1.0004
13459TIP3   OH261791   2.147   2.248  16.854 -0.2512  0.1384  0.0920
13459TIP3    H161792   2.185   2.311  16.915 -2.2397  0.3182  1.2291
13459TIP3    H261793   2.053   2.251  16.871 -0.6484 -1.4174 -1.4826
13460TIP3   OH261794   6.583   6.159   1.551  0.4015  0.2726 -0.0257
13460TIP3    H161795   6.665   6.124   1.517 -0.6030 -3.1821  0.6980
13460TIP3    H261796   6.544   6.205   1.476  2.0866  0.3166 -0.9224
13461TIP3   OH261797   4.960   6.789   4.986  0.1828  0.1117  0.0769
13461TIP3    H161798   4.867   6.774   5.003  0.3045  0.4613  1.1554
13461TIP3    H261799   4.985   6.856   5.050  0.5037  2.2091 -2.1112
13462TIP3   OH261800   3.273   2.568   3.729  0.1008 -0.5803 -0.2818
13462TIP3    H161801   3.206   2.625   3.690  0.1276  0.1760  0.7319
13462TIP3    H261802   3.223   2.499   3.773  0.0785 -1.6635 -1.9331
13463TIP3   OH261803   0.130   5.845  11.744 -0.0381  0.4071  0.2698
13463TIP3    H161804   0.192   5.899  11.696  0.9760  0.7418  1.8764
13463TIP3    H261805   0.133   5.760  11.700  2.1122  0.2088  0.7249
13464TIP3   OH261806   0.069   3.420   1.200  0.0401  0.2056  0.0451
13464TIP3    H161807   0.088   3.400   1.109  1.7826  1.2725  0.1111
13464TIP3    H261808   0.153   3.404   1.245 -0.4573  0.8480  1.2361
13465TIP3   OH261809   3.429   4.951   5.434 -0.1681  0.1393 -0.9190
13465TIP3    H161810   3.431   4.861   5.401  1.7753  0.0827 -0.7646
13465TIP3    H261811   3.518   4.983   5.421 -0.5618  1.6924 -0.0028
13466TIP3   OH261812   2.604   2.234  15.514 -0.2771 -1.1288  0.4255
13466TIP3    H161813   2.558   2.203  15.436  0.0992 -0.8990  0.1098
13466TIP3    H261814   2.614   2.156  15.568  0.0892 -1.4365 -0.0714
13467TIP3   OH261815   2.541   1.291  17.057 -0.2744 -0.7589  0.6142
13467TIP3    H161816   2.507   1.280  16.968  0.9648 -1.5037  0.2053
13467TIP3    H261817   2.525   1.383  17.078  3.0774  0.6901 -2.0496
13468TIP3   OH261818   0.844   5.592  13.101 -0.3020 -0.3815 -0.0568
13468TIP3    H161819   0.875   5.502  13.091  0.7344 -0.0111 -0.3052
13468TIP3    H261820   0.785   5.588  13.176 -0.2999 -1.2784 -0.0874
13469TIP3   OH261821   6.647   0.314   4.969  0.1407  0.2213 -0.3186
13469TIP3    H161822   6.564   0.274   4.994  0.0434 -0.3312 -1.4694
13469TIP3    H261823   6.646   0.400   5.011 -1.0779  0.2778 -0.4414
13470TIP3   OH261824   6.185   4.539   4.121 -0.3198  0.0009 -0.3931
13470TIP3    H161825   6.229   4.462   4.156 -0.2789 -0.4286 -1.3595
13470TIP3    H261826   6.222   4.612   4.170 -0.4257 -0.5922  0.5985
13471TIP3   OH261827   0.652   3.664   4.111  0.6501  0.3464  0.4126
13471TIP3    H161828   0.622   3.638   4.024 -0.2395 -1.9960  1.3472
13471TIP3    H261829   0.581   3.720   4.145 -1.1587 -2.2430  1.2130
13472TIP3   OH261830   0.190   1.206   5.962  0.3251  0.2297 -0.1508
13472TIP3    H161831   0.182   1.130   6.020 -1.6187  1.1280  0.8680
13472TIP3    H261832   0.259   1.259   6.001  0.3830 -0.1010  0.2099
13473TIP3   OH261833   4.276   6.736   0.958  0.4099 -0.2474  0.3017
13473TIP3    H161834   4.292   6.652   1.002  0.2255 -0.0608  0.7340
13473TIP3    H261835   4.272   6.800   1.029 -0.3602 -0.0103  0.0525
13474TIP3   OH261836   3.324   6.221  16.096  0.3609  0.0316  0.5188
13474TIP3    H161837   3.282   6.288  16.150 -0.3206  0.0102  0.0218
13474TIP3    H261838   3.301   6.138  16.137 -1.1579 -0.0630 -0.4503
13475TIP3   OH261839   6.792   5.056   0.664  0.1508  0.6103 -0.7560
13475TIP3    H161840   6.701   5.074   0.687  0.4122  0.8829  0.1105
13475TIP3    H261841   6.797   4.961   0.657 -0.1167  0.5671 -0.4077
13476TIP3   OH261842   1.228   4.455   1.499  0.3794  0.2250 -0.3486
13476TIP3    H161843   1.233   4.547   1.524  1.0927 -0.2823  1.5530
13476TIP3    H261844   1.307   4.441   1.447 -0.1192  0.8424 -1.3000
13477TIP3   OH261845   3.344   0.419   5.055 -0.1527 -0.4519 -0.3261
13477TIP3    H161846   3.397   0.397   5.132 -0.2422  0.8122  0.1092
13477TIP3    H261847   3.398   0.391   4.980  1.1825  0.8640  0.1057
13478TIP3   OH261848   6.442   2.467  14.119 -0.2087 -0.1084  0.5593
13478TIP3    H161849   6.389   2.459  14.198  0.0464 -1.4377  0.6304
13478TIP3    H261850   6.468   2.377  14.099  0.1142  0.2553 -0.7792
13479TIP3   OH261851   1.529   4.684  12.147 -0.8022 -0.1047 -0.0121
13479TIP3    H161852   1.555   4.675  12.239  2.0915  1.3921 -0.5611
13479TIP3    H261853   1.435   4.664  12.147 -1.3187  1.4715  3.5414
13480TIP3   OH261854   3.502   2.331  16.008 -0.6264  0.3156  0.0797
13480TIP3    H161855   3.416   2.374  16.005 -0.2606  1.0265 -0.9346
13480TIP3    H261856   3.520   2.308  15.917  0.5125  0.7056  0.1926
13481TIP3   OH261857   0.963   6.693   2.582  0.4985 -0.8443 -0.4422
13481TIP3    H161858   1.008   6.768   2.542  0.1273 -0.2096  0.3058
13481TIP3    H261859   0.876   6.726   2.604  0.8190 -1.0319  1.2404
13482TIP3   OH261860   3.054   0.499  16.486 -0.3345 -0.2040  0.4656
13482TIP3    H161861   3.007   0.569  16.531 -2.9368 -1.6294  0.1810
13482TIP3    H261862   3.119   0.468  16.549 -1.0967  0.5522  1.6529
13483TIP3   OH261863   1.405   6.084   4.720 -0.2032  0.5810  0.5455
13483TIP3    H161864   1.456   6.149   4.769  1.0315  0.6378 -0.7502
13483TIP3    H261865   1.359   6.135   4.654 -0.9633  0.3690  0.8977
13484TIP3   OH261866   0.480   1.428  12.954 -0.4124  0.6653 -0.1452
13484TIP3    H161867   0.450   1.341  12.928 -0.8687  0.3766  1.2614
13484TIP3    H261868   0.540   1.454  12.884  0.7912 -1.3413  0.0400
13485TIP3   OH261869   1.512   1.301   2.646  0.3981  0.3036 -0.3225
13485TIP3    H161870   1.454   1.255   2.585  0.4191 -2.1162  1.3667
13485TIP3    H261871   1.595   1.309   2.600  0.2237 -0.9030 -0.8645
13486TIP3   OH261872   2.691   2.545   6.775  0.3842 -0.1745  1.0282
13486TIP3    H161873   2.646   2.462   6.764  2.6604 -1.2625 -1.1759
13486TIP3    H261874   2.662   2.598   6.701  1.1560 -0.1713  0.7115
13487TIP3   OH261875   1.273   0.165  14.876 -0.4410  0.4778  0.2395
13487TIP3    H161876   1.265   0.070  14.889 -1.2387  0.2260 -1.7434
13487TIP3    H261877   1.189   0.190  14.837  0.6400  1.5629 -1.4910
13488TIP3   OH261878   3.689   5.925  12.016  0.0587 -0.4662 -0.3083
13488TIP3    H161879   3.783   5.904  12.013  0.0571 -0.4009 -0.8546
13488TIP3    H261880   3.650   5.850  12.062  0.4494 -0.2229  0.4487
13489TIP3   OH261881   3.628   5.866  13.989 -0.0267 -0.5239  0.8844
13489TIP3    H161882   3.713   5.824  13.975  0.1183 -0.7663  2.3545
13489TIP3    H261883   3.646   5.959  13.982  0.1811 -0.6067  0.2848
13490TIP3   OH261884   6.324   2.499  14.381 -0.4676 -0.0444  0.1138
13490TIP3    H161885   6.315   2.489  14.475  0.5266  0.6557  0.2937
13490TIP3    H261886   6.321   2.594  14.366  1.5312 -0.0038 -0.3041
13491TIP3   OH261887   2.925   0.651   4.860  0.2500  0.3913 -0.1971
13491TIP3    H161888   3.019   0.643   4.880  0.3172 -0.0055 -0.6643
13491TIP3    H261889   2.887   0.685   4.941  0.7386  0.1953  0.1251
13492TIP3   OH261890   2.127   5.789   1.933  0.7594  0.3454  0.3678
13492TIP3    H161891   2.139   5.707   1.979 -0.5149 -0.0500  0.0378
13492TIP3    H261892   2.099   5.851   2.000  0.9415  0.3171  0.4727
13493TIP3   OH261893   4.197   6.694  13.623 -0.4825  0.5427 -0.1325
13493TIP3    H161894   4.247   6.692  13.541  0.2789  2.9767  0.2112
13493TIP3    H261895   4.126   6.631  13.608  1.0177 -0.9133 -1.6991
13494TIP3   OH261896   4.223   1.325  16.585  0.2599  0.0720  0.5431
13494TIP3    H161897   4.275   1.373  16.521 -0.9278 -0.1052 -0.5911
13494TIP3    H261898   4.183   1.254  16.535 -0.7761 -0.0199  1.4673
13495TIP3   OH261899   5.565   5.480  12.165  0.0188  0.2855  0.2093
13495TIP3    H161900   5.543   5.536  12.091  1.2268  0.0319 -0.3805
13495TIP3    H261901   5.629   5.418  12.129 -0.6480 -0.9259  1.0508
13496TIP3   OH261902   3.629   0.441   4.894  0.1158 -0.3513 -0.3411
13496TIP3    H161903   3.651   0.434   4.987  0.0329 -1.5692 -0.4033
13496TIP3    H261904   3.629   0.535   4.877  1.2041 -0.1504  0.6396
13497TIP3   OH261905   2.083   0.823   2.341  0.2255 -0.4261  0.3897
13497TIP3    H161906   2.110   0.878   2.267 -1.4916 -0.6780 -0.4970
13497TIP3    H261907   2.151   0.757   2.348  0.9601  0.2388 -0.2697
13498TIP3   OH261908   1.896   2.435  14.878  0.2255 -0.1547  0.8572
13498TIP3    H161909   1.943   2.488  14.814 -0.5984  1.2335  1.3614
13498TIP3    H261910   1.857   2.365  14.826  0.4746  0.3256 -0.0001
13499TIP3   OH261911   1.198   0.410   0.643  0.3426 -0.5057  0.4057
13499TIP3    H161912   1.167   0.481   0.700  0.0735 -1.4080  1.4228
13499TIP3    H261913   1.129   0.344   0.647  0.5961 -0.8446 -0.5111
13500TIP3   OH261914   4.082   0.357  12.513 -0.0626 -0.1940 -0.4124
13500TIP3    H161915   4.093   0.452  12.506 -0.8023 -0.0855 -0.1829
13500TIP3    H261916   4.025   0.334  12.440 -2.0532 -0.0581  1.0054
13501TIP3   OH261917   1.169   3.673  15.561  0.1826 -0.0008 -0.4926
13501TIP3    H161918   1.196   3.711  15.645  1.9851  0.2651 -1.1536
13501TIP3    H261919   1.088   3.626  15.581  0.8590 -0.4061  1.5144
13502TIP3   OH261920   4.354   5.191   0.362  0.1359  0.2609  0.0865
13502TIP3    H161921   4.447   5.170   0.370  0.3092  0.8122 -0.4234
13502TIP3    H261922   4.352   5.271   0.310 -0.6108  0.4190  0.3481
13503TIP3   OH261923   1.411   0.319  12.312  0.7380 -0.3935  0.1236
13503TIP3    H161924   1.499   0.281  12.318  1.6852  1.5038 -1.0272
13503TIP3    H261925   1.422   0.399  12.262 -1.6943 -0.1537 -0.1705
13504TIP3   OH261926   5.343   0.881   5.143 -0.0764  0.4718 -0.2067
13504TIP3    H161927   5.297   0.964   5.128 -1.8304 -0.2128  1.0025
13504TIP3    H261928   5.339   0.869   5.238  1.4101 -0.3287 -0.2247
13505TIP3   OH261929   1.579   2.596   1.204  0.2457  0.0942 -0.1899
13505TIP3    H161930   1.582   2.564   1.114  0.1825  1.6464 -0.7673
13505TIP3    H261931   1.618   2.683   1.201  0.4173  0.1096  1.3267
13506TIP3   OH261932   1.092   0.474   0.088 -0.2227  1.0996  0.4073
13506TIP3    H161933   1.076   0.560   0.048 -0.8992  1.5783  1.6348
13506TIP3    H261934   1.036   0.414   0.040 -0.4755  1.5193  0.1678
13507TIP3   OH261935   5.557   3.304   4.578 -0.0090 -0.0065 -0.6490
13507TIP3    H161936   5.476   3.354   4.574 -0.0127  0.0554  0.0600
13507TIP3    H261937   5.554   3.260   4.663  1.1894  0.8631 -0.1143
13508TIP3   OH261938   6.441   5.340   0.759  0.1076  0.2912 -0.3811
13508TIP3    H161939   6.441   5.339   0.663  0.8512  1.5000 -0.4192
13508TIP3    H261940   6.525   5.302   0.783  0.1991  0.5911 -0.2285
13509TIP3   OH261941   3.459   2.625   0.578 -0.4930  0.3307  0.4258
13509TIP3    H161942   3.546   2.601   0.609 -0.4979  0.6245  0.6751
13509TIP3    H261943   3.473   2.704   0.526 -0.3473 -0.6964 -1.1597
13510TIP3   OH261944   2.148   6.364  16.753 -0.3321  0.3733  0.0070
13510TIP3    H161945   2.144   6.455  16.782 -0.2720 -0.3788  2.5642
13510TIP3    H261946   2.074   6.321  16.796 -0.8245 -0.6921 -1.7593
13511TIP3   OH261947   1.949   0.909  15.496  0.7828 -0.5488 -0.7520
13511TIP3    H161948   1.907   0.992  15.474  1.2100  0.3045  1.4242
13511TIP3    H261949   1.890   0.842  15.461 -1.2083  0.6561  0.1393
13512TIP3   OH261950   0.750   6.284  17.044 -0.5256  0.7016  0.3158
13512TIP3    H161951   0.734   6.258  17.135 -1.3733 -0.2787 -0.0852
13512TIP3    H261952   0.760   6.379  17.047  0.9940  0.5298  1.6273
13513TIP3   OH261953   3.780   3.975   5.588  0.3864  0.8438 -0.1056
13513TIP3    H161954   3.708   3.947   5.530  1.5561 -0.6511 -0.8997
13513TIP3    H261955   3.781   4.070   5.579 -1.1433  0.8630 -0.4867
13514TIP3   OH261956   1.532   0.843   3.280  0.2252  0.7297 -0.6787
13514TIP3    H161957   1.456   0.814   3.230  0.7210  0.1717 -1.1250
13514TIP3    H261958   1.518   0.937   3.292 -1.7186  0.2667  1.3544
13515TIP3   OH261959   2.327   3.004   2.941  0.4305  0.1536  0.4508
13515TIP3    H161960   2.418   2.993   2.966  0.3185  1.3393  1.4763
13515TIP3    H261961   2.287   3.048   3.016 -1.7347 -3.0751  1.4221
13516TIP3   OH261962   0.115   1.602   6.280 -0.2796 -0.0177  0.1731
13516TIP3    H161963   0.196   1.554   6.264  1.1313  1.9752  0.8870
13516TIP3    H261964   0.144   1.690   6.307 -2.6119  0.1314  2.6799
13517TIP3   OH261965   6.142   5.543  11.007  0.0068 -0.3880  0.4137
13517TIP3    H161966   6.134   5.581  10.920  2.4127  1.9404  1.0763
13517TIP3    H261967   6.063   5.570  11.053  0.3332  1.4314 -0.0251
13518TIP3   OH261968   6.196   4.674   0.628  0.5396  0.2332  0.2286
13518TIP3    H161969   6.225   4.716   0.547  0.6974  2.0282  1.1780
13518TIP3    H261970   6.256   4.706   0.695  0.5617 -1.4144  1.0552
13519TIP3   OH261971   2.584   2.068  11.409  0.0419 -0.2894 -0.8350
13519TIP3    H161972   2.536   2.012  11.470 -0.4800  1.1686  0.1607
13519TIP3    H261973   2.675   2.061  11.438  0.1911 -1.6034 -1.5463
13520TIP3   OH261974   0.359   5.941   4.268 -0.1236 -0.1741  0.1462
13520TIP3    H161975   0.403   5.875   4.215  2.4565  0.5842  1.2075
13520TIP3    H261976   0.392   6.024   4.235 -0.3375  0.4056  1.3568
13521TIP3   OH261977   4.121   6.665   3.645 -0.1933  0.5118  0.0484
13521TIP3    H161978   4.134   6.662   3.739 -1.3383  1.1971  0.2473
13521TIP3    H261979   4.161   6.585   3.612 -0.4747 -0.1170  1.1995
13522TIP3   OH261980   6.433   0.246  13.147  0.2165  0.3590  0.7071
13522TIP3    H161981   6.513   0.300  13.148 -0.8042  1.9548 -0.2630
13522TIP3    H261982   6.418   0.228  13.054  0.3633 -1.3890  0.9983
13523TIP3   OH261983   5.490   6.472  13.406  0.7575  0.1593 -0.3718
13523TIP3    H161984   5.454   6.386  13.427  0.7014  0.3929  0.5559
13523TIP3    H261985   5.426   6.512  13.348  1.4881 -0.9794 -2.0493
13524TIP3   OH261986   1.097   2.032   1.198  0.3980 -0.8449  0.0734
13524TIP3    H161987   1.085   1.958   1.258 -0.3314 -1.6251 -0.9875
13524TIP3    H261988   1.063   2.000   1.114 -0.9426  1.0595 -0.1692
13525TIP3   OH261989   0.315   3.010   3.086  0.5226 -0.3884  0.2516
13525TIP3    H161990   0.386   3.026   3.024  2.1446 -1.4958  1.7177
13525TIP3    H261991   0.345   3.051   3.167 -2.1696  2.3107  0.0701
13526TIP3   OH261992   4.241   5.365   4.269  0.3840  0.6261  0.1038
13526TIP3    H161993   4.228   5.287   4.323 -0.3346  0.7308  0.0849
13526TIP3    H261994   4.302   5.419   4.320 -0.6784  0.9592  1.0644
13527TIP3   OH261995   0.778   5.825   3.026 -0.2421  0.6431  0.3405
13527TIP3    H161996   0.776   5.857   2.936 -0.6856 -0.2722  0.0070
13527TIP3    H261997   0.779   5.904   3.080  1.0485  1.2132 -0.4768
13528TIP3   OH261998   0.271   0.069  11.955 -0.2204  0.3605 -0.0379
13528TIP3    H161999   0.241   0.124  11.883 -0.5058  0.3899  0.1039
13528TIP3    H262000   0.326   0.127  12.009 -1.6912  0.9285  0.9147
13529TIP3   OH262001   3.254   6.270   1.880 -0.1031 -0.1653  0.2646
13529TIP3    H162002   3.183   6.324   1.843  0.7055  0.1000 -0.9878
13529TIP3    H262003   3.316   6.334   1.914  0.5678 -0.2962 -0.6671
13530TIP3   OH262004   3.546   4.143   2.302 -0.3151 -0.0410 -0.2320
13530TIP3    H162005   3.611   4.157   2.371  0.1755  0.0973 -0.7134
13530TIP3    H262006   3.484   4.080   2.339 -1.1250  1.4148  1.0380
13531TIP3   OH262007   1.739   4.313   1.391  0.3201  0.0300 -0.4269
13531TIP3    H162008   1.696   4.235   1.355 -0.8495 -0.1622  1.2780
13531TIP3    H262009   1.766   4.287   1.479 -0.4815  1.6594  0.3425
13532TIP3   OH262010   4.007   5.736  12.483  0.6970  0.1694 -0.2964
13532TIP3    H162011   3.988   5.823  12.449  1.2007 -0.0872 -1.2786
13532TIP3    H262012   4.044   5.752  12.570 -2.5091  0.7287  1.0918
13533TIP3   OH262013   5.718   3.445  10.349  0.2898  0.1099  0.4265
13533TIP3    H162014   5.760   3.464  10.432 -1.6602 -0.9426  1.7220
13533TIP3    H262015   5.629   3.478  10.357 -0.2402 -0.8646 -0.8546
13534TIP3   OH262016   0.093   0.536  11.880  0.1601 -0.0943 -0.6553
13534TIP3    H162017   0.075   0.571  11.968  1.8354 -0.5114 -0.1068
13534TIP3    H262018   0.126   0.611  11.831  1.4408 -0.3389 -0.2059
13535TIP3   OH262019   5.960   0.828  15.360  0.4257 -0.1583  0.1258
13535TIP3    H162020   6.038   0.875  15.330  0.6602 -0.6690 -0.0829
13535TIP3    H262021   5.983   0.736  15.349 -0.4325 -0.3018 -0.4834
13536TIP3   OH262022   6.098   1.791  12.505  0.3106  0.1982  0.2274
13536TIP3    H162023   6.113   1.790  12.410  0.0458  0.2019  0.1847
13536TIP3    H262024   6.024   1.732  12.518  1.2221 -0.9147  0.5917
13537TIP3   OH262025   1.780   6.745  14.975 -0.1995  0.2975 -0.2050
13537TIP3    H162026   1.827   6.665  14.996 -0.2987  0.2880 -0.0148
13537TIP3    H262027   1.824   6.779  14.897  1.8386  1.6703  1.4275
13538TIP3   OH262028   4.264   2.148   0.567 -0.1403 -0.4551 -0.0276
13538TIP3    H162029   4.171   2.127   0.577  0.1018 -1.0492  1.1879
13538TIP3    H262030   4.268   2.244   0.577 -0.6539 -0.3949 -0.3837
13539TIP3   OH262031   5.300   1.632   1.734 -0.1732  0.5815  0.3145
13539TIP3    H162032   5.316   1.621   1.640  0.8483 -1.4341  0.6595
13539TIP3    H262033   5.384   1.664   1.768  0.2882 -1.1249  0.8587
13540TIP3   OH262034   5.438   3.863   4.250  0.1080  0.4564 -0.0370
13540TIP3    H162035   5.375   3.936   4.249 -1.9785 -1.1999  1.2728
13540TIP3    H262036   5.414   3.810   4.174  0.5841  0.2957 -0.0768
13541TIP3   OH262037   6.777   6.432   2.880 -0.4806 -0.0932 -0.2900
13541TIP3    H162038   6.695   6.480   2.890  0.3997  1.3134  0.4549
13541TIP3    H262039   6.832   6.488   2.826  0.3958 -0.4706  0.1800
13542TIP3   OH262040   6.594   6.273  16.620 -0.1152  0.5966 -0.0424
13542TIP3    H162041   6.568   6.182  16.632 -1.2119  1.0254  1.0704
13542TIP3    H262042   6.613   6.305  16.709 -0.1404  1.5546 -0.3624
13543TIP3   OH262043   1.910   2.761  11.184 -0.3052  0.0652 -0.7329
13543TIP3    H162044   1.977   2.694  11.171  0.8665  1.4602 -2.3556
13543TIP3    H262045   1.835   2.731  11.133  0.1346 -0.1389 -1.2680
13544TIP3   OH262046   4.526   6.786  12.069 -0.5042 -0.1511  0.1969
13544TIP3    H162047   4.446   6.798  12.120 -0.9393 -0.1661 -0.4715
13544TIP3    H262048   4.529   6.693  12.049 -1.0663  0.0540 -0.9522
13545TIP3   OH262049   6.805   2.949   6.750  0.2153  0.2534  0.1942
13545TIP3    H162050   6.721   2.970   6.792 -0.5096 -1.1010 -0.4926
13545TIP3    H262051   6.803   2.853   6.742  1.6129  0.2564 -0.2954
13546TIP3   OH262052   3.235   0.695  10.325  0.7050 -0.2463  0.2257
13546TIP3    H162053   3.227   0.738  10.410  0.1706 -1.8028  0.9997
13546TIP3    H262054   3.146   0.696  10.289  0.3271 -2.1530  1.0169
13547TIP3   OH262055   4.239   4.686   4.806 -0.0582 -0.2865  0.4842
13547TIP3    H162056   4.261   4.726   4.721 -1.5020 -1.4632 -0.5009
13547TIP3    H262057   4.323   4.675   4.850  0.6652  0.8956 -0.5399
13548TIP3   OH262058   4.892   2.155   1.351  0.3148  0.2141 -0.3418
13548TIP3    H162059   4.842   2.107   1.284  0.9307  0.8679 -1.2989
13548TIP3    H262060   4.852   2.129   1.434 -0.0667 -1.0988 -0.9118
13549TIP3   OH262061   1.092   0.288   6.068  0.1164 -0.1995 -0.8279
13549TIP3    H162062   1.027   0.220   6.047 -1.2930  0.8746 -0.0872
13549TIP3    H262063   1.119   0.267   6.157 -0.7575  0.5248 -0.3807
13550TIP3   OH262064   2.235   2.426  16.635 -0.4682  0.5670 -0.7099
13550TIP3    H162065   2.213   2.366  16.705 -2.8293  0.0773 -1.7924
13550TIP3    H262066   2.264   2.369  16.563 -0.3688  0.9065 -0.9407
13551TIP3   OH262067   4.380   6.324   2.904  0.1232 -0.2985 -0.1808
13551TIP3    H162068   4.315   6.254   2.900  1.0393 -1.1726 -0.2560
13551TIP3    H262069   4.330   6.402   2.926 -0.9952 -0.8810 -0.5770
13552TIP3   OH262070   3.730   1.474   5.540 -0.1001 -0.0508 -0.2421
13552TIP3    H162071   3.663   1.508   5.600  0.1084 -0.1016  0.0219
13552TIP3    H262072   3.794   1.432   5.598 -0.1124 -0.4688 -0.5294
13553TIP3   OH262073   3.849   4.780   3.999  1.0341  0.3362 -0.5375
13553TIP3    H162074   3.760   4.807   3.980  0.3538 -0.7754  0.8811
13553TIP3    H262075   3.904   4.850   3.964 -0.5051  2.2800  0.7684
13554TIP3   OH262076   5.547   2.580   0.567 -0.5595  0.8069  0.1159
13554TIP3    H162077   5.578   2.490   0.570 -1.7336  0.3798  0.1117
13554TIP3    H262078   5.520   2.593   0.476  2.2416  2.1396 -0.6493
13555TIP3   OH262079   5.286   6.178  13.003  0.1689 -1.1360 -0.2573
13555TIP3    H162080   5.237   6.096  12.994 -1.1972 -0.3573 -0.0626
13555TIP3    H262081   5.220   6.246  13.011  1.2789 -0.1187  0.7405
13556TIP3   OH262082   4.735   0.742  13.954  0.4319 -0.5727 -0.0411
13556TIP3    H162083   4.728   0.668  14.014 -2.7867 -0.5091 -0.1406
13556TIP3    H262084   4.656   0.737  13.900  0.7302  2.1820 -0.9267
13557TIP3   OH262085   0.364   5.539  12.912 -0.1799 -0.0509 -0.3605
13557TIP3    H162086   0.424   5.489  12.857 -1.5960 -1.5853 -0.5718
13557TIP3    H262087   0.283   5.487  12.913 -1.1799  1.4561  0.7183
13558TIP3   OH262088   0.125   0.239  11.040  0.0348 -0.1791  0.1447
13558TIP3    H162089   0.175   0.225  10.959 -2.2788 -0.5580 -1.2894
13558TIP3    H262090   0.173   0.189  11.106  0.7312 -1.7849 -1.4931
13559TIP3   OH262091   1.969   5.812  11.351  0.7491  0.5903 -0.7559
13559TIP3    H162092   2.033   5.880  11.372  1.0090  0.3049 -0.6239
13559TIP3    H262093   1.893   5.861  11.319  0.1562  1.0674  1.2664
13560TIP3   OH262094   3.771   1.214   2.282  0.7822 -0.4590 -0.5912
13560TIP3    H162095   3.762   1.119   2.295 -2.5971 -0.0837  0.8567
13560TIP3    H262096   3.699   1.236   2.223 -0.0394  1.4814  1.0385
13561TIP3   OH262097   6.514   3.760  15.305 -0.5834 -0.3443  0.0044
13561TIP3    H162098   6.604   3.794  15.308 -0.6246  0.0376 -1.6313
13561TIP3    H262099   6.521   3.670  15.335  0.0778  0.1372  1.3655
13562TIP3   OH262100   2.228   6.175  12.829 -0.0462 -0.2612  0.0646
13562TIP3    H162101   2.220   6.086  12.862 -2.1039  0.1092  0.7245
13562TIP3    H262102   2.164   6.181  12.758  1.0970  0.2908 -0.9442
13563TIP3   OH262103   1.203   3.895  12.179 -0.8831 -0.1293  0.3769
13563TIP3    H162104   1.134   3.829  12.186 -0.6741 -0.3322  0.5467
13563TIP3    H262105   1.204   3.937  12.265 -2.1412  1.2413 -0.2314
13564TIP3   OH262106   6.328   5.766  11.868  0.0247 -0.6104  0.5778
13564TIP3    H162107   6.268   5.703  11.907 -0.0114  0.1754  1.8567
13564TIP3    H262108   6.271   5.833  11.830  0.0765 -0.5332  0.6360
13565TIP3   OH262109   2.899   3.544   3.316 -0.5534 -0.7055 -0.4533
13565TIP3    H162110   2.969   3.553   3.251  0.9937  0.5433  1.2542
13565TIP3    H262111   2.840   3.617   3.299 -0.7270 -1.0002 -1.1091
13566TIP3   OH262112   4.102   2.804   2.219  0.3166 -0.7990  0.5736
13566TIP3    H162113   4.066   2.872   2.162 -0.7691 -1.3062  0.6361
13566TIP3    H262114   4.149   2.852   2.287  1.6787 -0.1816 -0.7547
13567TIP3   OH262115   6.446   6.226  16.107 -0.2986  0.0796  0.0778
13567TIP3    H162116   6.374   6.167  16.085 -1.7715  2.1541 -1.0362
13567TIP3    H262117   6.497   6.232  16.026  0.6844 -0.7354  0.6168
13568TIP3   OH262118   5.894   1.903   1.126 -0.4648  0.5760 -0.2956
13568TIP3    H162119   5.814   1.855   1.147 -0.6804  0.8168 -0.5682
13568TIP3    H262120   5.964   1.842   1.149 -0.7242  0.3519 -0.0866
13569TIP3   OH262121   0.780   5.878  14.468  0.2888 -0.1439 -0.0618
13569TIP3    H162122   0.798   5.863  14.560 -1.2697  0.8246  0.4298
13569TIP3    H262123   0.697   5.834  14.451 -0.9154  2.0286 -0.2327
13570TIP3   OH262124   0.336   4.317   3.266  0.4018  0.3741 -0.0912
13570TIP3    H162125   0.259   4.327   3.322  0.3987  2.6503 -0.4078
13570TIP3    H262126   0.404   4.368   3.310  1.3679 -0.5575 -0.4684
13571TIP3   OH262127   6.492   2.659  12.346  0.4213 -0.1706 -0.4132
13571TIP3    H162128   6.407   2.635  12.309  0.3434  1.5757 -1.5242
13571TIP3    H262129   6.556   2.612  12.292  0.2466  1.2929 -2.0062
13572TIP3   OH262130   2.631   2.749   0.356  0.0212 -0.2004  0.2151
13572TIP3    H162131   2.599   2.681   0.296 -2.1879  0.4824  0.5150
13572TIP3    H262132   2.554   2.802   0.376  1.7332  2.8122 -0.4872
13573TIP3   OH262133   4.380   2.035  11.442  1.0330  0.5360 -0.6034
13573TIP3    H162134   4.402   2.124  11.414  0.2447  0.7840 -0.4685
13573TIP3    H262135   4.338   1.996  11.365 -2.9189  1.8528  0.6436
13574TIP3   OH262136   0.149   3.114  11.993 -0.1689 -0.0267  0.0426
13574TIP3    H162137   0.120   3.143  12.079  0.9916 -0.2436  0.5262
13574TIP3    H262138   0.068   3.104  11.942 -0.8408  0.4477  0.9853
13575TIP3   OH262139   3.674   5.561   5.941 -0.0584 -0.3508  0.1265
13575TIP3    H162140   3.654   5.621   6.013  1.7616 -1.0051  1.2648
13575TIP3    H262141   3.704   5.481   5.985  0.0396 -1.1638 -1.3601
13576TIP3   OH262142   5.827   3.313   3.383 -0.3534 -0.1252  0.4001
13576TIP3    H162143   5.800   3.245   3.321  1.3009 -0.1708 -0.3133
13576TIP3    H262144   5.769   3.301   3.458 -1.0633 -1.3781 -0.3136
13577TIP3   OH262145   4.856   5.342  12.970  1.1053 -0.2070 -0.2587
13577TIP3    H162146   4.825   5.411  12.911  0.0157 -0.9415 -0.5824
13577TIP3    H262147   4.813   5.262  12.938  1.4344 -0.8305  0.8022
13578TIP3   OH262148   1.532   2.170   4.733 -0.6715  0.1534  0.0895
13578TIP3    H162149   1.541   2.118   4.813  2.2128 -0.1023 -0.2889
13578TIP3    H262150   1.546   2.107   4.662  1.6464  1.1437 -0.4104
13579TIP3   OH262151   6.290   5.411   4.762 -0.0321 -0.5453 -0.0605
13579TIP3    H162152   6.331   5.495   4.741  0.5206 -0.6830  0.4485
13579TIP3    H262153   6.338   5.347   4.710 -1.0199 -0.4697 -1.1339
13580TIP3   OH262154   1.583   0.409   4.386  0.4744 -0.0061 -0.0604
13580TIP3    H162155   1.547   0.433   4.301 -1.3287 -1.6817  0.1655
13580TIP3    H262156   1.510   0.420   4.447  0.0463 -3.8620  0.3665
13581TIP3   OH262157   3.306   0.023  14.471  0.3453 -0.2254 -0.3875
13581TIP3    H162158   3.320   0.062  14.557  0.5121  0.7967 -0.8688
13581TIP3    H262159   3.238   0.077  14.430  1.1935  0.1220 -1.3929
13582TIP3   OH262160   2.796   0.687  16.148 -0.2772 -0.1472 -0.1538
13582TIP3    H162161   2.772   0.615  16.090  1.9616  0.3855 -1.9039
13582TIP3    H262162   2.824   0.645  16.229  0.8175 -1.2964 -1.0753
13583TIP3   OH262163   0.338   0.469   3.583  0.2167 -0.0096  0.5379
13583TIP3    H162164   0.259   0.460   3.529 -0.5667 -2.1298  1.9286
13583TIP3    H262165   0.405   0.421   3.535  1.1451  2.9055 -1.3244
13584TIP3   OH262166   4.882   3.021  12.629  0.0280 -0.3868  0.1139
13584TIP3    H162167   4.940   3.033  12.705 -0.4012 -1.1903  0.5878
13584TIP3    H262168   4.836   3.104  12.620  0.9615  0.1352 -0.0298
13585TIP3   OH262169   4.101   1.577   3.800 -0.2433 -0.6206  0.4766
13585TIP3    H162170   4.182   1.624   3.783 -0.4909 -0.4110 -0.1540
13585TIP3    H262171   4.046   1.640   3.846 -0.5972 -0.2615 -0.4212
13586TIP3   OH262172   2.717   6.459   1.326 -0.2601  0.1718  0.1206
13586TIP3    H162173   2.705   6.374   1.368 -2.0681 -0.5558 -1.7194
13586TIP3    H262174   2.668   6.521   1.381 -1.9126 -0.6178 -0.4129
13587TIP3   OH262175   2.446   1.080  15.198 -0.0970  0.5809  0.4211
13587TIP3    H162176   2.515   1.014  15.205 -2.1049 -1.7125 -0.0414
13587TIP3    H262177   2.380   1.054  15.262 -0.6775  2.5941  0.7257
13588TIP3   OH262178   3.850   2.163  15.264  0.0789 -0.2399 -0.1494
13588TIP3    H162179   3.903   2.200  15.334 -0.2596  1.6828 -0.8392
13588TIP3    H262180   3.813   2.239  15.219 -2.1745 -1.4670 -0.5467
13589TIP3   OH262181   4.684   4.972  12.119 -0.2319  0.6807  0.4255
13589TIP3    H162182   4.676   5.025  12.039 -1.3410  0.6166  0.4868
13589TIP3    H262183   4.599   4.929  12.128  1.3399 -3.0794 -0.9441
13590TIP3   OH262184   6.074   3.757   2.357  0.8367  0.0207  0.0872
13590TIP3    H162185   6.109   3.845   2.368  0.9501 -0.2852  3.0162
13590TIP3    H262186   6.022   3.741   2.436 -0.9324 -1.7996 -1.3175
13591TIP3   OH262187   0.966   0.480  13.965 -0.3989  0.0482 -0.1843
13591TIP3    H162188   0.894   0.419  13.986 -0.8531  1.1595  1.6773
13591TIP3    H262189   0.996   0.452  13.878 -1.2838 -2.1526  0.1483
13592TIP3   OH262190   1.559   4.235   5.341 -0.1170 -1.0773  0.1471
13592TIP3    H162191   1.586   4.148   5.310  0.1389 -1.2917  0.9480
13592TIP3    H262192   1.628   4.262   5.402 -0.6630 -0.7300  0.6240
13593TIP3   OH262193   2.437   4.869  11.488  0.3897  0.1728 -0.2023
13593TIP3    H162194   2.419   4.903  11.575 -2.3140  0.8423 -0.9202
13593TIP3    H262195   2.373   4.913  11.431  1.5231 -0.8310 -2.3814
13594TIP3   OH262196   5.235   2.969  13.283  0.2013 -0.1368  0.4339
13594TIP3    H162197   5.215   2.897  13.343  0.6001 -0.9991 -0.4347
13594TIP3    H262198   5.150   2.998  13.250  0.0399 -0.2023  0.7895
13595TIP3   OH262199   5.336   6.542   4.617 -0.0890  0.7095 -0.2783
13595TIP3    H162200   5.405   6.608   4.628 -0.8903  1.6352 -0.7118
13595TIP3    H262201   5.286   6.571   4.541  0.3434 -1.1364 -1.3376
13596TIP3   OH262202   4.287   1.915  15.355  0.6666  0.0432 -0.2180
13596TIP3    H162203   4.245   1.995  15.388  0.3837 -0.5702  0.9627
13596TIP3    H262204   4.304   1.863  15.433  0.8980 -1.0326 -0.9672
13597TIP3   OH262205   2.354   2.728   1.468  0.0403  0.6992 -0.2686
13597TIP3    H162206   2.391   2.688   1.389 -1.5282  3.8287 -2.8414
13597TIP3    H262207   2.287   2.666   1.497  0.3489 -0.3347 -1.6472
13598TIP3   OH262208   3.998   1.904   2.246  0.1714  0.4050  0.0798
13598TIP3    H162209   4.012   1.898   2.152  0.3110 -1.7132  0.1829
13598TIP3    H262210   4.047   1.830   2.282 -1.1056  0.2619  1.6560
13599TIP3   OH262211   2.859   0.926  13.485 -0.2133  0.5079  0.6626
13599TIP3    H162212   2.825   0.848  13.442 -3.0716  1.4225  1.0002
13599TIP3    H262213   2.858   0.905  13.578 -1.0497  0.9250  0.7597
13600TIP3   OH262214   5.412   2.046  16.528  0.4470 -0.1311 -0.5114
13600TIP3    H162215   5.448   1.974  16.476 -0.2776 -1.4419  0.7182
13600TIP3    H262216   5.472   2.054  16.602  0.3033  0.2846 -0.4359
13601TIP3   OH262217   3.224   1.998  11.091  0.2346 -0.0826 -0.2669
13601TIP3    H162218   3.242   2.092  11.090 -0.0674  0.1019  2.6121
13601TIP3    H262219   3.311   1.958  11.092  0.3680  0.0970 -1.8568
13602TIP3   OH262220   3.165   2.718   5.182 -0.0612 -0.1444  0.3714
13602TIP3    H162221   3.073   2.727   5.204  0.0717 -0.0293  0.8826
13602TIP3    H262222   3.212   2.760   5.254  0.3884 -0.0841  0.0549
13603TIP3   OH262223   5.491   2.479   2.046  0.0975 -0.4295 -0.1326
13603TIP3    H162224   5.538   2.408   2.090  0.8035  1.2492  2.0162
13603TIP3    H262225   5.410   2.439   2.015  0.5023 -2.1719  0.9355
13604TIP3   OH262226   0.437   3.859  13.125  0.2038  0.0477 -0.1668
13604TIP3    H162227   0.532   3.867  13.120  0.3209 -1.0571 -0.0202
13604TIP3    H262228   0.418   3.855  13.219 -0.2040  2.2487 -0.1008
13605TIP3   OH262229   2.015   6.069  12.210 -0.4190 -0.4377  0.4516
13605TIP3    H162230   2.017   6.027  12.296 -0.2520  0.6411  0.9875
13605TIP3    H262231   1.988   5.999  12.150  0.5503 -1.4963  1.2013
13606TIP3   OH262232   2.819   5.940   5.421  0.0848  0.4052 -0.0026
13606TIP3    H162233   2.768   6.021   5.420 -0.9025 -0.1997 -0.4416
13606TIP3    H262234   2.753   5.870   5.415  0.9067 -0.4355  0.4930
13607TIP3   OH262235   4.643   2.054   0.323  0.6369  0.1657 -0.1811
13607TIP3    H162236   4.709   2.021   0.261  1.1985  0.9685 -0.0299
13607TIP3    H262237   4.665   2.011   0.406  0.2681 -0.4266 -0.3792
13608TIP3   OH262238   5.062   0.735   3.193 -0.0397  0.3150  0.1483
13608TIP3    H162239   4.969   0.757   3.200 -0.0343  0.3514  0.1046
13608TIP3    H262240   5.095   0.793   3.124  0.2388  1.0189  0.8577
13609TIP3   OH262241   0.362   4.015   1.672  0.0492 -0.4592  0.0368
13609TIP3    H162242   0.322   4.071   1.738  1.2581 -0.0228  0.4252
13609TIP3    H262243   0.401   3.943   1.721  2.5557  0.8076  0.0696
13610TIP3   OH262244   4.991   1.196  15.917 -0.0328 -0.5445  0.3442
13610TIP3    H162245   5.036   1.174  15.998 -0.2682  1.4984  1.0879
13610TIP3    H262246   5.040   1.270  15.881  0.1113 -1.4523 -1.4514
13611TIP3   OH262247   1.892   0.359  15.095  0.1410  0.2437  0.7261
13611TIP3    H162248   1.938   0.358  15.011  0.9078 -1.0423  1.1245
13611TIP3    H262249   1.959   0.379  15.159 -0.3150  0.5803  1.1046
13612TIP3   OH262250   1.854   1.463   3.999  0.1137 -0.1641  0.3663
13612TIP3    H162251   1.816   1.439   3.914  0.5025  0.1079  0.1133
13612TIP3    H262252   1.799   1.418   4.063 -0.0964 -0.4860 -0.0357
13613TIP3   OH262253   2.019   1.827   0.236  0.2278  0.0984  0.0630
13613TIP3    H162254   1.933   1.838   0.278  1.1074  0.4733  1.8663
13613TIP3    H262255   2.077   1.800   0.307  1.6175 -0.1339 -1.1187
13614TIP3   OH262256   2.963   4.782  14.696  0.4685 -0.0212 -0.0809
13614TIP3    H162257   2.991   4.813  14.610  1.0302  2.3678  0.9075
13614TIP3    H262258   3.019   4.827  14.758 -1.3571 -0.0145  1.6707
13615TIP3   OH262259   2.773   0.100  14.971 -0.2028 -0.3540 -0.0078
13615TIP3    H162260   2.786   0.010  14.942  1.1101 -0.1690 -0.0368
13615TIP3    H262261   2.733   0.144  14.895  3.0949  0.0983 -1.6542
13616TIP3   OH262262   3.506   0.002   1.367  0.2742 -0.4575  0.2773
13616TIP3    H162263   3.575   0.007   1.433  0.8613  1.4909 -0.4022
13616TIP3    H262264   3.429   0.039   1.410  0.5691  0.4983  0.0164
13617TIP3   OH262265   3.321   0.082  14.842  0.3516 -0.1478 -0.3986
13617TIP3    H162266   3.403   0.127  14.824 -0.3594  1.2699 -0.2645
13617TIP3    H262267   3.303   0.101  14.934 -0.7405  0.6602 -0.7504
13618TIP3   OH262268   5.506   1.931   5.192 -0.1624  0.3586  0.5535
13618TIP3    H162269   5.470   1.920   5.104  1.3911  1.1625 -0.2328
13618TIP3    H262270   5.600   1.913   5.182  0.1073  0.8341  1.9711
13619TIP3   OH262271   2.169   0.634   4.594  0.1770 -0.4791  0.3147
13619TIP3    H162272   2.176   0.728   4.610  1.0431 -0.3745 -0.5873
13619TIP3    H262273   2.243   0.596   4.641 -0.9991 -0.8961  1.9004
13620TIP3   OH262274   3.226   2.313  13.808  0.0361  0.3960  0.4463
13620TIP3    H162275   3.183   2.356  13.882  1.1183 -1.7741  2.4433
13620TIP3    H262276   3.302   2.368  13.788 -0.9149  1.6260  0.1125
13621TIP3   OH262277   0.222   6.599   3.418 -0.3308  0.1580 -0.3410
13621TIP3    H162278   0.269   6.521   3.389  1.4583  1.3592 -0.8675
13621TIP3    H262279   0.269   6.672   3.377 -3.1358  1.4530 -1.4963
13622TIP3   OH262280   2.625   5.977  14.111  0.1786 -0.4698  0.1993
13622TIP3    H162281   2.623   5.881  14.113 -0.9570 -0.5397 -1.4976
13622TIP3    H262282   2.550   6.001  14.056  0.7070  1.3851  0.2146
13623TIP3   OH262283   0.228   3.530   1.761  0.2745 -0.1624  0.2174
13623TIP3    H162284   0.223   3.449   1.812  0.7596 -0.4926 -0.2607
13623TIP3    H262285   0.138   3.563   1.760 -0.3636 -1.8431 -1.4687
13624TIP3   OH262286   4.267   3.345  14.790 -0.1021 -0.3493 -0.0112
13624TIP3    H162287   4.274   3.285  14.865 -2.4819 -3.2502 -1.8813
13624TIP3    H262288   4.203   3.410  14.817 -3.1509 -3.0025 -0.2930
13625TIP3   OH262289   5.461   6.282  15.319 -0.1848  0.3704 -0.1697
13625TIP3    H162290   5.476   6.191  15.347  0.6312  1.3058  2.7393
13625TIP3    H262291   5.372   6.281  15.283 -0.6485 -1.3736  0.8767
13626TIP3   OH262292   3.530   2.024   0.222 -0.6783 -0.7132 -0.4424
13626TIP3    H162293   3.509   2.117   0.230  0.9314 -0.3746  0.1585
13626TIP3    H262294   3.597   2.020   0.154  1.6067 -0.9822  1.6794
13627TIP3   OH262295   4.947   4.848  12.668 -0.1760  0.2397 -0.0158
13627TIP3    H162296   5.026   4.878  12.713 -0.4470  1.1284 -0.1298
13627TIP3    H262297   4.957   4.881  12.578 -0.2120 -0.4896 -0.2941
13628TIP3   OH262298   3.024   1.833  14.341  0.1318  0.1345  0.9450
13628TIP3    H162299   2.969   1.886  14.283  0.0199  0.7774  1.6116
13628TIP3    H262300   2.962   1.780  14.390  0.2937 -1.3056 -0.3481
13629TIP3   OH262301   2.590   3.547  11.719 -0.4842 -0.4323  0.2718
13629TIP3    H162302   2.513   3.492  11.733 -1.2962  0.5056 -0.4013
13629TIP3    H262303   2.602   3.547  11.624  0.1920 -0.3605  0.3568
13630TIP3   OH262304   1.373   1.024  15.846  0.6078 -0.3941  0.2365
13630TIP3    H162305   1.325   0.963  15.902  0.0133 -0.0904  0.0637
13630TIP3    H262306   1.395   0.971  15.769  0.4567 -0.5067  0.2687
13631TIP3   OH262307   1.027   5.569  12.653  0.1062 -0.1547  0.0229
13631TIP3    H162308   1.070   5.617  12.724 -1.3399  0.1970  0.6987
13631TIP3    H262309   0.952   5.623  12.629  0.8556 -0.0061 -2.1762
13632TIP3   OH262310   0.648   1.551  11.544  0.5627 -0.1304 -0.0190
13632TIP3    H162311   0.644   1.471  11.490 -1.4735  0.1817 -0.4000
13632TIP3    H262312   0.687   1.522  11.626  1.0321 -1.2461 -0.6121
13633TIP3   OH262313   2.554   0.383  13.833 -0.3978 -0.2809  0.6783
13633TIP3    H162314   2.513   0.342  13.757  0.4820  1.1692 -0.6351
13633TIP3    H262315   2.493   0.452  13.859 -0.5381 -0.5523  1.0668
13634TIP3   OH262316   0.064   2.941  13.711  0.2716 -0.0375  0.3707
13634TIP3    H162317   0.039   2.993  13.634 -0.6365  0.7010  1.1340
13634TIP3    H262318   0.127   2.995  13.758  0.3558 -0.2142  0.4617
13635TIP3   OH262319   4.438   0.177   4.042  0.4899  0.0263  0.0886
13635TIP3    H162320   4.463   0.171   3.950 -1.7769 -2.1368 -0.5061
13635TIP3    H262321   4.363   0.237   4.043 -0.9161 -1.6571  0.0940
13636TIP3   OH262322   5.022   4.479  11.774 -0.1369 -0.1584 -0.1953
13636TIP3    H162323   5.015   4.535  11.852  0.5152 -0.0740 -0.1993
13636TIP3    H262324   5.004   4.538  11.701 -0.9777 -0.2857 -0.1010
13637TIP3   OH262325   2.980   4.649   5.096 -0.3736 -0.4196 -0.4060
13637TIP3    H162326   2.957   4.728   5.046 -0.8518 -0.2953  0.0027
13637TIP3    H262327   3.070   4.666   5.126 -0.2158 -0.3374 -0.9051
13638TIP3   OH262328   3.152   2.093  13.335 -0.6283 -0.0599 -0.2209
13638TIP3    H162329   3.161   2.007  13.295 -0.1859  0.1528 -0.5921
13638TIP3    H262330   3.058   2.108  13.340 -0.7043 -0.5594 -0.1625
13639TIP3   OH262331   3.217   3.330  10.836  0.4604 -0.7307 -0.5818
13639TIP3    H162332   3.232   3.354  10.927  0.0770  0.0657 -0.7300
13639TIP3    H262333   3.175   3.406  10.797  0.1839 -1.2482 -1.3091
13640TIP3   OH262334   3.170   2.947  13.275 -0.3599 -0.1036 -0.1209
13640TIP3    H162335   3.263   2.970  13.272 -0.4051  0.0312 -0.5042
13640TIP3    H262336   3.143   2.942  13.183 -0.7752  0.0353 -0.0097
13641TIP3   OH262337   2.592   4.466   4.298  0.0248  0.9490  0.8526
13641TIP3    H162338   2.661   4.455   4.232 -0.1848  1.3661  0.5564
13641TIP3    H262339   2.609   4.552   4.336 -1.9430  2.3895 -1.1983
13642TIP3   OH262340   2.859   6.390  13.165  0.4083  0.5890  0.3387
13642TIP3    H162341   2.793   6.445  13.122  1.6726  2.3730  0.5892
13642TIP3    H262342   2.905   6.348  13.092 -1.5824 -1.4775  0.1771
13643TIP3   OH262343   4.410   0.978  13.167 -0.5136 -0.3311  0.0240
13643TIP3    H162344   4.315   0.985  13.154 -0.3257  1.1706 -0.7968
13643TIP3    H262345   4.439   0.920  13.096 -0.8833 -1.3912  0.7156
13644TIP3   OH262346   1.694   0.696  11.403 -0.4361 -0.5086  0.1033
13644TIP3    H162347   1.719   0.781  11.440 -0.9944  0.1290 -0.9200
13644TIP3    H262348   1.776   0.658  11.373 -0.2748  0.0645 -0.2055
13645TIP3   OH262349   3.402   1.805  11.960 -0.5782  0.1338  0.5845
13645TIP3    H162350   3.476   1.859  11.988 -0.5587 -0.0534  0.9025
13645TIP3    H262351   3.442   1.722  11.934 -0.5373  0.4887 -0.5297
13646TIP3   OH262352   5.766   1.622  14.126  0.1253 -0.1438  0.4011
13646TIP3    H162353   5.739   1.531  14.118 -0.5177 -0.0343  1.1354
13646TIP3    H262354   5.707   1.670  14.067  2.3259 -0.4807 -2.2232
13647TIP3   OH262355   4.601   5.532  14.717  0.4478  0.3877  0.2785
13647TIP3    H162356   4.604   5.477  14.639  2.2018 -0.9757  1.2415
13647TIP3    H262357   4.648   5.612  14.691 -0.3088  0.5962 -0.4973
13648TIP3   OH262358   5.724   1.555   0.604  0.0561 -0.7761  0.4087
13648TIP3    H162359   5.742   1.467   0.637  2.6781 -0.1387  0.8438
13648TIP3    H262360   5.773   1.613   0.663 -1.4789  1.0022  0.0383
13649TIP3   OH262361   1.191   3.612   3.382 -0.1666 -0.0124  0.1759
13649TIP3    H162362   1.168   3.659   3.462  0.2484 -0.3497  0.4931
13649TIP3    H262363   1.263   3.663   3.344 -0.4882  0.2540 -0.0872
13650TIP3   OH262364   1.644   1.083   2.421 -0.4558 -0.3307 -0.2766
13650TIP3    H162365   1.726   1.056   2.462  0.0177  1.2294 -0.1340
13650TIP3    H262366   1.669   1.151   2.359 -1.5017 -0.6976 -1.1274
13651TIP3   OH262367   2.037   5.205  16.408 -0.4801  0.3090  0.3122
13651TIP3    H162368   1.962   5.149  16.429 -0.5416  0.5934  0.8645
13651TIP3    H262369   2.008   5.293  16.429 -0.5897  0.6333 -1.1142
13652TIP3   OH262370   5.705   1.000  12.399 -0.5867 -0.2638 -0.5991
13652TIP3    H162371   5.646   1.044  12.337 -1.6888  0.0801  0.6375
13652TIP3    H262372   5.775   1.063  12.414  0.0572 -0.6135 -1.9726
13653TIP3   OH262373   0.104   2.096  14.027  0.2567 -0.1914  0.9336
13653TIP3    H162374   0.009   2.106  14.020  0.3261 -0.0793  0.1170
13653TIP3    H262375   0.136   2.185  14.045  0.3207 -0.0032 -0.0977
13654TIP3   OH262376   4.259   5.654   4.229  0.0866  0.3651  0.0536
13654TIP3    H162377   4.189   5.686   4.173 -0.5948  1.5565  1.5036
13654TIP3    H262378   4.220   5.578   4.274  0.4265 -0.2164 -0.6227
13655TIP3   OH262379   5.915   4.801  15.877  0.0668 -0.1941  0.1040
13655TIP3    H162380   5.851   4.800  15.947 -0.2062 -1.2289 -0.1406
13655TIP3    H262381   5.864   4.816  15.797  0.3939  1.1641  0.1322
13656TIP3   OH262382   0.496   4.088  16.334  0.1237  0.5732 -0.8122
13656TIP3    H162383   0.414   4.040  16.335  0.3987  0.1025  0.5555
13656TIP3    H262384   0.531   4.073  16.246  0.4954 -2.3047 -0.2901
13657TIP3   OH262385   6.703   0.747   1.083 -0.2360 -0.5954  0.2255
13657TIP3    H162386   6.620   0.701   1.073  0.2515 -1.2269 -1.2865
13657TIP3    H262387   6.761   0.684   1.126 -0.5419 -0.1310  1.3428
13658TIP3   OH262388   5.468   5.307  12.641  0.3063  0.7939 -0.1165
13658TIP3    H162389   5.435   5.385  12.687  0.9898 -1.0134  3.9016
13658TIP3    H262390   5.559   5.298  12.672 -0.0936 -2.1277  0.5085
13659TIP3   OH262391   3.115   4.818   5.361 -0.2543  0.2286  0.3488
13659TIP3    H162392   3.158   4.847   5.441  1.1921 -0.6597 -0.0808
13659TIP3    H262393   3.053   4.750   5.391 -0.6457  0.7930  0.8447
13660TIP3   OH262394   4.746   4.903  15.200  0.0112  0.0473 -0.0891
13660TIP3    H162395   4.769   4.873  15.112  0.2764 -1.1999  0.3776
13660TIP3    H262396   4.817   4.962  15.225  1.8549 -2.3269  0.6158
13661TIP3   OH262397   5.136   2.147  14.568  0.7895  0.2177  0.1500
13661TIP3    H162398   5.187   2.102  14.501 -1.3265 -1.3369 -0.5365
13661TIP3    H262399   5.096   2.077  14.619  1.7169  1.3773  2.6161
13662TIP3   OH262400   4.026   6.224  10.637 -0.1416 -0.1022  0.4562
13662TIP3    H162401   3.982   6.308  10.628 -0.5230 -0.3660 -0.2837
13662TIP3    H262402   4.118   6.245  10.650 -0.2924  0.4297  0.6836
13663TIP3   OH262403   4.822   0.081   0.789  0.8402 -0.0632  0.2638
13663TIP3    H162404   4.836  -0.006   0.827  1.6486 -0.0681 -0.0295
13663TIP3    H262405   4.756   0.066   0.720 -1.1908  0.0730  2.0747
13664TIP3   OH262406   5.156   5.236   3.660 -0.2514 -0.0855  0.2299
13664TIP3    H162407   5.133   5.278   3.743 -3.1852 -0.5318 -0.2446
13664TIP3    H262408   5.236   5.187   3.680  0.6182  1.8670  2.0401
13665TIP3   OH262409   6.109   4.851  13.219  0.1667  0.2233 -0.0721
13665TIP3    H162410   6.065   4.843  13.135  0.6150  0.9057 -0.3859
13665TIP3    H262411   6.046   4.817  13.283  0.9829 -3.3441 -0.9397
13666TIP3   OH262412   6.040   4.829   2.120  0.4100 -0.2704  0.1366
13666TIP3    H162413   5.980   4.760   2.150 -0.1258  0.1673  0.0941
13666TIP3    H262414   5.982   4.899   2.089  0.9456  0.1704  0.1167
13667TIP3   OH262415   4.803   5.990  12.767  0.1407  0.0191 -0.0332
13667TIP3    H162416   4.822   6.061  12.706  0.1158 -0.2949 -0.4083
13667TIP3    H262417   4.866   5.922  12.745  0.0115 -0.1671  0.1717
13668TIP3   OH262418   4.541   0.202  15.790 -0.1456  0.2541 -0.1033
13668TIP3    H162419   4.612   0.177  15.730  2.3160 -0.9402  3.0525
13668TIP3    H262420   4.516   0.121  15.833 -0.7402  1.2742  1.5695
13669TIP3   OH262421   3.336   1.651   1.722  0.8166  0.4394  0.4020
13669TIP3    H162422   3.286   1.703   1.785 -1.7886 -0.3976 -0.8502
13669TIP3    H262423   3.402   1.606   1.775 -1.1068 -0.0648  2.5220
13670TIP3   OH262424   1.077   5.257   4.309  0.3527  0.3600 -0.4971
13670TIP3    H162425   0.992   5.272   4.351 -0.3012  0.9403 -1.9421
13670TIP3    H262426   1.130   5.332   4.335 -0.5140  1.4700 -1.8062
13671TIP3   OH262427   5.471   0.959  15.067  0.1952 -0.1455 -0.1562
13671TIP3    H162428   5.381   0.968  15.034  0.1063 -1.1153 -0.1950
13671TIP3    H262429   5.513   1.041  15.042 -0.7295  0.4008  0.0221
13672TIP3   OH262430   0.772   5.388   3.883 -0.3542 -0.1582 -0.0204
13672TIP3    H162431   0.734   5.420   3.964  0.5356 -0.1871  0.4173
13672TIP3    H262432   0.830   5.458   3.854 -0.7947 -0.0731 -0.7311
13673TIP3   OH262433   0.225   3.616   3.348 -0.2067 -0.2728  0.4773
13673TIP3    H162434   0.164   3.688   3.361  0.2607  0.2466 -0.1015
13673TIP3    H262435   0.173   3.546   3.308 -0.9238 -0.7063  2.0773
13674TIP3   OH262436   3.691   2.279  10.857  0.8569 -0.1050  0.1279
13674TIP3    H162437   3.723   2.369  10.863 -1.2907  0.8276 -1.2393
13674TIP3    H262438   3.725   2.248  10.773  1.3690 -0.5041  0.4742
13675TIP3   OH262439   5.659   5.242  11.424 -0.1510  0.5221  0.1544
13675TIP3    H162440   5.709   5.244  11.505  0.2371  0.8288 -0.0918
13675TIP3    H262441   5.570   5.265  11.450 -0.6093 -1.7974  0.8933
13676TIP3   OH262442   4.567   6.550  11.925 -0.0875  0.2176 -0.0722
13676TIP3    H162443   4.472   6.553  11.913 -0.2407  3.9910  1.0011
13676TIP3    H262444   4.602   6.548  11.836 -1.1750  0.1417 -0.5124
13677TIP3   OH262445   2.339   2.248  13.803  0.1222 -0.4614  0.5722
13677TIP3    H162446   2.420   2.215  13.842  1.5968 -0.0425 -1.8843
13677TIP3    H262447   2.354   2.342  13.792 -0.8844 -0.2951  0.4872
13678TIP3   OH262448   0.437   3.794   2.466 -0.0518  0.3832 -0.3023
13678TIP3    H162449   0.533   3.794   2.471 -0.0128 -0.0732 -0.9327
13678TIP3    H262450   0.416   3.873   2.416 -0.0001  0.4709 -0.1845
13679TIP3   OH262451   3.465   1.440   2.814  0.1216  0.2823  0.4647
13679TIP3    H162452   3.484   1.528   2.783  0.7692  0.2849  0.8560
13679TIP3    H262453   3.429   1.453   2.902 -0.6832  0.2098  0.1542
13680TIP3   OH262454   5.500   2.814  14.173  0.0480 -0.4502  0.2819
13680TIP3    H162455   5.434   2.747  14.156  2.1371 -2.3641 -0.6728
13680TIP3    H262456   5.512   2.858  14.088  0.3435 -0.4491  0.3235
13681TIP3   OH262457   0.566   2.757  15.859 -0.0019  0.0131  0.1016
13681TIP3    H162458   0.619   2.756  15.938  0.1665  0.8494  0.0136
13681TIP3    H262459   0.627   2.735  15.788  0.1660  0.6138  0.0467
13682TIP3   OH262460   3.512   0.871   4.402 -0.5362  0.1243  0.2432
13682TIP3    H162461   3.607   0.878   4.410 -0.1315 -4.0252  0.8738
13682TIP3    H262462   3.478   0.899   4.487  0.0155  1.6732 -0.0037
13683TIP3   OH262463   5.870   4.412   0.722 -0.1680  0.2626 -0.2317
13683TIP3    H162464   5.859   4.424   0.628 -2.4939  1.6042  0.1172
13683TIP3    H262465   5.797   4.461   0.761 -0.6180 -2.0671  2.1855
13684TIP3   OH262466   2.023   3.528   4.406  0.2635 -0.0147 -0.6276
13684TIP3    H162467   2.086   3.554   4.338  1.3257 -1.3070 -0.1874
13684TIP3    H262468   2.054   3.442   4.435 -1.2152 -0.2803  0.2395
13685TIP3   OH262469   3.001   4.409   0.363 -0.2690 -0.1506 -0.5556
13685TIP3    H162470   2.941   4.481   0.383  0.5665  0.6538 -0.8106
13685TIP3    H262471   3.046   4.392   0.445 -1.2443 -1.1635 -0.2124
13686TIP3   OH262472   3.689   6.723   0.097 -0.3179 -0.3623  0.0286
13686TIP3    H162473   3.662   6.796   0.152  2.9271  2.5304 -1.8273
13686TIP3    H262474   3.759   6.680   0.145  2.0028  1.7050 -1.3124
13687TIP3   OH262475   1.977   5.102   1.516  0.4194 -0.5726 -0.5597
13687TIP3    H162476   1.981   5.071   1.606  0.4186 -0.8035 -0.6395
13687TIP3    H262477   1.992   5.024   1.463 -0.5339 -0.6218 -0.7810
13688TIP3   OH262478   5.799   1.247   5.072 -0.0208  0.0131  0.1372
13688TIP3    H162479   5.750   1.181   5.122 -2.5273  1.2305 -0.5702
13688TIP3    H262480   5.751   1.329   5.087  1.2351  1.0943 -1.4343
13689TIP3   OH262481   3.381   0.383  13.123 -1.3370 -0.0313  0.1478
13689TIP3    H162482   3.320   0.456  13.110 -1.0768  0.2363  0.4098
13689TIP3    H262483   3.334   0.306  13.090 -2.0895  0.0608  0.9695
13690TIP3   OH262484   2.971   1.037  15.629 -0.2213  0.1377  0.2020
13690TIP3    H162485   3.005   0.959  15.586 -0.0949 -0.7655  1.8724
13690TIP3    H262486   2.928   1.086  15.558  0.7030 -0.8500 -1.0988
13691TIP3   OH262487   0.281   2.482  12.292 -0.5878 -0.8326 -0.7815
13691TIP3    H162488   0.249   2.461  12.380 -1.0937 -1.8349 -1.1960
13691TIP3    H262489   0.207   2.526  12.249 -0.0981  0.3356 -0.4850
13692TIP3   OH262490   1.425   1.356   2.150 -0.0728 -0.2198  0.1759
13692TIP3    H162491   1.331   1.365   2.132  0.2610  1.4338 -0.9165
13692TIP3    H262492   1.440   1.262   2.148 -1.0816 -0.4321 -3.2077
13693TIP3   OH262493   2.439   1.564  16.316  0.3405 -0.7081 -0.0076
13693TIP3    H162494   2.488   1.543  16.396  1.3388 -2.4309 -1.0101
13693TIP3    H262495   2.352   1.589  16.347  1.6243  1.9942  1.8116
13694TIP3   OH262496   3.096   0.886  13.652 -0.7745 -0.3835  0.2528
13694TIP3    H162497   3.182   0.866  13.688  0.8080 -0.7373 -3.3186
13694TIP3    H262498   3.114   0.945  13.579 -3.8722  1.6214  0.9362
13695TIP3   OH262499   0.777   4.881   0.814 -0.5276 -0.5591 -0.3570
13695TIP3    H162500   0.868   4.885   0.784 -0.2921 -0.7628  0.3171
13695TIP3    H262501   0.726   4.911   0.739  0.1026 -0.3513 -0.7098
13696TIP3   OH262502   5.281   4.485  13.688 -0.2216 -0.0793  0.1362
13696TIP3    H162503   5.294   4.580  13.690  0.8405 -0.1544 -1.3275
13696TIP3    H262504   5.214   4.472  13.620  1.1067 -0.4782 -1.1309
13697TIP3   OH262505   2.926   5.572  15.452  0.3031 -0.5270  0.2170
13697TIP3    H162506   2.986   5.497  15.451  0.8707 -0.4590  4.8704
13697TIP3    H262507   2.845   5.537  15.489 -0.2508  0.6842  0.1955
13698TIP3   OH262508   2.990   3.434   5.331  0.3782  0.5810  0.1840
13698TIP3    H162509   3.039   3.356   5.306  0.9659  1.2295 -0.7355
13698TIP3    H262510   3.039   3.470   5.404 -1.0213 -0.9955  2.0193
13699TIP3   OH262511   3.573   5.760  15.043  0.1872 -0.2142  0.6315
13699TIP3    H162512   3.533   5.751  15.129 -0.1011 -0.4629  0.4727
13699TIP3    H262513   3.607   5.673  15.023 -0.1848 -0.2790  0.2788
13700TIP3   OH262514   2.456   2.704   3.553 -0.1271 -0.4216 -0.4440
13700TIP3    H162515   2.371   2.729   3.589 -0.4985 -0.4337 -1.2903
13700TIP3    H262516   2.512   2.780   3.569  0.0708 -0.9023  1.2738
13701TIP3   OH262517   2.555   0.567  14.311 -0.1516 -0.0252  0.0218
13701TIP3    H162518   2.572   0.472  14.317 -0.0584  0.0249  0.7586
13701TIP3    H262519   2.464   0.576  14.340  0.4145  0.2796  1.8910
13702TIP3   OH262520   0.144   2.031   5.702  0.6030 -0.1609 -0.3005
13702TIP3    H162521   0.229   2.001   5.732  0.4130  0.7920  1.3781
13702TIP3    H262522   0.081   1.971   5.742  0.4229  0.1210 -0.1475
13703TIP3   OH262523   3.710   5.443  15.731 -0.3151 -0.5679  0.0596
13703TIP3    H162524   3.765   5.499  15.675 -2.0356  1.4374  0.2812
13703TIP3    H262525   3.620   5.465  15.706 -1.0717 -2.0475  1.3383
13704TIP3   OH262526   5.006   1.644   2.004  0.0779  0.3614  0.1224
13704TIP3    H162527   4.993   1.719   1.946 -2.5483 -0.9633 -1.1650
13704TIP3    H262528   5.010   1.568   1.946 -0.9599 -0.8450  1.5511
13705TIP3   OH262529   0.373   3.946   3.440  0.2136 -0.3907  0.5317
13705TIP3    H162530   0.404   3.985   3.358  1.4430  0.4738  1.3846
13705TIP3    H262531   0.292   3.994   3.459 -1.0980 -1.8069 -1.0438
13706TIP3   OH262532   0.457   5.306   2.744 -0.2160  0.5336  0.2058
13706TIP3    H162533   0.513   5.327   2.669  0.0743 -2.8614 -0.7031
13706TIP3    H262534   0.392   5.245   2.709 -0.1729 -1.0392  2.6458
13707TIP3   OH262535   5.888   5.642   2.575  0.1752  0.2661  0.1089
13707TIP3    H162536   5.857   5.653   2.486  0.3259 -0.8634 -0.0986
13707TIP3    H262537   5.843   5.710   2.625 -1.6997 -0.5411 -0.3966
13708TIP3   OH262538   0.762   1.388  14.454 -0.3802 -0.5015  0.4141
13708TIP3    H162539   0.694   1.344  14.505 -1.3186 -0.5830 -0.8708
13708TIP3    H262540   0.836   1.327  14.457 -0.9175 -1.1671  0.4728
13709TIP3   OH262541   0.490   2.035   4.665  0.0209 -0.9405 -0.1315
13709TIP3    H162542   0.439   1.955   4.681  0.4667 -1.6370 -1.9390
13709TIP3    H262543   0.482   2.085   4.746 -1.9498 -1.8979  0.3344
13710TIP3   OH262544   6.332   3.206   0.848 -0.3430  0.3459  0.1146
13710TIP3    H162545   6.279   3.135   0.882  1.5686 -0.6003  1.2385
13710TIP3    H262546   6.315   3.280   0.907 -0.0589 -0.0971  0.7576
13711TIP3   OH262547   2.363   2.021   3.994 -0.3894 -0.3743 -0.4458
13711TIP3    H162548   2.308   1.979   3.928 -1.8710  0.6899  0.0453
13711TIP3    H262549   2.358   2.114   3.972  0.9058 -0.2206 -0.1380
13712TIP3   OH262550   5.996   6.560  12.605 -0.1169 -0.2420  0.1665
13712TIP3    H162551   5.919   6.509  12.582  0.7483 -1.5716  0.1387
13712TIP3    H262552   6.050   6.558  12.526  0.6429 -0.6467  0.6908
13713TIP3   OH262553   3.868   2.485   0.752 -0.3498  0.0211  0.5323
13713TIP3    H162554   3.884   2.552   0.819  1.1978  0.0913  0.1120
13713TIP3    H262555   3.816   2.418   0.797 -0.5954  0.7613  1.3818
13714TIP3   OH262556   3.328   1.864  12.839  0.4932  0.3302 -0.3629
13714TIP3    H162557   3.424   1.869  12.838  0.5902 -0.9535  0.5386
13714TIP3    H262558   3.308   1.779  12.878 -1.0298  0.7785 -0.0809
13715TIP3   OH262559   2.646   4.144  14.129  0.2706 -0.2000 -0.3070
13715TIP3    H162560   2.637   4.239  14.119 -0.3462 -0.0272  1.5589
13715TIP3    H262561   2.664   4.112  14.040 -0.8469  1.5047 -1.1998
13716TIP3   OH262562   4.494   2.857   2.755 -0.1327 -0.0618 -0.3959
13716TIP3    H162563   4.419   2.887   2.807 -0.8420  1.4396 -2.1677
13716TIP3    H262564   4.566   2.914   2.782  0.9182 -2.4317  2.3719
13717TIP3   OH262565   6.739   4.091   5.023 -0.2247 -0.1635 -0.2093
13717TIP3    H162566   6.719   4.091   5.116 -0.1536 -1.0431 -0.1853
13717TIP3    H262567   6.725   4.000   4.995  1.1438 -0.2370 -0.7416
13718TIP3   OH262568   5.529   2.573  13.859  0.0290  0.5856 -0.5229
13718TIP3    H162569   5.625   2.572  13.868  0.0708  0.3275 -0.9707
13718TIP3    H262570   5.500   2.635  13.926  0.4227 -0.1890  0.3848
13719TIP3   OH262571   4.691   3.719  14.580 -0.5367  0.3306  0.0810
13719TIP3    H162572   4.637   3.785  14.621  0.3687  2.1444 -1.4809
13719TIP3    H262573   4.747   3.686  14.651 -0.1829  2.1118  0.6661
13720TIP3   OH262574   4.109   5.830   1.018  0.5845 -0.1598  0.6066
13720TIP3    H162575   4.125   5.775   1.094 -0.6452 -0.8526  0.3938
13720TIP3    H262576   4.050   5.898   1.049  1.4667  0.6010  0.6732
13721TIP3   OH262577   2.208   0.629  12.024  0.2941  0.7342  0.3545
13721TIP3    H162578   2.219   0.632  12.119 -2.1542 -0.9573  0.8111
13721TIP3    H262579   2.190   0.537  12.005 -2.8405  1.5200 -1.1862
13722TIP3   OH262580   0.710   5.380   3.542  0.4219 -0.2968  0.2936
13722TIP3    H162581   0.664   5.328   3.476  0.3240 -1.7294  1.4319
13722TIP3    H262582   0.659   5.461   3.549 -0.3200 -0.6842 -0.4463
13723TIP3   OH262583   1.240   5.707   4.200 -0.1108  0.1498 -0.0060
13723TIP3    H162584   1.266   5.631   4.253 -0.8958 -0.9897 -1.1889
13723TIP3    H262585   1.203   5.768   4.263  1.8957  0.2254  1.1941
13724TIP3   OH262586   0.741   3.902  14.911 -0.2892  0.2787  0.2201
13724TIP3    H162587   0.670   3.908  14.847 -0.2366  0.6506  0.1979
13724TIP3    H262588   0.817   3.940  14.867 -0.2695  0.5954  0.5262
13725TIP3   OH262589   3.276   4.605   4.855  0.0127 -0.0724 -0.6360
13725TIP3    H162590   3.341   4.652   4.802 -1.7950  4.0023  0.3451
13725TIP3    H262591   3.194   4.615   4.806 -0.7116 -1.0070  0.3435
13726TIP3   OH262592   1.169   6.588   5.707  0.1846  0.0096  0.0763
13726TIP3    H162593   1.263   6.605   5.698 -0.1336  1.4342 -0.9999
13726TIP3    H262594   1.136   6.586   5.618 -0.8642 -0.0943  0.4493
13727TIP3   OH262595   1.272   3.715   0.251 -0.0505 -0.6642 -0.6095
13727TIP3    H162596   1.349   3.657   0.245 -0.7991 -1.7212 -0.2310
13727TIP3    H262597   1.210   3.667   0.306 -0.0200  1.2758  1.2645
13728TIP3   OH262598   4.698   5.882   0.208 -0.0577 -0.7281  0.2705
13728TIP3    H162599   4.616   5.930   0.198  0.6127  0.4419  0.2051
13728TIP3    H262600   4.721   5.892   0.301  0.9958  0.6422 -0.1093
13729TIP3   OH262601   2.492   1.599   2.850 -0.4483  0.0439 -0.0051
13729TIP3    H162602   2.585   1.609   2.832 -0.4036 -1.4528 -0.7548
13729TIP3    H262603   2.489   1.563   2.939 -0.3107  0.0924  0.0201
13730TIP3   OH262604   2.667   1.077  14.185  0.0411  0.2594 -0.5848
13730TIP3    H162605   2.588   1.088  14.239  0.1999  0.3544 -0.3720
13730TIP3    H262606   2.665   0.986  14.158  0.0558  0.1648 -0.2677
13731TIP3   OH262607   1.306   2.668  11.904 -0.1105  0.0397  0.3676
13731TIP3    H162608   1.281   2.734  11.839  0.4093  1.9597  2.0168
13731TIP3    H262609   1.377   2.619  11.863  0.1899  1.1941 -0.5325
13732TIP3   OH262610   3.841   3.433  13.461  0.7011  0.0417 -0.4789
13732TIP3    H162611   3.755   3.439  13.419 -0.0671  0.4140  1.0740
13732TIP3    H262612   3.902   3.462  13.394 -0.5065  1.0001 -1.2159
13733TIP3   OH262613   2.921   5.349   2.716  0.0269 -0.0993 -0.3977
13733TIP3    H162614   3.007   5.344   2.757 -0.5685 -1.1304  0.7627
13733TIP3    H262615   2.937   5.330   2.624  1.1251  0.3716 -0.3155
13734TIP3   OH262616   3.862   5.018   0.365 -0.3586  0.2444  0.9448
13734TIP3    H162617   3.947   5.057   0.345 -1.0285  0.8446 -1.0373
13734TIP3    H262618   3.831   4.984   0.281 -3.6827  3.3915  0.6272
13735TIP3   OH262619   0.643   4.920  15.641  0.0910 -0.2817 -0.5724
13735TIP3    H162620   0.660   4.844  15.696  0.7069 -0.2303 -0.6886
13735TIP3    H262621   0.702   4.910  15.567 -1.1293 -0.6497 -1.5247
13736TIP3   OH262622   5.809   5.357   3.241 -0.3963 -0.3613  0.0972
13736TIP3    H162623   5.735   5.416   3.257  0.9989  1.5056 -0.0215
13736TIP3    H262624   5.792   5.321   3.154 -1.6020 -0.6775  0.4372
13737TIP3   OH262625   4.129   0.072   0.126 -1.3339  0.2387  0.1044
13737TIP3    H162626   4.131   0.091   0.032  2.6830 -0.8837 -0.2358
13737TIP3    H262627   4.159   0.153   0.167 -0.2153 -0.1521  0.0985
13738TIP3   OH262628   0.281   5.129   1.599 -0.2697  0.1645  0.2871
13738TIP3    H162629   0.337   5.169   1.532  2.0793 -1.0957  1.3645
13738TIP3    H262630   0.284   5.192   1.672 -0.3988  0.1858  0.2731
13739TIP3   OH262631   3.216   2.194   6.428 -0.4413 -0.5049 -0.1164
13739TIP3    H162632   3.125   2.175   6.450  0.0049 -2.2701  0.3286
13739TIP3    H262633   3.267   2.162   6.503  0.6720 -1.1158 -1.1018
13740TIP3   OH262634   0.387   0.582   6.334 -0.6617 -0.1661  1.3166
13740TIP3    H162635   0.311   0.610   6.386  0.0247  2.0083  1.2125
13740TIP3    H262636   0.408   0.657   6.280  1.0762 -1.0368  0.7316
13741TIP3   OH262637   2.129   5.925   2.276 -0.0481  0.0372  0.3476
13741TIP3    H162638   2.138   5.959   2.187 -0.8436 -1.2642 -0.2500
13741TIP3    H262639   2.039   5.945   2.300 -0.4986 -1.4798  0.0283
13742TIP3   OH262640   0.221   5.626   4.104  0.5247  0.3884 -0.3073
13742TIP3    H162641   0.149   5.654   4.161  1.1896  0.7617  0.3625
13742TIP3    H262642   0.207   5.674   4.022  0.4643  1.0615  0.0985
13743TIP3   OH262643   3.801   2.855  14.449  0.5797  0.0121 -0.3250
13743TIP3    H162644   3.779   2.887  14.536  0.5255 -0.2858 -0.2259
13743TIP3    H262645   3.893   2.828  14.455  0.4845 -0.3107 -0.2659
13744TIP3   OH262646   6.535   5.473  16.710  0.3327 -0.1489  0.2762
13744TIP3    H162647   6.532   5.387  16.752 -1.1517 -0.1644  0.1940
13744TIP3    H262648   6.443   5.496  16.696  0.7421  0.4002 -1.8854
13745TIP3   OH262649   5.724   4.250  14.191 -0.1871  0.0272 -0.4384
13745TIP3    H162650   5.661   4.185  14.159  0.8107 -1.3767  0.3594
13745TIP3    H262651   5.799   4.241  14.132  0.8748 -1.2044  1.0322
13746TIP3   OH262652   2.152   2.418   4.207 -0.0233 -0.1423  0.5816
13746TIP3    H162653   2.245   2.410   4.231  0.4059  0.5860 -0.7606
13746TIP3    H262654   2.110   2.448   4.288  1.1654  0.9746  0.8234
13747TIP3   OH262655   0.350   4.077   0.748 -0.1557 -0.1266  0.1456
13747TIP3    H162656   0.283   4.034   0.695 -0.8718  1.8471 -0.6240
13747TIP3    H262657   0.422   4.092   0.687 -0.4486  0.9405  0.0453
13748TIP3   OH262658   5.821   1.443   1.384 -0.4386 -0.1590 -0.4410
13748TIP3    H162659   5.780   1.493   1.314 -0.5051  0.3606 -0.0423
13748TIP3    H262660   5.895   1.497   1.411 -0.0241 -0.6636 -0.5503
13749TIP3   OH262661   3.987   2.284  16.071 -0.1281 -0.0355  0.1999
13749TIP3    H162662   3.968   2.241  16.154  1.1166  0.6753  0.8715
13749TIP3    H262663   3.932   2.363  16.072  0.7557  0.5884  0.8985
13750TIP3   OH262664   1.219   6.164  13.956 -0.0033  0.2811  0.0727
13750TIP3    H162665   1.217   6.104  14.030  1.0969  0.3484  0.1660
13750TIP3    H262666   1.168   6.120  13.887 -2.6554  1.0118  1.4209
13751TIP3   OH262667   3.627   4.092  13.022 -0.2900  0.2087 -0.4575
13751TIP3    H162668   3.701   4.045  13.061  0.1188  0.5390 -0.8251
13751TIP3    H262669   3.549   4.048  13.057  0.0698 -1.5132 -1.7034
13752TIP3   OH262670   4.564   5.811  11.396 -0.0137  0.0244 -0.6698
13752TIP3    H162671   4.627   5.867  11.350  0.0211  0.4716 -0.0796
13752TIP3    H262672   4.490   5.804  11.335  0.5755 -0.4907 -1.3617
13753TIP3   OH262673   2.635   2.442   0.976 -0.8022  0.7968 -0.1900
13753TIP3    H162674   2.599   2.385   1.044 -0.1157  0.5281 -0.0448
13753TIP3    H262675   2.560   2.492   0.944 -1.7583 -1.2768 -1.3950
13754TIP3   OH262676   2.139   0.838   1.414 -0.6580  0.1290 -0.2768
13754TIP3    H162677   2.100   0.754   1.438  0.8212 -1.1025 -1.8840
13754TIP3    H262678   2.094   0.903   1.469 -2.1378 -1.6455  0.7062
13755TIP3   OH262679   6.119   0.480   0.580  0.0081 -0.4328 -0.7879
13755TIP3    H162680   6.116   0.384   0.578  0.1221 -0.4533 -0.2112
13755TIP3    H262681   6.101   0.502   0.671 -2.0000  0.1798 -1.2954
13756TIP3   OH262682   2.952   5.802   2.528 -0.3071  0.4613 -0.5426
13756TIP3    H162683   3.018   5.770   2.466  2.2414  1.6552  1.3900
13756TIP3    H262684   2.869   5.797   2.479  0.6761 -3.5623 -2.2657
13757TIP3   OH262685   1.589   1.093  16.391  0.0794  0.4547  0.5262
13757TIP3    H162686   1.679   1.113  16.365 -0.0123 -0.6921 -0.7730
13757TIP3    H262687   1.545   1.178  16.395  0.9158  0.9198  0.0037
13758TIP3   OH262688   6.733   4.810  11.505  0.0007 -0.0433 -0.1553
13758TIP3    H162689   6.662   4.769  11.554  0.5900 -2.7486 -1.3342
13758TIP3    H262690   6.700   4.896  11.481 -1.8518 -0.2277  1.4978
13759TIP3   OH262691   5.318   3.703  16.046  0.0015  0.3171  0.4950
13759TIP3    H162692   5.256   3.761  16.089 -0.8442 -1.2618  1.4905
13759TIP3    H262693   5.327   3.628  16.105  2.4061  0.1900  0.1036
13760TIP3   OH262694   2.535   3.140   4.240 -0.4802 -0.4662 -0.3161
13760TIP3    H162695   2.486   3.123   4.160 -0.6318 -1.1058 -0.0896
13760TIP3    H262696   2.493   3.086   4.307  0.5245 -1.0373 -0.1238
13761TIP3   OH262697   0.438   1.202   5.460 -0.3627 -0.0003  0.1210
13761TIP3    H162698   0.396   1.180   5.544 -1.2497 -0.7112 -0.4882
13761TIP3    H262699   0.408   1.134   5.400  1.6496 -0.5157 -0.3661
13762TIP3   OH262700   2.638   2.467   4.646 -0.0384 -0.0414  0.2069
13762TIP3    H162701   2.604   2.555   4.660 -2.2391 -0.8728  0.3859
13762TIP3    H262702   2.619   2.448   4.554  0.9300 -0.1450  0.0162
13763TIP3   OH262703   5.244   5.727   5.708  0.1360  0.2779 -0.4229
13763TIP3    H162704   5.211   5.782   5.779  1.3722  1.1603 -0.5040
13763TIP3    H262705   5.279   5.650   5.752 -0.0120  0.3589 -0.1605
13764TIP3   OH262706   4.776   1.732   5.192 -0.0129  0.0713  0.3275
13764TIP3    H162707   4.768   1.822   5.223 -2.4050 -0.0367  0.2092
13764TIP3    H262708   4.778   1.679   5.272  0.1071  0.1372  0.3696
13765TIP3   OH262709   4.650   2.459   4.455  0.8628  0.0798  0.3882
13765TIP3    H162710   4.580   2.407   4.415  1.6611 -2.3302  1.9455
13765TIP3    H262711   4.667   2.528   4.391 -1.3007 -0.6357 -1.0967
13766TIP3   OH262712   3.043   0.467  16.055 -0.1037 -0.8347 -0.0975
13766TIP3    H162713   3.132   0.447  16.029  0.0615 -3.1389  1.9067
13766TIP3    H262714   2.989   0.405  16.007 -0.7902  1.0247 -1.8646
13767TIP3   OH262715   6.314   1.691  16.987  0.2289  0.2875 -0.1504
13767TIP3    H162716   6.304   1.598  17.006 -1.1230  0.3029 -0.6926
13767TIP3    H262717   6.348   1.694  16.898  0.3119  0.3127 -0.1178
13768TIP3   OH262718   1.652   6.230  11.373 -0.0562 -0.4875 -0.6565
13768TIP3    H162719   1.653   6.299  11.441  0.5112 -0.5078 -0.6446
13768TIP3    H262720   1.728   6.249  11.319 -0.2190 -0.7815 -0.9861
13769TIP3   OH262721   0.861   2.157  15.652 -0.2446  0.0289 -0.3313
13769TIP3    H162722   0.852   2.137  15.559  1.6729 -1.8443 -0.1718
13769TIP3    H262723   0.892   2.076  15.692 -2.4764  0.3003  2.2507
13770TIP3   OH262724   1.818   2.553  13.599 -0.4934  0.0791 -0.4691
13770TIP3    H162725   1.771   2.475  13.568  0.1627  0.0302 -1.3653
13770TIP3    H262726   1.797   2.621  13.535  0.6921  0.0404 -0.9240
13771TIP3   OH262727   5.291   4.526   3.170  0.2884  0.0584  0.2198
13771TIP3    H162728   5.250   4.603   3.131  0.7310 -0.1305 -0.6466
13771TIP3    H262729   5.381   4.528   3.136  0.7683  0.0293  1.4437
13772TIP3   OH262730   2.689   5.107  12.206 -0.1283 -0.5834  0.4169
13772TIP3    H162731   2.645   5.023  12.199 -2.2533  0.6094 -3.3964
13772TIP3    H262732   2.774   5.094  12.163 -0.7119 -0.6660 -0.7348
13773TIP3   OH262733   4.558   5.981   4.547 -0.1877  0.3471  0.2385
13773TIP3    H162734   4.647   5.945   4.548 -0.4560 -0.3490  0.6905
13773TIP3    H262735   4.552   6.030   4.465  0.3861 -0.1858 -0.1327
13774TIP3   OH262736   1.064   1.952  14.891  0.2762  0.7129  0.2539
13774TIP3    H162737   1.069   1.896  14.968 -0.0091  0.7324  0.2900
13774TIP3    H262738   1.065   2.041  14.926  0.6129  0.7269  0.2053
13775TIP3   OH262739   2.874   0.311   0.132 -0.0942 -0.1557 -0.2413
13775TIP3    H162740   2.946   0.357   0.176 -0.2398 -1.1549  1.0960
13775TIP3    H262741   2.832   0.260   0.201 -0.5712 -1.5024 -1.4799
13776TIP3   OH262742   4.195   4.400  10.443  0.2891 -0.2515 -0.3224
13776TIP3    H162743   4.201   4.494  10.424 -1.6617  0.1938  0.9827
13776TIP3    H262744   4.267   4.361  10.393  0.8038  1.8571 -1.3482
13777TIP3   OH262745   0.729   1.769  15.597  0.4892 -0.1491 -0.0106
13777TIP3    H162746   0.692   1.693  15.643  0.3833 -0.2578 -0.2783
13777TIP3    H262747   0.745   1.738  15.508 -0.5924  0.4719 -0.4321
13778TIP3   OH262748   5.943   2.916   1.195 -0.5614  0.0775  0.0309
13778TIP3    H162749   5.962   3.001   1.234 -0.5055  0.8463 -1.5802
13778TIP3    H262750   6.029   2.878   1.177 -0.5796  0.2033 -0.3242
13779TIP3   OH262751   0.424   1.380   5.239 -0.3533 -0.4864 -0.6527
13779TIP3    H162752   0.505   1.374   5.189 -0.6974 -3.2130 -1.0612
13779TIP3    H262753   0.447   1.350   5.327 -1.1228 -2.6683 -1.1380
13780TIP3   OH262754   1.026   6.496  12.669 -0.0309 -0.1091 -0.2446
13780TIP3    H162755   1.007   6.585  12.700  0.7265  0.0479 -0.2217
13780TIP3    H262756   0.959   6.480  12.602  0.7901  1.0971 -1.4027
13781TIP3   OH262757   0.516   0.147  11.755  0.4757 -0.1551  0.0383
13781TIP3    H162758   0.583   0.116  11.816  0.2677 -0.5188  0.0834
13781TIP3    H262759   0.484   0.228  11.793 -0.8005 -1.1924  1.2755
13782TIP3   OH262760   3.275   0.625  13.050  0.1674 -0.4615  0.5700
13782TIP3    H162761   3.259   0.718  13.037 -0.2630 -0.5550  0.4361
13782TIP3    H262762   3.189   0.584  13.043 -0.0840 -0.5698  3.2964
13783TIP3   OH262763   5.267   4.497  15.047  0.1899 -0.4717 -0.1832
13783TIP3    H162764   5.330   4.440  15.003 -0.9033 -2.7065  1.0169
13783TIP3    H262765   5.183   4.451  15.039 -0.7298  0.9128  0.9666
13784TIP3   OH262766   3.649   5.073  11.575 -0.4714  0.4725  0.3964
13784TIP3    H162767   3.649   5.019  11.654  0.8449  0.7090  0.5867
13784TIP3    H262768   3.725   5.043  11.525 -1.0364  0.6254 -0.5860
13785TIP3   OH262769   2.800   2.510   0.775 -0.3362  0.1651  0.1206
13785TIP3    H162770   2.751   2.491   0.855 -0.1851 -1.1385 -0.0807
13785TIP3    H262771   2.891   2.497   0.799 -0.2724  0.0284 -0.1904
13786TIP3   OH262772   0.546   1.179   0.256 -0.7077  0.3356 -0.5099
13786TIP3    H162773   0.471   1.125   0.281 -1.0065 -0.0260 -2.0903
13786TIP3    H262774   0.599   1.185   0.336 -0.6680 -2.2593 -0.2717
13787TIP3   OH262775   2.648   0.217   4.800  0.0445 -0.2759 -0.0673
13787TIP3    H162776   2.705   0.168   4.860 -0.2116  0.1828  0.5613
13787TIP3    H262777   2.570   0.162   4.792  0.4773 -0.8081 -0.7677
13788TIP3   OH262778   0.169   3.966   0.591  0.0742  0.6867  0.4408
13788TIP3    H162779   0.196   3.891   0.539 -1.6758  1.6125 -1.9967
13788TIP3    H262780   0.090   3.937   0.636  0.3342  0.5912  0.8489
13789TIP3   OH262781   4.607   3.489  15.505  0.0377  0.1944  0.3264
13789TIP3    H162782   4.520   3.524  15.525  0.6771  1.5501  0.8519
13789TIP3    H262783   4.596   3.394  15.507 -1.0696  0.3287  2.0173
13790TIP3   OH262784   5.380   1.236  11.304  0.6895 -0.2936 -0.1137
13790TIP3    H162785   5.339   1.310  11.261  0.0661 -0.9266 -0.6186
13790TIP3    H262786   5.391   1.264  11.395 -1.7239 -0.4249  0.2806
13791TIP3   OH262787   2.662   3.092  12.925  0.3224 -0.0259 -0.4185
13791TIP3    H162788   2.664   3.013  12.871 -1.0470  0.3643 -1.0840
13791TIP3    H262789   2.586   3.080  12.982  0.7558  0.3246  0.2333
13792TIP3   OH262790   2.844   3.704  12.530 -0.2522  0.1709 -0.0059
13792TIP3    H162791   2.929   3.702  12.487  0.1225 -1.4335  0.7539
13792TIP3    H262792   2.844   3.629  12.588 -1.9694  0.4820  0.4657
13793TIP3   OH262793   4.617   0.816   5.228 -0.1143 -0.1826  1.1121
13793TIP3    H162794   4.614   0.724   5.202 -1.4433 -0.1260  1.0072
13793TIP3    H262795   4.704   0.846   5.202  0.5421 -1.5509  1.6468
13794TIP3   OH262796   2.829   2.152   5.381  0.6815 -0.3132 -0.1459
13794TIP3    H162797   2.869   2.145   5.294  0.4508 -0.5846 -0.2309
13794TIP3    H262798   2.857   2.238   5.413 -0.1367  0.2663 -0.9522
13795TIP3   OH262799   6.579   6.273   0.841  0.5118 -0.4666  0.2160
13795TIP3    H162800   6.596   6.367   0.848 -1.3978 -0.1885  3.7910
13795TIP3    H262801   6.655   6.232   0.883  0.6990 -0.4296 -0.0859
13796TIP3   OH262802   5.854   1.059  10.297 -0.0627 -1.0478 -0.0328
13796TIP3    H162803   5.887   0.971  10.279  0.7207 -0.6426 -0.6553
13796TIP3    H262804   5.925   1.117  10.270 -0.8607 -0.1922 -0.3412
13797TIP3   OH262805   2.419   1.234   6.637  0.2714 -0.2317  0.2979
13797TIP3    H162806   2.339   1.184   6.651  0.0146  0.5249  1.7821
13797TIP3    H262807   2.488   1.184   6.681  0.6051 -0.7703 -0.7901
13798TIP3   OH262808   6.227   2.173  13.488 -0.4306  0.2105 -0.0896
13798TIP3    H162809   6.304   2.203  13.537 -0.1117 -0.0772 -0.4131
13798TIP3    H262810   6.164   2.245  13.497  1.0214  1.9478 -2.5508
13799TIP3   OH262811   6.747   3.768   5.310 -0.0865  0.6981 -0.0157
13799TIP3    H162812   6.677   3.775   5.245  1.1882  0.7756 -1.4234
13799TIP3    H262813   6.766   3.674   5.315  0.4867  0.7842 -0.5021
13800TIP3   OH262814   5.444   2.208   4.907 -0.2500  0.2818  0.4482
13800TIP3    H162815   5.392   2.268   4.962 -0.0692  0.4847  0.4002
13800TIP3    H262816   5.530   2.249   4.902 -0.1835  0.1198  0.2472
13801TIP3   OH262817   5.224   1.091   4.216 -0.3433 -0.3706  0.6300
13801TIP3    H162818   5.319   1.104   4.218 -0.3978  0.2762 -0.3474
13801TIP3    H262819   5.211   1.021   4.152 -0.7018  1.7396 -1.7438
13802TIP3   OH262820   3.270   1.336   5.486 -0.3548 -0.0727  0.0540
13802TIP3    H162821   3.261   1.431   5.494  2.0926  0.2913 -0.5447
13802TIP3    H262822   3.335   1.313   5.552  1.6239 -0.7383 -1.9659
13803TIP3   OH262823   1.302   0.704  12.311 -0.1792 -0.4231  0.0632
13803TIP3    H162824   1.290   0.781  12.255 -1.3029  0.2787  1.2178
13803TIP3    H262825   1.301   0.630  12.251 -0.0626  0.3906 -0.9755
13804TIP3   OH262826   2.233   4.154   4.709  0.1506  0.0917  0.3484
13804TIP3    H162827   2.143   4.180   4.692  0.3475  0.9627  0.5734
13804TIP3    H262828   2.236   4.136   4.803  0.1773 -0.0914  0.3136
13805TIP3   OH262829   1.979   4.047   6.519  0.2685  0.4811  0.1221
13805TIP3    H162830   1.949   4.091   6.440  2.4751 -0.7501 -1.5162
13805TIP3    H262831   2.071   4.073   6.528  0.3301 -0.1668  1.7472
13806TIP3   OH262832   0.367   3.368  13.622 -0.4311 -0.1643 -0.0328
13806TIP3    H162833   0.390   3.371  13.714  1.0814 -0.8493 -0.3605
13806TIP3    H262834   0.434   3.313  13.582  0.3954  2.0758 -1.9595
13807TIP3   OH262835   0.264   6.584   4.282 -0.1710 -0.2629  0.3678
13807TIP3    H162836   0.280   6.555   4.372  0.1442 -0.0523  0.3795
13807TIP3    H262837   0.169   6.594   4.277 -0.0707  1.7814  1.3199
13808TIP3   OH262838   2.549   4.225  15.608 -0.7611  0.1210 -0.3919
13808TIP3    H162839   2.482   4.263  15.551 -0.9470 -0.1635 -0.3634
13808TIP3    H262840   2.519   4.136  15.623 -0.3855  0.0015 -0.3595
13809TIP3   OH262841   4.622   4.733  13.795  0.3881 -0.0364 -0.2258
13809TIP3    H162842   4.665   4.716  13.712  2.1840  0.0897  0.6310
13809TIP3    H262843   4.674   4.685  13.860 -0.4793  0.5076  0.9213
13810TIP3   OH262844   0.744   2.456   5.997  0.0194  0.0922  0.2642
13810TIP3    H162845   0.672   2.492   5.945 -0.0201  0.3144  0.4714
13810TIP3    H262846   0.706   2.439   6.083 -0.5404 -2.5023 -0.4355
13811TIP3   OH262847   5.129   2.612  13.663 -0.3249  0.4542  0.2342
13811TIP3    H162848   5.105   2.642  13.751  2.1314 -0.4723  1.3024
13811TIP3    H262849   5.120   2.517  13.666  1.1071  0.2964 -0.0529
13812TIP3   OH262850   4.503   3.096   3.409  0.2734  0.3389 -0.3203
13812TIP3    H162851   4.460   3.170   3.367  0.0560  1.1370  1.2296
13812TIP3    H262852   4.507   3.028   3.341 -0.4497  1.4038 -1.4591
13813TIP3   OH262853   3.131   0.077  12.419 -0.2218 -0.3430  0.2253
13813TIP3    H162854   3.066   0.048  12.355 -0.3721 -1.5052  0.8765
13813TIP3    H262855   3.079   0.113  12.491 -0.0849  0.2015  0.0535
13814TIP3   OH262856   5.737   4.299  11.647  0.2578  0.4857  0.0292
13814TIP3    H162857   5.671   4.256  11.702  2.7008  0.6331  3.4146
13814TIP3    H262858   5.716   4.270  11.558 -3.9610  0.1238  0.8946
13815TIP3   OH262859   5.821   2.101   4.936  0.4736 -0.1529  0.8489
13815TIP3    H162860   5.805   2.193   4.959 -1.8702  0.2364 -1.8357
13815TIP3    H262861   5.773   2.051   5.002 -1.5784  0.7306  0.0996
13816TIP3   OH262862   1.490   3.446  15.665 -0.1670 -0.6694 -0.7327
13816TIP3    H162863   1.428   3.486  15.604 -0.4132 -2.3817 -1.6677
13816TIP3    H262864   1.438   3.425  15.743  0.2039  1.7663  0.2798
13817TIP3   OH262865   2.607   5.322  14.467  0.2599  0.3922 -0.6131
13817TIP3    H162866   2.665   5.246  14.460 -2.2437 -1.9516  1.6175
13817TIP3    H262867   2.589   5.330  14.560 -1.4099  2.2541 -1.0199
13818TIP3   OH262868   1.225   6.492   1.896  0.3459 -0.0677 -0.7901
13818TIP3    H162869   1.320   6.498   1.885  0.2966  0.1893 -1.0859
13818TIP3    H262870   1.202   6.408   1.857  0.5531 -0.5045  0.0041
13819TIP3   OH262871   3.616   6.230   5.577 -0.1600  0.3684  0.1092
13819TIP3    H162872   3.563   6.303   5.610  2.7780  1.9028  1.8579
13819TIP3    H262873   3.707   6.260   5.585  1.1485 -2.8946 -0.6553
13820TIP3   OH262874   3.150   4.065  11.954 -0.0578 -0.0521  1.0120
13820TIP3    H162875   3.179   4.153  11.975 -2.5336  0.6829  1.6975
13820TIP3    H262876   3.060   4.076  11.923 -0.1673 -2.2573  0.3778
13821TIP3   OH262877   2.689   2.650  12.282  0.1140  0.4922  0.1864
13821TIP3    H162878   2.656   2.597  12.354  0.2024  0.6148  0.3178
13821TIP3    H262879   2.752   2.594  12.237 -0.3955  0.1996 -0.1652
13822TIP3   OH262880   3.938   1.794   3.921 -0.4428 -0.2646 -0.5424
13822TIP3    H162881   4.008   1.860   3.914  0.2394 -1.0091 -0.9600
13822TIP3    H262882   3.858   1.842   3.899 -0.1436  0.7175  0.3963
13823TIP3   OH262883   0.570   4.637   4.197 -0.8156 -0.2195  0.8866
13823TIP3    H162884   0.573   4.579   4.121  2.6926  0.5442  0.2650
13823TIP3    H262885   0.582   4.579   4.273  0.3997 -0.5707  0.4468
13824TIP3   OH262886   1.856   4.753   1.830 -0.4911 -0.1455  0.0001
13824TIP3    H162887   1.889   4.725   1.915  0.5260  0.4690 -0.1715
13824TIP3    H262888   1.880   4.845   1.824 -0.1221 -0.3006 -1.1503
13825TIP3   OH262889   2.549   3.967  14.305 -0.1822 -0.3338 -0.3146
13825TIP3    H162890   2.477   3.955  14.243  0.1572  0.2481 -0.8410
13825TIP3    H262891   2.613   4.020  14.256  0.2473 -0.1731  0.4140
13826TIP3   OH262892   6.244   2.283   4.348 -0.1070  0.1044 -0.4780
13826TIP3    H162893   6.315   2.314   4.292 -0.3357 -1.1566 -1.5179
13826TIP3    H262894   6.179   2.353   4.344  0.6392  0.8361 -0.3010
13827TIP3   OH262895   3.814   5.342   4.749 -0.8766  0.3062  0.7329
13827TIP3    H162896   3.794   5.352   4.656 -0.9182 -0.9431  0.5888
13827TIP3    H262897   3.865   5.419   4.771 -1.8400  1.2004 -0.0414
13828TIP3   OH262898   1.297   6.138  16.093 -0.7423  0.4247  0.1293
13828TIP3    H162899   1.340   6.079  16.155 -0.4471 -0.3444 -0.7819
13828TIP3    H262900   1.346   6.127  16.012 -1.7159  0.6916 -0.5071
13829TIP3   OH262901   0.665   3.209  10.563  0.5354 -0.8245 -0.8833
13829TIP3    H162902   0.718   3.144  10.611 -0.6873 -1.4618 -0.3519
13829TIP3    H262903   0.729   3.273  10.532  1.5182 -1.0164  0.6018
13830TIP3   OH262904   4.612   1.190   3.155  0.4366 -1.2015  0.1242
13830TIP3    H162905   4.689   1.243   3.176  1.0546 -2.0621  0.0869
13830TIP3    H262906   4.550   1.252   3.116  0.3300 -0.1076  1.9224
13831TIP3   OH262907   6.418   3.211  15.297  0.7714  0.3837  0.2090
13831TIP3    H162908   6.501   3.164  15.304  0.3756 -0.2347  0.7474
13831TIP3    H262909   6.355   3.146  15.268  0.4880  0.8805 -0.3160
13832TIP3   OH262910   3.723   0.728   3.697 -0.2467 -0.1902 -0.0327
13832TIP3    H162911   3.772   0.724   3.780 -0.1998  2.4647  0.1497
13832TIP3    H262912   3.635   0.699   3.720  0.1797 -1.0971  0.5412
13833TIP3   OH262913   0.181   2.840   0.166 -0.1935  0.2706  0.5450
13833TIP3    H162914   0.253   2.800   0.214 -0.0779 -0.4727 -0.2101
13833TIP3    H262915   0.108   2.842   0.228 -0.6834 -2.6050  0.1953
13834TIP3   OH262916   1.249   2.718   4.000 -0.0522 -0.0205 -0.0150
13834TIP3    H162917   1.333   2.750   3.967 -1.0009  3.3533  0.3967
13834TIP3    H262918   1.197   2.798   4.013 -2.4568 -1.7619  2.1288
13835TIP3   OH262919   1.945   1.953  13.471  0.1969  0.1675 -0.0864
13835TIP3    H162920   1.893   1.998  13.404  1.0604 -0.7114 -1.4072
13835TIP3    H262921   1.965   1.868  13.432  1.3243 -0.0995  1.0078
13836TIP3   OH262922   4.968   0.475  12.297  0.5198 -0.0713 -0.3245
13836TIP3    H162923   4.909   0.439  12.230 -0.9277  0.4894  0.5941
13836TIP3    H262924   4.917   0.545  12.338  2.2874  1.2429 -0.2777
13837TIP3   OH262925   6.775   1.342  12.940  0.3626 -0.6362 -0.5515
13837TIP3    H162926   6.855   1.301  12.973  0.2911 -0.2352  0.1407
13837TIP3    H262927   6.787   1.436  12.957  0.2890 -0.4169 -1.6139
13838TIP3   OH262928   4.948   2.010   2.153 -0.3630  0.1704  0.2169
13838TIP3    H162929   4.865   1.966   2.174  0.1590 -1.4167 -0.7936
13838TIP3    H262930   4.923   2.081   2.095 -1.1680  0.7465  1.2339
13839TIP3   OH262931   4.003   4.830   0.535 -0.2158  0.4105 -0.1135
13839TIP3    H162932   4.035   4.908   0.490  0.2969  1.4555  1.9177
13839TIP3    H262933   3.930   4.800   0.482  0.3582  1.5333 -1.6254
13840TIP3   OH262934   2.116   2.355   3.385  0.4042 -0.1270  1.0893
13840TIP3    H162935   2.065   2.427   3.421  0.3761 -0.7409  2.3420
13840TIP3    H262936   2.201   2.361   3.429  0.8993 -0.0198  0.1477
13841TIP3   OH262937   5.965   0.026   4.578  0.3274 -0.0885  0.1877
13841TIP3    H162938   6.031  -0.044   4.582  1.3727  0.8015 -0.9046
13841TIP3    H262939   5.899  -0.001   4.642  0.9291 -1.8352  0.1492
13842TIP3   OH262940   1.194   2.917  13.435  0.5421 -0.4456 -0.1356
13842TIP3    H162941   1.261   2.939  13.371  1.3657 -2.9239 -0.2297
13842TIP3    H262942   1.166   2.828  13.411 -1.7968 -0.0303  0.7440
13843TIP3   OH262943   4.984   0.363   5.694 -0.1082  0.5739  0.5993
13843TIP3    H162944   5.012   0.397   5.609 -0.4893 -0.8339 -0.1005
13843TIP3    H262945   5.066   0.341   5.739  0.0355 -0.9224 -0.3547
13844TIP3   OH262946   3.223   1.401  14.438 -0.3336 -0.4003 -0.4479
13844TIP3    H162947   3.181   1.320  14.411 -1.3088  0.3506 -1.2783
13844TIP3    H262948   3.168   1.435  14.509 -0.6421  0.1528 -0.9461
13845TIP3   OH262949   6.189   4.981  12.508  0.2362 -0.2681  0.0819
13845TIP3    H162950   6.208   4.912  12.572  0.1745 -0.8488 -0.5060
13845TIP3    H262951   6.121   4.943  12.452 -0.3113  0.5536  0.1797
13846TIP3   OH262952   0.485   6.317   0.838  0.2265  0.0442  0.2848
13846TIP3    H162953   0.536   6.290   0.915  1.1705  1.0029  0.0250
13846TIP3    H262954   0.469   6.411   0.852  2.6154  0.8589 -1.8404
13847TIP3   OH262955   6.418   4.165   0.045 -0.0993  0.2861 -0.5795
13847TIP3    H162956   6.512   4.177   0.034  0.8522 -1.9653  3.3064
13847TIP3    H262957   6.399   4.079   0.007 -0.0172 -0.3902  0.8612
13848TIP3   OH262958   0.462   4.789  14.406  0.8316 -0.1101 -0.3343
13848TIP3    H162959   0.445   4.773  14.314  0.2087  0.9929 -0.4254
13848TIP3    H262960   0.493   4.880  14.410 -1.5479  0.7304  0.7933
13849TIP3   OH262961   5.696   3.063  17.059  0.4530 -0.2300  0.9802
13849TIP3    H162962   5.705   3.003  16.985  1.1671 -0.4048  1.2062
13849TIP3    H262963   5.731   3.015  17.134 -0.7292 -0.2456  1.5471
13850TIP3   OH262964   0.478   6.746  15.444  0.1924 -0.2019 -0.7136
13850TIP3    H162965   0.490   6.703  15.529 -0.7491  1.3635  0.2667
13850TIP3    H262966   0.395   6.712  15.412  0.3770 -0.5286 -0.8538
13851TIP3   OH262967   5.262   6.039   1.656 -0.7862 -0.0025  0.1161
13851TIP3    H162968   5.256   5.976   1.727 -0.0643 -1.7379 -1.2900
13851TIP3    H262969   5.198   6.009   1.591  1.1658 -0.7607 -1.5940
13852TIP3   OH262970   1.404   3.604  16.681  0.0168 -0.1628 -0.1251
13852TIP3    H162971   1.419   3.570  16.592 -0.2292 -0.7351  0.0508
13852TIP3    H262972   1.310   3.592  16.695 -0.0828  0.6295 -0.0709
13853TIP3   OH262973   5.896   5.930  16.451 -0.7062 -0.4571  0.2452
13853TIP3    H162974   5.925   6.017  16.425  1.1257 -0.8792  0.7247
13853TIP3    H262975   5.957   5.904  16.520 -0.5963 -2.4965 -0.5507
13854TIP3   OH262976   4.913   1.997  16.185 -0.6267 -0.0356 -0.3282
13854TIP3    H162977   4.829   2.036  16.166 -0.7824 -0.5560 -0.7127
13854TIP3    H262978   4.977   2.050  16.137 -0.7839  0.0518 -0.4370
13855TIP3   OH262979   2.130   2.687   3.958  0.1067 -0.3504  0.2815
13855TIP3    H162980   2.063   2.628   3.925  0.3345 -1.0423  1.0306
13855TIP3    H262981   2.177   2.716   3.879  1.1384 -2.5745  0.0037
13856TIP3   OH262982   4.173   0.704  14.587 -0.1058 -1.0490  0.3517
13856TIP3    H162983   4.138   0.657  14.663 -1.0868 -2.0359 -0.6647
13856TIP3    H262984   4.115   0.678  14.514  0.3305  0.4676 -0.5772
13857TIP3   OH262985   3.061   3.178  12.941  0.2432 -0.4787  0.0581
13857TIP3    H162986   3.046   3.244  13.008  0.1353 -1.0147  0.5620
13857TIP3    H262987   2.974   3.156  12.909  0.2645 -0.5166  0.0256
13858TIP3   OH262988   6.443   0.397   5.316 -0.0760 -0.5400  0.2582
13858TIP3    H162989   6.398   0.360   5.392 -1.0378  1.6481  0.8229
13858TIP3    H262990   6.456   0.489   5.338 -0.1749  0.1074 -2.1295
13859TIP3   OH262991   0.500   5.994  15.971  0.6510  0.2198 -0.1438
13859TIP3    H162992   0.437   5.961  16.035  0.6525  1.9523  0.8154
13859TIP3    H262993   0.475   5.952  15.889  0.0883 -1.3708  0.8000
13860TIP3   OH262994   2.091   3.111   5.799 -0.0688  0.1369 -0.0639
13860TIP3    H162995   2.127   3.095   5.712 -0.9727 -3.2487  0.0637
13860TIP3    H262996   2.166   3.105   5.858  0.4968  2.1439 -0.5071
13861TIP3   OH262997   0.115   6.550  13.720 -0.2427 -0.0098 -0.2116
13861TIP3    H162998   0.151   6.509  13.641 -0.5962 -0.6950 -0.0274
13861TIP3    H262999   0.191   6.563  13.776  0.0011  0.4146 -0.6370
13862TIP3   OH263000   5.574   3.152  13.466 -0.3643 -0.1558  0.1804
13862TIP3    H163001   5.620   3.230  13.495  0.8153 -1.3843  1.8471
13862TIP3    H263002   5.499   3.144  13.525 -1.0327  0.2297 -0.6086
13863TIP3   OH263003   1.267   3.207   0.008  0.3978  0.2270 -0.3142
13863TIP3    H163004   1.300   3.127  -0.034 -0.3021 -0.0664 -0.3368
13863TIP3    H263005   1.186   3.226  -0.040  0.2032  0.5570  0.1423
13864TIP3   OH263006   1.644   1.621  12.153 -0.7498 -0.2032  0.4606
13864TIP3    H163007   1.562   1.629  12.202 -0.4633  0.4251  0.8498
13864TIP3    H263008   1.675   1.711  12.144 -0.8478 -0.2842 -0.9858
13865TIP3   OH263009   3.725   4.240   4.757  0.2953 -0.0940  0.5067
13865TIP3    H163010   3.650   4.270   4.705  0.6546  0.5489  0.3456
13865TIP3    H263011   3.706   4.148   4.775  0.1804 -0.3572 -0.8260
13866TIP3   OH263012   0.422   4.826   5.532 -0.0638 -0.3725  0.9915
13866TIP3    H163013   0.488   4.763   5.558  0.9436 -0.1104 -0.7515
13866TIP3    H263014   0.444   4.906   5.580  1.8567  0.1646 -0.6475
13867TIP3   OH263015   1.332   2.467   0.623 -0.1255 -0.5427 -0.0408
13867TIP3    H163016   1.262   2.404   0.641  0.0927 -0.8673 -0.3018
13867TIP3    H263017   1.372   2.434   0.543  0.3502 -0.3781  0.1303
13868TIP3   OH263018   3.060   3.113   5.290  0.1786 -0.1968 -0.2682
13868TIP3    H163019   2.969   3.089   5.306 -0.4128  0.6208 -2.1773
13868TIP3    H263020   3.104   3.094   5.373 -1.6142 -1.0505  0.5544
13869TIP3   OH263021   1.960   3.112  10.339  0.3172 -0.4019 -0.2810
13869TIP3    H163022   2.015   3.093  10.263  0.3024  0.5532 -0.5379
13869TIP3    H263023   1.908   3.188  10.313 -0.5956 -0.8408  0.2300
13870TIP3   OH263024   2.590   5.168  15.233 -1.1128  0.2803 -0.3539
13870TIP3    H163025   2.632   5.186  15.149 -2.0576  1.5362 -0.5873
13870TIP3    H263026   2.534   5.092  15.216 -0.9451  0.2359 -0.7286
13871TIP3   OH263027   3.143   0.107   2.316 -0.1394 -0.6409  0.2846
13871TIP3    H163028   3.071   0.097   2.379 -0.6741  2.0387  0.1866
13871TIP3    H263029   3.194   0.027   2.327 -1.5877 -1.3877  2.3358
13872TIP3   OH263030   3.843   2.741   1.850  0.0121 -0.3982 -0.1616
13872TIP3    H163031   3.911   2.767   1.789 -1.4207  1.7700 -0.9755
13872TIP3    H263032   3.888   2.692   1.918  2.6613  2.2337  0.1467
13873TIP3   OH263033   4.741   4.374   3.659  0.1426  0.7947  0.2687
13873TIP3    H163034   4.764   4.303   3.720  0.6895  0.7179 -0.0152
13873TIP3    H263035   4.824   4.395   3.615 -0.5950 -0.5994 -1.9631
13874TIP3   OH263036   3.422   0.188  11.397 -0.4004 -0.1605 -0.3635
13874TIP3    H163037   3.403   0.113  11.340 -0.2490 -0.1514 -0.4241
13874TIP3    H263038   3.473   0.151  11.469 -0.2435 -0.0970 -0.4432
13875TIP3   OH263039   4.981   2.493   4.903  0.3945  0.3238  0.3729
13875TIP3    H163040   4.904   2.496   4.959 -1.4944 -0.7536 -1.9671
13875TIP3    H263041   5.021   2.580   4.912 -0.5688  0.6076  2.2966
13876TIP3   OH263042   6.584   3.904   4.634  0.8205 -0.1677  0.5354
13876TIP3    H163043   6.527   3.980   4.646  3.1666  1.5119  1.9313
13876TIP3    H263044   6.550   3.839   4.696 -0.1793  0.4079  0.6066
13877TIP3   OH263045   0.502   5.007  13.697 -0.3337 -0.1369  0.1021
13877TIP3    H163046   0.576   4.957  13.730  0.5282  0.1931 -1.2410
13877TIP3    H263047   0.476   5.063  13.770  0.0383 -1.0277  0.9349
13878TIP3   OH263048   3.722   2.540   2.965  0.6400  0.1182 -0.2262
13878TIP3    H163049   3.783   2.469   2.983  1.1929 -0.0459 -2.5330
13878TIP3    H263050   3.724   2.551   2.870 -0.2446  2.5082 -0.0346
13879TIP3   OH263051   6.131   1.723  11.698  0.4932  0.1160  0.1655
13879TIP3    H163052   6.121   1.640  11.744  3.0160 -0.4051 -0.0592
13879TIP3    H263053   6.093   1.708  11.611 -2.2162  0.3837  1.2252
13880TIP3   OH263054   0.978   6.475   1.085  0.1394 -0.2718 -0.2176
13880TIP3    H163055   0.903   6.513   1.131 -0.3946 -0.5640 -0.8350
13880TIP3    H263056   1.012   6.408   1.145 -0.9786 -1.1395 -0.5207
13881TIP3   OH263057   4.431   5.097  11.873 -0.4552 -0.2867 -0.5660
13881TIP3    H163058   4.524   5.075  11.872 -0.8830 -2.2350 -1.6501
13881TIP3    H263059   4.403   5.090  11.782 -1.2891  2.2773 -0.5980
13882TIP3   OH263060   0.905   1.407   1.181 -0.3587 -0.9026 -0.2393
13882TIP3    H163061   0.837   1.420   1.115 -1.8010 -1.1985  1.1153
13882TIP3    H263062   0.890   1.317   1.212  0.4081 -0.8315  0.3559
13883TIP3   OH263063   3.806   0.847   5.739 -0.4832 -0.2890  0.2305
13883TIP3    H163064   3.744   0.807   5.800  0.3708  0.8011  1.9047
13883TIP3    H263065   3.760   0.925   5.707 -0.8861 -0.7947 -0.4360
13884TIP3   OH263066   0.978   5.564   4.685  0.4354  0.0442 -0.3391
13884TIP3    H163067   0.955   5.655   4.699 -2.1353 -0.4089 -1.2001
13884TIP3    H263068   1.056   5.551   4.739  0.2087  2.4266  0.6859
13885TIP3   OH263069   6.318   1.775   0.391  0.2786 -0.2132  0.0369
13885TIP3    H163070   6.256   1.823   0.337  2.6524  0.7918 -2.0260
13885TIP3    H263071   6.304   1.683   0.368 -2.0537 -0.2927  1.5183
13886TIP3   OH263072   4.371   1.897   3.983  0.8251  0.3457  0.0848
13886TIP3    H163073   4.301   1.868   4.041  1.3277  2.2802  1.7479
13886TIP3    H263074   4.331   1.965   3.929  0.7995 -0.3074 -0.7494
13887TIP3   OH263075   4.637   0.613  14.346 -0.0451 -0.2827 -0.1003
13887TIP3    H163076   4.610   0.569  14.426  0.1294 -1.2327 -0.5485
13887TIP3    H263077   4.592   0.565  14.276  0.9271 -0.3868 -0.6726
13888TIP3   OH263078   0.191   1.478   2.520  0.8511 -0.2089  0.2289
13888TIP3    H163079   0.214   1.388   2.545 -1.2925 -1.3390 -1.5125
13888TIP3    H263080   0.096   1.481   2.530  0.6590  1.2203 -1.6321
13889TIP3   OH263081   1.992   3.451   2.629  0.1159  0.2415  0.4565
13889TIP3    H163082   2.041   3.484   2.554 -1.3553  0.1933 -0.5685
13889TIP3    H263083   2.011   3.513   2.699 -0.6796  1.9355 -0.7455
13890TIP3   OH263084   1.835   4.557   2.978  0.0103 -0.5440  0.5788
13890TIP3    H163085   1.846   4.635   2.924 -0.8908 -0.4568  0.4902
13890TIP3    H263086   1.788   4.495   2.922 -0.8090 -0.5068  1.2009
13891TIP3   OH263087   3.621   5.275  16.164 -0.5720  0.2759  0.4070
13891TIP3    H163088   3.664   5.276  16.249 -1.5670 -1.0761  0.9647
13891TIP3    H263089   3.692   5.292  16.101  0.0997  1.7245  1.5051
13892TIP3   OH263090   0.099   6.336  15.571  0.7458 -0.3575 -0.1947
13892TIP3    H163091   0.166   6.280  15.532  0.9969  0.1736 -0.5335
13892TIP3    H263092   0.016   6.296  15.545  0.8911  0.3850 -1.9086
13893TIP3   OH263093   6.103   6.334   1.520 -0.2528  0.1724 -0.3528
13893TIP3    H163094   6.038   6.293   1.576 -0.7047  0.5088 -0.6254
13893TIP3    H263095   6.060   6.412   1.486 -0.0612 -0.1218 -1.3206
13894TIP3   OH263096   1.560   2.876  14.278  0.2791 -0.2956 -0.2424
13894TIP3    H163097   1.599   2.805  14.329 -1.6915 -0.5469  1.0449
13894TIP3    H263098   1.623   2.893  14.209  3.5514  0.5837  2.6446
13895TIP3   OH263099   5.290   0.219   2.503  0.2087 -0.6853 -0.0258
13895TIP3    H163100   5.323   0.282   2.438 -0.2469 -0.5622 -0.1401
13895TIP3    H263101   5.233   0.160   2.452 -2.3665  1.0331  0.6977
13896TIP3   OH263102   3.869   1.137   5.706 -0.3620 -0.4642 -0.0740
13896TIP3    H163103   3.794   1.188   5.736  0.9273  2.3166 -1.1750
13896TIP3    H263104   3.939   1.159   5.768 -0.0639 -1.9446  0.1467
13897TIP3   OH263105   1.224   4.376  12.199 -0.3192 -0.4824  0.6516
13897TIP3    H163106   1.155   4.311  12.211  0.1749 -0.9849  0.8229
13897TIP3    H263107   1.294   4.348  12.259  0.0515 -0.0068  0.4495
13898TIP3   OH263108   5.206   4.767   3.094  0.1506 -0.1920  0.2219
13898TIP3    H163109   5.299   4.767   3.069 -0.0250 -0.2123 -0.4468
13898TIP3    H263110   5.169   4.842   3.047 -0.4474 -0.9731 -0.5917
13899TIP3   OH263111   5.324   2.774   4.499 -0.3739  0.5543  0.0420
13899TIP3    H163112   5.299   2.790   4.590 -0.0692  1.3612 -0.0059
13899TIP3    H263113   5.260   2.710   4.467  0.3629 -0.8061  1.2200
13900TIP3   OH263114   1.147   2.281   0.070 -0.1412  0.3794  0.3887
13900TIP3    H163115   1.130   2.200   0.023  0.2341  0.5848 -0.1096
13900TIP3    H263116   1.242   2.294   0.063 -0.1677  0.7349  0.6617
13901TIP3   OH263117   4.461   1.356  14.156  0.0957  0.1308 -0.3229
13901TIP3    H163118   4.516   1.348  14.078 -0.7016 -1.9359 -0.7502
13901TIP3    H263119   4.394   1.289  14.144 -0.8560  0.7042  1.5113
13902TIP3   OH263120   4.619   2.371  13.835 -0.6130 -0.1189  0.0641
13902TIP3    H163121   4.536   2.390  13.790 -1.2501 -2.2820  0.1895
13902TIP3    H263122   4.648   2.455  13.869 -1.8315  1.0152 -1.5217
13903TIP3   OH263123   1.179   1.186   1.251 -0.1951 -0.5005 -0.3832
13903TIP3    H163124   1.176   1.281   1.262 -1.0740 -0.6355  0.7048
13903TIP3    H263125   1.127   1.169   1.172 -1.0851 -0.1663  0.1210
13904TIP3   OH263126   2.800   2.500   2.444 -0.2066 -0.7357 -0.2226
13904TIP3    H163127   2.741   2.439   2.399 -0.0426 -2.7897  2.1375
13904TIP3    H263128   2.750   2.531   2.519  1.2253 -1.5302  1.1143
13905TIP3   OH263129   3.424   6.593  15.188  0.3086  0.3093  0.0531
13905TIP3    H163130   3.497   6.536  15.214  0.0054 -0.1704 -0.1230
13905TIP3    H263131   3.382   6.545  15.116 -0.9488 -0.0201  0.9908
13906TIP3   OH263132   1.885   1.885   5.148 -0.5058 -0.2520 -0.0987
13906TIP3    H163133   1.921   1.818   5.207 -0.4886 -0.3607 -0.2336
13906TIP3    H263134   1.834   1.942   5.206  1.7459  1.2675  0.5258
13907TIP3   OH263135   3.130   3.239   2.942  0.7512 -0.5805 -0.3621
13907TIP3    H163136   3.202   3.281   2.895  0.9143  0.0847  0.4463
13907TIP3    H263137   3.171   3.201   3.020  0.3491 -0.8736 -0.2890
13908TIP3   OH263138   6.164   3.613  14.324 -0.2847 -0.2038  0.1899
13908TIP3    H163139   6.188   3.573  14.240 -0.5825 -1.0764  0.5079
13908TIP3    H263140   6.188   3.547  14.390  1.8110  1.2393  0.9756
13909TIP3   OH263141   2.839   2.271   1.683 -0.4107  0.0110  0.1135
13909TIP3    H163142   2.748   2.243   1.676 -0.7066  0.7891  0.7211
13909TIP3    H263143   2.842   2.355   1.637 -0.2592  0.5184  1.0254
13910TIP3   OH263144   2.723   0.739   2.590 -0.9349  0.4935  0.2585
13910TIP3    H163145   2.805   0.734   2.638  0.2694 -2.7043 -1.7594
13910TIP3    H263146   2.698   0.832   2.592  2.7255  1.5994  0.9517
13911TIP3   OH263147   3.222   5.321   4.555 -0.4434 -0.2141 -0.5693
13911TIP3    H163148   3.176   5.403   4.572  1.8798  1.3113 -1.0913
13911TIP3    H263149   3.216   5.310   4.460  0.4763  0.1622 -0.6801
13912TIP3   OH263150   4.469   1.192  15.370  0.5161  0.4434  0.6524
13912TIP3    H163151   4.470   1.229  15.282 -0.6436  1.8910  1.2023
13912TIP3    H263152   4.539   1.127  15.370 -0.4276 -0.6868 -1.7780
13913TIP3   OH263153   3.688   0.054   2.653  0.1973 -0.0656  0.0064
13913TIP3    H163154   3.659  -0.031   2.685  0.6366  0.1060  0.8710
13913TIP3    H263155   3.628   0.074   2.581  0.8272 -1.6524 -1.0177
13914TIP3   OH263156   5.281   3.049   2.972 -0.2689  0.1267 -0.0345
13914TIP3    H163157   5.359   3.103   2.979 -1.9749  2.5293  2.0621
13914TIP3    H263158   5.210   3.102   3.008 -2.7010 -2.3739 -0.6943
13915TIP3   OH263159   2.422   6.644   6.144  0.6424  0.4188  0.2979
13915TIP3    H163160   2.359   6.697   6.193 -0.3023  0.3012 -0.7717
13915TIP3    H263161   2.497   6.635   6.204 -0.5810  0.0574  1.8268
13916TIP3   OH263162   1.096   5.726  16.582 -0.1035 -0.1134 -0.3744
13916TIP3    H163163   1.076   5.818  16.565 -1.7311 -0.1668  1.0450
13916TIP3    H263164   1.066   5.711  16.671  0.1835 -2.0302 -0.5667
13917TIP3   OH263165   5.153   1.617  14.508 -0.6716  0.0959 -0.3250
13917TIP3    H163166   5.216   1.611  14.435 -0.7758 -1.7742 -0.3086
13917TIP3    H263167   5.076   1.657  14.469 -0.0456  0.9307 -0.7441
13918TIP3   OH263168   3.338   4.455   3.969 -0.0365  0.4553  0.4092
13918TIP3    H163169   3.309   4.537   4.009 -2.2758  0.6949 -1.5031
13918TIP3    H263170   3.406   4.481   3.907 -1.8697  1.2116 -1.4045
13919TIP3   OH263171   4.068   0.807   4.906  0.1816  0.0343 -0.2748
13919TIP3    H163172   4.047   0.876   4.843 -0.2184  0.5608  0.4207
13919TIP3    H263173   4.158   0.782   4.886  0.0035  0.0840 -1.1583
13920TIP3   OH263174   0.621   2.387  14.930  0.3737 -0.1122 -0.6176
13920TIP3    H163175   0.639   2.308  14.980 -0.1273  1.5886  2.4801
13920TIP3    H263176   0.525   2.389  14.923  0.0346  1.9955  2.7320
13921TIP3   OH263177   2.248   2.979   4.678 -0.3670 -0.0932 -0.0035
13921TIP3    H163178   2.174   2.919   4.673 -1.2593  1.0539 -1.2086
13921TIP3    H263179   2.267   2.986   4.772 -2.4934  0.4073  0.4530
13922TIP3   OH263180   1.879   3.490   5.566  0.1415 -0.1989  0.4321
13922TIP3    H163181   1.785   3.493   5.548  0.3895 -1.2920 -1.2632
13922TIP3    H263182   1.886   3.449   5.652 -0.9350 -0.2695  0.4929
13923TIP3   OH263183   1.292   6.180   0.616  0.6445  0.1551 -0.2287
13923TIP3    H163184   1.316   6.182   0.524  2.0838  0.3329  0.1278
13923TIP3    H263185   1.372   6.206   0.663 -0.2393  0.7156  1.0371
13924TIP3   OH263186   0.397   6.385   2.834 -0.2527  0.1435  0.4591
13924TIP3    H163187   0.452   6.332   2.892  1.0681  0.0839 -0.8026
13924TIP3    H263188   0.424   6.361   2.746 -1.3971  1.0972 -0.1826
13925TIP3   OH263189   1.998   4.496  11.532 -0.4788 -0.0853 -0.3090
13925TIP3    H163190   1.983   4.418  11.586 -1.4258  0.1700 -0.1868
13925TIP3    H263191   1.914   4.541  11.531  0.4444  1.8115  1.0091
13926TIP3   OH263192   2.825   0.445   2.968  0.4306 -0.3122  0.4929
13926TIP3    H163193   2.881   0.521   2.983  1.0807 -0.6980  0.0384
13926TIP3    H263194   2.848   0.384   3.038  0.1134 -0.2201  0.6846
13927TIP3   OH263195   0.444   2.006   1.560  0.2330  0.4196 -0.1760
13927TIP3    H163196   0.478   1.952   1.488 -1.0656  0.9074 -1.1935
13927TIP3    H263197   0.457   2.096   1.531  0.3349  0.6273  0.5122
13928TIP3   OH263198   0.672   4.910   2.787 -0.4203  0.5440  0.6706
13928TIP3    H163199   0.697   4.999   2.762 -1.1599  0.7145  0.5046
13928TIP3    H263200   0.623   4.921   2.869  1.1333  0.0865  1.7051
13929TIP3   OH263201   1.455   0.754   0.120  0.6295  0.4230  0.3696
13929TIP3    H163202   1.368   0.767   0.157 -0.2930  1.1662 -1.8776
13929TIP3    H263203   1.443   0.687   0.053  1.7755  0.5603 -0.0014
13930TIP3   OH263204   3.082   1.531   0.403  0.0519 -0.1018 -0.1532
13930TIP3    H163205   3.026   1.585   0.348  0.4305  2.2181  1.6103
13930TIP3    H263206   3.171   1.553   0.375  0.2172  0.4119  0.7650
13931TIP3   OH263207   5.851   4.881  15.381  0.3306  0.0537  0.0339
13931TIP3    H163208   5.928   4.928  15.349  0.7808 -0.7444 -0.0953
13931TIP3    H263209   5.844   4.805  15.324 -0.6041  0.1507  0.0001
13932TIP3   OH263210   3.571   0.858   2.252  0.3894  0.3625 -0.1860
13932TIP3    H163211   3.553   0.765   2.238  0.8194  0.1154  0.7714
13932TIP3    H263212   3.515   0.903   2.189 -1.9797 -0.4424  1.1930
13933TIP3   OH263213   1.699   2.667   3.862 -0.3964 -0.9772  0.1850
13933TIP3    H163214   1.611   2.702   3.851  0.5940  1.6761 -0.0008
13933TIP3    H263215   1.729   2.703   3.946  1.6396  0.9609 -1.2527
13934TIP3   OH263216   2.927   5.967  15.505  0.2738 -0.1870 -0.3318
13934TIP3    H163217   2.869   6.027  15.458  0.3466  0.0194 -0.1599
13934TIP3    H263218   2.945   5.898  15.442  1.5181  0.8119 -1.1118
13935TIP3   OH263219   4.677   0.440   4.066 -0.1763 -0.3613  0.0997
13935TIP3    H163220   4.759   0.457   4.111  0.0203  0.5634 -0.5688
13935TIP3    H263221   4.703   0.417   3.977 -0.6011 -1.1304  0.1672
13936TIP3   OH263222   0.353   2.776   2.927  0.1863  0.1945 -0.1264
13936TIP3    H163223   0.397   2.733   2.853  0.9290 -0.9942  0.9589
13936TIP3    H263224   0.284   2.828   2.886 -0.8726 -2.1457 -1.5618
13937TIP3   OH263225   2.055   6.334  15.954 -0.1341 -0.4283  0.2213
13937TIP3    H163226   1.999   6.280  16.010 -0.1187 -1.2684 -0.5500
13937TIP3    H263227   2.144   6.309  15.978 -0.0842  0.4890  1.0405
13938TIP3   OH263228   5.750   4.195  14.807  0.0206 -0.3960  0.4460
13938TIP3    H163229   5.782   4.107  14.788 -0.4918 -0.8899  1.7246
13938TIP3    H263230   5.821   4.235  14.859 -1.0123 -1.2250  2.6275
13939TIP3   OH263231   6.220   3.162   5.772 -0.3083  0.1164  0.1639
13939TIP3    H163232   6.140   3.210   5.790 -1.7139 -0.9656 -2.6922
13939TIP3    H263233   6.191   3.076   5.742  2.0224 -1.1271  1.1423
13940TIP3   OH263234   0.660   2.344   0.724 -0.1903  0.6123 -0.3467
13940TIP3    H163235   0.658   2.424   0.671 -1.6839  1.0282  0.2872
13940TIP3    H263236   0.605   2.364   0.800 -0.4093 -0.9323 -0.0603
13941TIP3   OH263237   0.097   6.418   2.483  0.1267  0.5905 -0.3866
13941TIP3    H163238   0.124   6.329   2.504  1.8728  0.8615 -1.3392
13941TIP3    H263239   0.002   6.413   2.474 -0.1816 -0.4923  2.6591
13942TIP3   OH263240   1.456   5.116   1.764 -0.3848  0.4218 -0.4281
13942TIP3    H163241   1.379   5.169   1.784  0.9799  2.1741  0.4603
13942TIP3    H263242   1.527   5.157   1.814  1.1144 -1.1772 -1.1503
13943TIP3   OH263243   6.523   3.679  11.224  0.3814  0.2287 -0.0647
13943TIP3    H163244   6.509   3.760  11.175 -1.7411  0.2068  0.4112
13943TIP3    H263245   6.530   3.707  11.315  1.0149 -0.0195 -0.0321
13944TIP3   OH263246   0.417   4.640  13.334 -0.3647 -0.3369 -0.3545
13944TIP3    H163247   0.354   4.710  13.352  1.3649  1.2218  0.0098
13944TIP3    H263248   0.413   4.583  13.411 -1.4925 -0.4149 -0.4611
13945TIP3   OH263249   0.706   1.739   3.737  0.2775  0.6408 -0.1808
13945TIP3    H163250   0.675   1.650   3.752  0.8557  0.1854 -1.5879
13945TIP3    H263251   0.729   1.771   3.825  2.3043 -1.4350  0.1339
13946TIP3   OH263252   1.832   5.753  16.834  0.3503  0.1319  0.3600
13946TIP3    H163253   1.758   5.808  16.861 -0.6698  0.0401 -2.0368
13946TIP3    H263254   1.795   5.665  16.830  1.3284 -0.3809  1.7053
13947TIP3   OH263255   5.857   2.883   5.266  0.5717  0.3924 -0.4901
13947TIP3    H163256   5.924   2.852   5.327 -1.8573 -0.5171  1.9054
13947TIP3    H263257   5.884   2.973   5.246  2.5917 -0.0000  0.1715
13948TIP3   OH263258   5.164   4.094   2.914  0.0881  0.3795 -0.3276
13948TIP3    H163259   5.142   4.004   2.938 -0.4395  0.5204 -0.2665
13948TIP3    H263260   5.081   4.131   2.881  0.5611  0.4838 -1.4523
13949TIP3   OH263261   4.972   1.610   3.564  0.4765  0.2258  0.2826
13949TIP3    H163262   4.995   1.611   3.471  0.8279  3.3975  0.2696
13949TIP3    H263263   4.925   1.692   3.578  0.8002  0.0560  2.9805
13950TIP3   OH263264   6.217   0.590  14.033 -0.6195 -0.1246 -0.1405
13950TIP3    H163265   6.197   0.675  13.994  0.6132 -0.4744 -1.6115
13950TIP3    H263266   6.302   0.601  14.074 -0.5728 -0.5800 -0.1031
13951TIP3   OH263267   5.192   4.628  15.315 -0.4968  0.3186 -0.2910
13951TIP3    H163268   5.218   4.592  15.230 -1.6420  1.1957 -1.0329
13951TIP3    H263269   5.258   4.694  15.334  0.5189 -0.7863  0.1607
13952TIP3   OH263270   6.707   5.191   1.852 -0.0935  0.1663  0.2169
13952TIP3    H163271   6.628   5.244   1.863  0.2293  0.9224 -0.8942
13952TIP3    H263272   6.771   5.230   1.912 -0.6035 -0.5630  1.2546
13953TIP3   OH263273   2.460   5.301  12.787 -0.5783  0.1053  0.2184
13953TIP3    H163274   2.536   5.328  12.736  0.9603  0.4171  2.4946
13953TIP3    H263275   2.398   5.373  12.778  0.8511  1.5221  1.0619
13954TIP3   OH263276   3.852   1.435  12.132 -0.2513 -0.5573 -0.2968
13954TIP3    H163277   3.900   1.510  12.097 -0.4616 -0.7101 -0.9185
13954TIP3    H263278   3.862   1.443  12.227 -1.8998  1.3761 -0.2078
13955TIP3   OH263279   3.355   2.513  12.461  0.2554  0.1767 -0.8591
13955TIP3    H163280   3.354   2.466  12.377  1.3977 -0.2281 -0.6612
13955TIP3    H263281   3.445   2.505  12.492 -0.3378 -0.4187  0.8376
13956TIP3   OH263282   6.235   0.630  11.396 -0.3618  0.0485  0.2201
13956TIP3    H163283   6.311   0.580  11.425  0.4316  0.7160 -0.6414
13956TIP3    H263284   6.160   0.581  11.431  0.4662 -0.0179  2.0191
13957TIP3   OH263285   6.760   3.022  15.040 -0.2038  0.1611  0.1093
13957TIP3    H163286   6.792   2.986  14.957 -0.9149 -0.2445  0.0073
13957TIP3    H263287   6.827   2.996  15.104  0.5059  0.7390 -0.3779
13958TIP3   OH263288   1.993   5.783  11.768  0.0432 -0.7493  0.0773
13958TIP3    H163289   1.908   5.770  11.725  0.0198 -0.6947  0.1076
13958TIP3    H263290   2.054   5.797  11.695 -0.0541 -0.3283  0.0748
13959TIP3   OH263291   5.686   4.908  13.770  0.1904 -0.5306 -0.2521
13959TIP3    H163292   5.622   4.913  13.699  0.5043 -1.4273 -0.6172
13959TIP3    H263293   5.688   4.996  13.808 -0.6920 -0.2972 -0.7286
13960TIP3   OH263294   4.005   4.230  14.409 -0.3961  0.1946 -0.5348
13960TIP3    H163295   4.080   4.290  14.412 -1.0217  0.9685  1.2362
13960TIP3    H263296   4.040   4.146  14.437  0.0494  0.2388 -0.9436
13961TIP3   OH263297   1.563   1.528  12.779  0.3362  0.0241 -0.3231
13961TIP3    H163298   1.526   1.609  12.816  0.8245 -0.3074  0.9235
13961TIP3    H263299   1.503   1.459  12.807  1.6258 -0.4684  1.4026
13962TIP3   OH263300   5.189   5.883   1.442  0.0835  0.1063  0.1160
13962TIP3    H163301   5.094   5.896   1.436  0.3254  2.2507  0.0076
13962TIP3    H263302   5.225   5.934   1.369  1.2917 -1.6925 -0.6098
13963TIP3   OH263303   5.879   2.724  12.017  0.4155  0.2800  0.1292
13963TIP3    H163304   5.799   2.775  12.005  0.7205  0.5860 -0.6468
13963TIP3    H263305   5.949   2.779  11.980  0.6846 -0.8855 -1.1487
13964TIP3   OH263306   0.400   3.104  16.168 -0.1411 -0.1579 -0.0630
13964TIP3    H163307   0.341   3.031  16.148  0.0479 -0.4476  0.4188
13964TIP3    H263308   0.372   3.174  16.109  0.5587 -1.0596 -1.5361
13965TIP3   OH263309   5.553   5.668  11.650  0.2483  0.0833  0.3670
13965TIP3    H163310   5.617   5.651  11.581 -1.0535 -0.3547 -0.7823
13965TIP3    H263311   5.572   5.758  11.679  0.3510  0.5518 -1.0904
13966TIP3   OH263312   5.045   0.598  16.775  0.6572  0.0536  0.3082
13966TIP3    H163313   4.983   0.583  16.846 -0.4446 -0.4641 -0.7201
13966TIP3    H263314   4.990   0.627  16.702  1.6848 -0.0355 -0.5222
13967TIP3   OH263315   4.959   5.841  11.167  0.3346  0.1126 -0.0901
13967TIP3    H163316   4.975   5.932  11.192  1.8304 -0.8591  2.9742
13967TIP3    H263317   5.044   5.808  11.138  0.8111 -1.2627  2.5563
13968TIP3   OH263318   2.048   5.040  12.987  0.4394 -0.1643  0.6311
13968TIP3    H163319   1.992   5.113  12.963  0.7539 -0.4238 -1.1054
13968TIP3    H263320   2.135   5.066  12.955  0.9870 -0.4123  1.8910
13969TIP3   OH263321   6.499   3.496  12.620  0.0867  0.0503  0.1175
13969TIP3    H163322   6.484   3.436  12.548 -0.0241  0.3793 -0.1395
13969TIP3    H263323   6.476   3.582  12.584  0.8360  0.3286  0.2870
13970TIP3   OH263324   4.967   0.442   6.458  0.5848 -0.6737 -0.4851
13970TIP3    H163325   4.958   0.349   6.441 -0.6140 -0.6871  0.0917
13970TIP3    H263326   4.893   0.482   6.414 -0.2074 -0.2687  1.1307
13971TIP3   OH263327   0.126   1.857  16.384 -0.2936  0.9673 -0.0347
13971TIP3    H163328   0.116   1.768  16.350  0.2732  1.0120 -0.3180
13971TIP3    H263329   0.218   1.865  16.406 -0.6272  0.9625  1.4618
13972TIP3   OH263330   0.041   2.992   4.053  0.6248  0.6851 -0.4373
13972TIP3    H163331   0.105   3.062   4.047  0.2756  0.8832 -3.4796
13972TIP3    H263332   0.093   2.912   4.053  0.9125  0.8660 -0.1352
13973TIP3   OH263333   0.632   3.840  13.724 -0.0882  0.4210 -0.6902
13973TIP3    H163334   0.683   3.781  13.669 -0.6671 -0.0878 -0.6910
13973TIP3    H263335   0.595   3.784  13.792 -0.3348  0.8466 -0.4658
13974TIP3   OH263336   4.395   2.745  13.894 -1.1148 -0.4694  0.3369
13974TIP3    H163337   4.371   2.794  13.972 -3.5128 -1.9973  0.6729
13974TIP3    H263338   4.404   2.811  13.826 -0.6049  0.7368  1.5336
13975TIP3   OH263339   5.543   6.446  13.115 -0.3900 -0.0921 -0.1686
13975TIP3    H163340   5.475   6.508  13.141  1.6830  1.8466  0.9323
13975TIP3    H263341   5.625   6.485  13.146  1.1280 -3.0018 -0.1733
13976TIP3   OH263342   4.622   4.691   3.318 -0.1232 -0.1295 -0.4797
13976TIP3    H163343   4.543   4.662   3.362  1.2060 -1.1914  1.3785
13976TIP3    H263344   4.665   4.610   3.291  0.0316  0.4518 -2.0687
13977TIP3   OH263345   3.617   0.504   0.604 -0.0836  0.0675  0.0171
13977TIP3    H163346   3.571   0.585   0.626  1.0269  0.0827  2.7005
13977TIP3    H263347   3.575   0.437   0.658  0.7714 -0.5771 -0.1036
13978TIP3   OH263348   5.104   3.830   5.154 -0.0387  0.5554 -0.8729
13978TIP3    H163349   5.032   3.891   5.137  0.2524  1.1148 -0.1270
13978TIP3    H263350   5.162   3.877   5.213  0.6577 -0.1076 -1.0153
13979TIP3   OH263351   6.198   1.833   0.937  0.5347 -0.4911  0.2586
13979TIP3    H163352   6.147   1.820   1.017  0.0667 -1.5728 -0.2011
13979TIP3    H263353   6.135   1.826   0.866  1.3923 -2.5828 -0.3717
13980TIP3   OH263354   0.213   6.290   5.057 -0.0172  0.1217  0.2759
13980TIP3    H163355   0.225   6.376   5.097 -0.6137  0.6633 -0.6880
13980TIP3    H263356   0.193   6.232   5.131  0.4674  0.7848  0.9409
13981TIP3   OH263357   4.783   2.826   0.870 -0.7101  0.4439 -0.2697
13981TIP3    H163358   4.705   2.774   0.851  0.5775 -0.8609 -2.4582
13981TIP3    H263359   4.840   2.767   0.920 -0.6365  0.9730  0.2827
13982TIP3   OH263360   0.575   5.060  16.303 -0.0648  0.0410 -0.0903
13982TIP3    H163361   0.590   4.994  16.235  1.7201 -0.3971  0.6646
13982TIP3    H263362   0.583   5.143  16.258  0.2713 -0.2526 -0.5821
13983TIP3   OH263363   5.463   0.321  13.452  0.9442  0.1338 -0.0069
13983TIP3    H163364   5.456   0.408  13.489  1.9962 -0.2470  1.1488
13983TIP3    H263365   5.519   0.273  13.513  1.7382 -0.8769 -1.4608
13984TIP3   OH263366   3.024   5.021  14.488  0.5271 -0.7058 -0.0047
13984TIP3    H163367   3.036   4.969  14.409  0.1736  0.5912 -0.9332
13984TIP3    H263368   2.996   5.107  14.457 -0.2969 -0.3656  1.5602
13985TIP3   OH263369   1.769   0.488   1.385 -0.1227 -0.1381 -0.2812
13985TIP3    H163370   1.779   0.575   1.346  0.1820 -1.6540 -3.9446
13985TIP3    H263371   1.857   0.450   1.384 -0.6549 -1.4422 -1.3951
13986TIP3   OH263372   5.128   1.291   2.420 -0.1788 -0.3242  0.3027
13986TIP3    H163373   5.066   1.305   2.349 -1.0339 -0.7972  0.9289
13986TIP3    H263374   5.084   1.227   2.478  1.1241 -1.0989  0.4811
13987TIP3   OH263375   5.899   0.879  15.041  0.2069 -0.0411  0.4990
13987TIP3    H163376   5.841   0.911  14.971 -1.4227 -1.2703  1.2031
13987TIP3    H263377   5.895   0.947  15.108 -0.3350 -0.0456  0.4788
13988TIP3   OH263378   5.105   5.940  15.741 -0.1187 -0.0026  0.1462
13988TIP3    H163379   5.103   5.980  15.654 -0.1465  0.7872  0.5094
13988TIP3    H263380   5.020   5.962  15.780  0.8449  1.7904  1.3290
13989TIP3   OH263381   5.608   4.468  14.943 -0.1336  0.7489  0.1565
13989TIP3    H163382   5.545   4.397  14.953  1.1526 -0.3596  0.6996
13989TIP3    H263383   5.558   4.539  14.902 -1.3751 -0.5899 -0.7521
13990TIP3   OH263384   3.729   5.114   2.345 -0.0353  0.0794 -0.0114
13990TIP3    H163385   3.670   5.056   2.392 -2.6214  2.2902 -0.3385
13990TIP3    H263386   3.719   5.088   2.253  1.6578 -1.2833  0.1138
13991TIP3   OH263387   3.051   1.475   4.630  0.3267  0.0842  0.1678
13991TIP3    H163388   3.017   1.440   4.547  0.6234  2.4775 -1.0630
13991TIP3    H263389   3.022   1.413   4.696 -1.2994 -1.0936 -1.5424
13992TIP3   OH263390   3.940   5.722  15.162  0.6117  0.1183  0.1062
13992TIP3    H163391   3.876   5.652  15.148  0.2647  0.1509  1.4358
13992TIP3    H263392   3.890   5.803  15.159  0.5975  0.1505  1.0531
13993TIP3   OH263393   4.442   5.502  12.609  0.3353 -0.0733  0.6420
13993TIP3    H163394   4.370   5.531  12.552  0.8298  0.2620  0.1747
13993TIP3    H263395   4.519   5.502  12.551  0.9402  0.7320  1.4128
13994TIP3   OH263396   0.358   3.317   0.438  0.1631 -0.3487  0.6706
13994TIP3    H163397   0.426   3.363   0.388 -1.4956  0.7464 -0.6796
13994TIP3    H263398   0.336   3.242   0.384 -1.6823  0.8728 -0.3850
13995TIP3   OH263399   4.809   1.069  13.392  0.1220  0.8988 -0.1697
13995TIP3    H163400   4.844   0.987  13.358  2.1504  1.1383  1.1324
13995TIP3    H263401   4.875   1.099  13.455 -2.8128  1.0122  3.1659
13996TIP3   OH263402   1.328   3.594   4.149  0.4480 -0.4186  0.4334
13996TIP3    H163403   1.396   3.618   4.212  0.3834 -0.1662  0.4090
13996TIP3    H263404   1.255   3.654   4.168 -0.2752 -1.5385  1.3243
13997TIP3   OH263405   4.682   4.586  14.501 -0.5301 -0.5608  0.2969
13997TIP3    H163406   4.679   4.656  14.566 -2.0434 -0.0467 -0.2782
13997TIP3    H263407   4.774   4.581  14.475 -0.2449  0.5996  1.0134
13998TIP3   OH263408   1.491   6.625   0.059 -0.5733  0.3030  0.9089
13998TIP3    H163409   1.413   6.570   0.047 -0.9816  0.9756  0.3746
13998TIP3    H263410   1.506   6.625   0.154 -1.9460  1.1163  1.1539
13999TIP3   OH263411   3.771   5.743   3.079  0.0639  1.3939  0.3198
13999TIP3    H163412   3.716   5.718   3.004  1.1578  0.0084 -0.0751
13999TIP3    H263413   3.860   5.744   3.043  0.8564 -1.1940  1.9673
14000TIP3   OH263414   5.397   4.311  15.337  0.9744  0.4106 -0.0230
14000TIP3    H163415   5.467   4.372  15.316  1.1242  0.6707  1.2091
14000TIP3    H263416   5.373   4.272  15.252  0.3863  2.6535 -0.9620
14001TIP3   OH263417   0.370   6.714  11.727 -0.8483  0.3573 -0.1331
14001TIP3    H163418   0.424   6.785  11.694 -1.1835  0.6608 -0.0374
14001TIP3    H263419   0.428   6.664  11.785 -0.1342 -0.4215 -1.4638
14002TIP3   OH263420   0.672   0.402  15.221 -0.1321 -0.4718  0.1887
14002TIP3    H163421   0.709   0.343  15.155 -0.5669  0.9980 -1.4471
14002TIP3    H263422   0.709   0.487  15.199 -1.2810  0.2754  1.0865
14003TIP3   OH263423   3.356   2.095  12.142 -0.0385  0.4344 -0.1382
14003TIP3    H163424   3.376   2.126  12.054 -0.1207  1.6368  0.2485
14003TIP3    H263425   3.442   2.084  12.184 -0.0201  0.6983 -0.1016
14004TIP3   OH263426   3.702   5.949   3.936  0.0462 -0.0594 -0.1701
14004TIP3    H163427   3.635   5.989   3.880  0.4073 -1.1159 -1.3785
14004TIP3    H263428   3.656   5.880   3.984  0.3121 -1.0196 -1.2594
14005TIP3   OH263429   3.965   1.214  15.826  0.7795 -0.3805 -0.1534
14005TIP3    H163430   3.919   1.293  15.799  1.1261  0.9645  2.8710
14005TIP3    H263431   4.051   1.221  15.783  0.7329  0.8097 -0.0894
14006TIP3   OH263432   2.211   1.635   0.351  0.5165  0.5614  0.3254
14006TIP3    H163433   2.210   1.541   0.368 -0.6573  0.5851  0.4522
14006TIP3    H263434   2.297   1.651   0.312  0.2612 -0.7827 -0.8846
14007TIP3   OH263435   2.502   1.238  11.130  0.4270  0.4617 -0.1558
14007TIP3    H163436   2.571   1.302  11.147  2.4342 -1.8141  0.7719
14007TIP3    H263437   2.548   1.159  11.103 -1.8868 -0.8684 -0.4700
14008TIP3   OH263438   3.974   5.342  15.629 -0.4639  0.4385  0.1240
14008TIP3    H163439   4.060   5.300  15.623 -1.5558 -1.7897 -1.0126
14008TIP3    H263440   3.986   5.411  15.694  2.4240  0.8766 -0.7266
14009TIP3   OH263441   4.912   3.398  14.602 -0.4195 -0.3354  0.1228
14009TIP3    H163442   4.899   3.456  14.677 -0.2505  1.8397 -1.4441
14009TIP3    H263443   4.982   3.439  14.552 -0.1144 -2.0582 -0.9388
14010TIP3   OH263444   6.606   5.322  14.286  0.0547  0.3630 -0.1858
14010TIP3    H163445   6.587   5.253  14.223  0.6186 -0.5058  0.5738
14010TIP3    H263446   6.539   5.389  14.269 -0.3278 -0.2339 -1.1153
14011TIP3   OH263447   4.909   1.905   3.933  0.0501  0.0809 -0.1798
14011TIP3    H163448   4.901   1.810   3.942 -1.3051  0.1978  0.0892
14011TIP3    H263449   4.939   1.935   4.018 -0.7986  0.0041  0.1578
14012TIP3   OH263450   4.743   4.488   5.398  0.2847  0.2898  0.6021
14012TIP3    H163451   4.720   4.562   5.453 -0.4466  0.8097 -0.3712
14012TIP3    H263452   4.825   4.454   5.436  1.5385  2.5808  0.1245
14013TIP3   OH263453   2.172   6.703  15.046 -0.2081  0.2022 -0.5088
14013TIP3    H163454   2.173   6.775  14.983  0.5103 -0.6230 -1.4659
14013TIP3    H263455   2.148   6.745  15.129 -1.0882  1.3221 -1.2896
14014TIP3   OH263456   2.017   0.408   1.078 -0.0021 -0.5012 -0.1705
14014TIP3    H163457   2.104   0.369   1.064  0.4305  0.5109 -0.3803
14014TIP3    H263458   2.031   0.474   1.146 -0.9761 -1.5453  1.0955
14015TIP3   OH263459   4.338   3.306   5.410  0.2602 -0.2626 -0.5956
14015TIP3    H163460   4.307   3.216   5.412  0.9129 -0.4811  0.7693
14015TIP3    H263461   4.391   3.316   5.490  2.7535  0.4206 -2.1875
14016TIP3   OH263462   1.730   6.001  13.229  0.1207  0.0953 -0.5384
14016TIP3    H163463   1.686   6.075  13.186 -2.0798 -1.5879 -1.3522
14016TIP3    H263464   1.689   5.997  13.316 -0.8660 -1.0167 -1.0265
14017TIP3   OH263465   4.533   2.855  11.470  0.1452  0.4824 -0.2667
14017TIP3    H163466   4.495   2.943  11.479  0.6569  0.7545 -0.7290
14017TIP3    H263467   4.588   2.845  11.548  0.9158  0.9995 -0.7258
14018TIP3   OH263468   3.621   4.285  13.318  0.6260 -0.6261  0.0703
14018TIP3    H163469   3.546   4.262  13.264  1.4772 -0.2748 -1.3199
14018TIP3    H263470   3.618   4.222  13.391 -3.3898  1.9661  2.5280
14019TIP3   OH263471   2.419   3.165   0.423 -0.1947 -0.0233  0.0599
14019TIP3    H163472   2.432   3.171   0.518  1.2808  0.5242 -0.1495
14019TIP3    H263473   2.426   3.256   0.392  0.5197 -0.3205 -0.6928
14020TIP3   OH263474   0.685   6.052   5.393 -0.7259  0.5210  0.5889
14020TIP3    H163475   0.693   5.999   5.314 -0.1786  0.0440  0.9619
14020TIP3    H263476   0.602   6.098   5.382  0.5248  2.4702 -1.4642
14021TIP3   OH263477   3.315   1.058   0.169  0.5398  0.6659  0.0023
14021TIP3    H163478   3.356   0.995   0.227 -1.4646  0.6842  1.5551
14021TIP3    H263479   3.233   1.082   0.213 -0.5869  1.4745 -2.3335
14022TIP3   OH263480   3.779   5.909   6.348  0.2124 -0.1951 -0.1157
14022TIP3    H163481   3.861   5.945   6.314  0.4288  0.0105  0.5951
14022TIP3    H263482   3.721   5.985   6.357 -0.2171 -0.3959 -1.0180
14023TIP3   OH263483   2.769   4.561   2.187 -0.4879 -0.0390  0.1428
14023TIP3    H163484   2.811   4.476   2.198 -1.4811 -0.7045 -1.0149
14023TIP3    H263485   2.802   4.614   2.260  1.1659 -0.9891  0.1097
14024TIP3   OH263486   0.659   2.314  15.710 -0.0726  0.0898 -0.2870
14024TIP3    H163487   0.727   2.256  15.676 -0.2249  0.2877 -0.9480
14024TIP3    H263488   0.577   2.268  15.692 -0.1101 -0.2782  0.7622
14025TIP3   OH263489   0.154   1.532   0.553 -0.6090  0.4735  0.1748
14025TIP3    H163490   0.180   1.616   0.514 -1.9819  0.4178 -0.9364
14025TIP3    H263491   0.059   1.536   0.557 -0.5969 -0.2026  2.0791
14026TIP3   OH263492   2.939   3.888   4.735  0.6417 -0.2568 -0.0142
14026TIP3    H163493   2.929   3.792   4.737 -0.2856 -0.2165 -1.3667
14026TIP3    H263494   2.856   3.920   4.698  0.5294  1.1604  1.3558
14027TIP3   OH263495   5.086   2.557   2.389 -0.2740 -0.4284  0.1272
14027TIP3    H163496   5.140   2.554   2.310  0.1416 -0.1896  0.3995
14027TIP3    H263497   5.028   2.631   2.375  1.1117  0.8577  0.8706
14028TIP3   OH263498   5.992   5.668   4.230  0.0516  0.3944  0.0177
14028TIP3    H163499   5.921   5.655   4.167  0.1302 -2.2920  0.3576
14028TIP3    H263500   6.000   5.763   4.237 -2.3073  0.7967 -1.3525
14029TIP3   OH263501   4.699   4.519   1.018  0.5936 -0.2059  0.0618
14029TIP3    H163502   4.688   4.610   0.990  1.0855 -0.3745 -0.7194
14029TIP3    H263503   4.647   4.512   1.098 -1.8940 -0.0004 -1.4335
14030TIP3   OH263504   3.115   0.239   1.691 -0.1307 -0.0715  0.1214
14030TIP3    H163505   3.095   0.327   1.657  2.0497  0.2164 -0.5606
14030TIP3    H263506   3.057   0.229   1.767 -0.4664  1.9282  0.1857
14031TIP3   OH263507   3.989   5.346   0.384 -0.1829  0.0218  0.6193
14031TIP3    H163508   4.048   5.275   0.408  0.7228  0.1020 -1.1741
14031TIP3    H263509   3.946   5.315   0.304 -0.7083  0.9701  0.5221
14032TIP3   OH263510   3.380   5.375  13.732 -0.4559 -0.4745 -0.4420
14032TIP3    H163511   3.369   5.469  13.725 -1.2242 -0.5608 -0.4700
14032TIP3    H263512   3.297   5.338  13.701 -0.0230 -1.1730 -0.8102
14033TIP3   OH263513   0.725   1.192   0.470 -0.0623 -0.2193 -0.0758
14033TIP3    H163514   0.814   1.179   0.503 -0.4773 -0.6370  0.9372
14033TIP3    H263515   0.716   1.287   0.463  1.1866 -0.2069 -2.3267
14034TIP3   OH263516   6.048   0.483  16.722  0.1991 -0.0892 -0.0809
14034TIP3    H163517   6.125   0.539  16.713 -0.8861  1.3268 -1.0224
14034TIP3    H263518   6.011   0.478  16.633 -0.1154 -1.7850  0.1027
14035TIP3   OH263519   4.455   4.486  13.356  0.0415  0.1851 -0.3196
14035TIP3    H163520   4.470   4.577  13.382  1.2212 -0.0758 -0.0334
14035TIP3    H263521   4.542   4.446  13.357 -0.6754 -1.4655  1.4832
14036TIP3   OH263522   1.457   3.796  12.102  0.0104 -0.2487 -0.5616
14036TIP3    H163523   1.378   3.837  12.136  0.0590 -1.0720  0.5770
14036TIP3    H263524   1.428   3.711  12.068  0.3342 -0.3767 -0.5263
14037TIP3   OH263525   1.598   4.780  11.375  0.4566  0.6253 -0.2251
14037TIP3    H163526   1.590   4.711  11.309  1.4662  1.4234 -1.2090
14037TIP3    H263527   1.514   4.825  11.373 -1.0417 -1.7781  1.8962
14038TIP3   OH263528   2.725   4.879  13.498  0.5677 -0.0906 -0.9261
14038TIP3    H163529   2.793   4.830  13.544  0.8513  1.0401 -0.1120
14038TIP3    H263530   2.759   4.888  13.409  3.1049  3.2145  0.1830
14039TIP3   OH263531   1.203   1.514   1.573 -1.0436 -0.1828 -0.1631
14039TIP3    H163532   1.179   1.526   1.481 -2.2858  1.9076  0.3473
14039TIP3    H263533   1.239   1.599   1.599  0.4385 -1.1212  0.9880
14040TIP3   OH263534   3.339   4.717   4.063 -0.0161 -0.0884  0.4162
14040TIP3    H163535   3.418   4.769   4.047  0.8960 -1.6976 -0.5051
14040TIP3    H263536   3.268   4.771   4.028  0.9052  0.4859 -0.6384
14041TIP3   OH263537   1.467   5.367  11.555 -0.0055 -0.2231 -0.4899
14041TIP3    H163538   1.549   5.331  11.589 -0.0613  0.5381  0.4883
14041TIP3    H263539   1.416   5.290  11.530 -0.0008 -0.8352  1.2598
14042TIP3   OH263540   3.067   5.589  12.545  0.0278 -0.2897  0.5708
14042TIP3    H163541   3.014   5.642  12.604  0.3229  1.2922 -0.5099
14042TIP3    H263542   3.050   5.626  12.458  0.9283 -1.4148 -0.1088
14043TIP3   OH263543   4.965   6.617   2.172 -0.7635 -0.0866  0.0582
14043TIP3    H163544   4.905   6.616   2.098  0.5076  3.2174 -1.2234
14043TIP3    H263545   5.052   6.607   2.133 -0.1183  1.0584  1.1334
14044TIP3   OH263546   3.226   1.124   1.961  0.2311 -0.4733 -0.6053
14044TIP3    H163547   3.311   1.142   2.000 -1.1294  1.7716  1.5661
14044TIP3    H263548   3.171   1.097   2.034 -1.2680 -0.6425 -1.7489
14045TIP3   OH263549   4.622   4.944  11.004 -0.5828  0.1121  0.6021
14045TIP3    H163550   4.626   4.854  10.971 -0.1653  0.1041  0.6758
14045TIP3    H263551   4.611   4.998  10.926 -0.7011  0.0066  0.5461
14046TIP3   OH263552   3.219   2.041   1.004  0.1625 -0.0318 -0.3691
14046TIP3    H163553   3.143   1.998   0.963 -0.0900  0.1593 -0.1079
14046TIP3    H263554   3.250   2.102   0.936  0.6766 -0.7976 -0.8292
14047TIP3   OH263555   1.965   4.182  10.851  0.1897 -0.5422  0.4615
14047TIP3    H163556   1.935   4.154  10.938  1.2122 -0.8118  0.7399
14047TIP3    H263557   1.953   4.105  10.796 -0.3678 -0.4013  0.3785
14048TIP3   OH263558   3.215   5.600   2.491 -0.9703 -0.9084 -0.3292
14048TIP3    H163559   3.291   5.542   2.482 -0.1916  0.1718 -1.0862
14048TIP3    H263560   3.224   5.638   2.578 -0.2305 -0.2660 -0.6703
14049TIP3   OH263561   6.716   4.037  15.122 -0.1027  0.2738 -0.4533
14049TIP3    H163562   6.675   4.062  15.039 -0.6716  0.3840 -0.1409
14049TIP3    H263563   6.791   3.983  15.096  0.9131  1.9238 -1.1355
14050TIP3   OH263564   0.922   3.149  15.818 -0.4047 -0.1690 -1.1047
14050TIP3    H163565   0.926   3.236  15.858 -0.2206 -0.3548 -0.7128
14050TIP3    H263566   0.895   3.091  15.889  2.3749 -0.9264 -0.5115
14051TIP3   OH263567   5.069   3.361  13.932 -0.3005 -0.0197 -1.2168
14051TIP3    H163568   5.007   3.289  13.923 -1.5021  0.3825  2.3230
14051TIP3    H263569   5.015   3.439  13.942  0.9218  1.0066 -2.2950
14052TIP3   OH263570   3.016   6.688  15.638 -0.1372  0.1030  0.0462
14052TIP3    H163571   3.108   6.702  15.658  0.0360 -2.0936  1.1259
14052TIP3    H263572   3.016   6.609  15.583 -1.3406  0.3890 -0.3895
14053TIP3   OH263573   4.338   1.105   2.474  0.1729 -0.0319  0.4335
14053TIP3    H163574   4.342   1.037   2.408  0.4693 -0.5389  0.9644
14053TIP3    H263575   4.306   1.061   2.553  2.0487  0.0379  1.2807
14054TIP3   OH263576   6.710   2.392  13.508  0.1497 -0.3448 -0.0149
14054TIP3    H163577   6.773   2.320  13.512  1.5938  0.7309 -2.0360
14054TIP3    H263578   6.759   2.468  13.539 -0.4659  0.3040 -0.6056
14055TIP3   OH263579   0.906   0.886   2.800  0.8454 -0.6830  0.0940
14055TIP3    H163580   0.874   0.820   2.739 -1.6788 -0.0088  0.5801
14055TIP3    H263581   0.992   0.854   2.827  1.1224 -2.0651 -2.1558
14056TIP3   OH263582   4.828   5.646   1.336  0.2278  0.1956  0.2084
14056TIP3    H163583   4.750   5.672   1.286 -0.2594 -0.8249  0.3963
14056TIP3    H263584   4.895   5.709   1.310 -0.7475  1.3094  0.2939
14057TIP3   OH263585   4.477   0.223   5.799  0.1420 -0.0064 -0.0293
14057TIP3    H163586   4.453   0.189   5.885 -0.4429 -1.5759 -0.7864
14057TIP3    H263587   4.494   0.316   5.815  0.9267 -0.4274  1.9466
14058TIP3   OH263588   2.077   6.273  12.014  0.2938  0.1452  0.0158
14058TIP3    H163589   2.170   6.273  11.991  1.0897  3.2333  2.5589
14058TIP3    H263590   2.066   6.196  12.070  1.4898  0.1988  0.3326
14059TIP3   OH263591   3.292   0.344  15.076  0.3889  0.5092  0.0355
14059TIP3    H163592   3.217   0.331  15.135 -0.7523  1.0076 -1.2379
14059TIP3    H263593   3.329   0.428  15.101 -0.2857  0.8680 -0.1422
14060TIP3   OH263594   4.244   0.392  14.741 -0.2950  0.3234  0.1522
14060TIP3    H163595   4.217   0.460  14.803 -0.1979  0.1184  0.4241
14060TIP3    H263596   4.337   0.377  14.761  0.9836  3.1817 -2.7723
14061TIP3   OH263597   0.394   0.391   2.443 -0.0505 -0.3618  0.3940
14061TIP3    H163598   0.380   0.407   2.350 -1.2489 -1.6292  0.3295
14061TIP3    H263599   0.389   0.478   2.484  0.7042  0.2292 -0.7236
14062TIP3   OH263600   2.001   2.352  13.410 -0.6231 -1.1738  0.1593
14062TIP3    H163601   1.918   2.380  13.371 -0.6867 -0.8915  0.4877
14062TIP3    H263602   2.050   2.312  13.337 -0.7401 -0.6575 -0.2098
14063TIP3   OH263603   6.152   0.017  12.981 -0.2199  0.0683  0.1839
14063TIP3    H163604   6.240   0.048  13.003  0.4424 -2.2487  1.0224
14063TIP3    H263605   6.165  -0.051  12.916 -1.3189 -0.7754  0.8091
14064TIP3   OH263606   6.671   6.705  15.483  0.2016 -0.3117  0.2208
14064TIP3    H163607   6.723   6.733  15.557 -2.1594  0.4188  1.7335
14064TIP3    H263608   6.698   6.615  15.466  1.6732 -0.0620  1.1167
14065TIP3   OH263609   0.615   3.242   4.334  0.3451 -0.1385  0.1218
14065TIP3    H163610   0.659   3.286   4.261 -0.2198  0.6079  0.2218
14065TIP3    H263611   0.686   3.200   4.383  0.8993  0.6386  0.0055
14066TIP3   OH263612   6.047   5.141   6.138 -0.3069  0.2428 -0.2564
14066TIP3    H163613   5.974   5.163   6.081  1.5715  1.5449 -2.3151
14066TIP3    H263614   6.075   5.054   6.108  1.6830  1.5749 -2.6059
14067TIP3   OH263615   0.278   5.966   1.392 -0.4639 -0.1953  0.6810
14067TIP3    H163616   0.339   6.039   1.397 -0.0380 -0.4758 -0.1960
14067TIP3    H263617   0.307   5.905   1.459 -0.4071  0.1308  0.9538
14068TIP3   OH263618   3.583   0.489   2.273  0.4841 -0.0825 -0.1850
14068TIP3    H163619   3.619   0.401   2.286  0.6344  0.1332  0.9405
14068TIP3    H263620   3.650   0.535   2.222  0.6056 -0.4713 -0.3833
14069TIP3   OH263621   0.156   0.606  13.112 -0.0813 -0.0129  0.4483
14069TIP3    H163622   0.242   0.575  13.140  0.4563  0.0326 -1.0750
14069TIP3    H263623   0.117   0.643  13.191  2.0457  1.6544  0.7984
14070TIP3   OH263624   4.920   1.773  15.314 -0.3546  0.3343 -0.5859
14070TIP3    H163625   4.841   1.769  15.260 -2.1188  2.1974  1.6572
14070TIP3    H263626   4.893   1.736  15.398  0.7742  2.1081  0.6145
14071TIP3   OH263627   6.325   1.937  13.896  0.7858 -0.0720  0.5886
14071TIP3    H163628   6.254   1.896  13.945  1.3245 -0.7407  0.8196
14071TIP3    H263629   6.382   1.864  13.869  1.7771  0.5071  1.0370
14072TIP3   OH263630   5.468   3.794  11.576  0.6066 -0.1657  0.3732
14072TIP3    H163631   5.425   3.773  11.493  0.1220  1.4032  0.1892
14072TIP3    H263632   5.398   3.831  11.630  1.3794  0.8604  0.6879
14073TIP3   OH263633   2.530   1.380   3.892  0.1787 -0.3488 -0.0329
14073TIP3    H163634   2.446   1.353   3.853 -0.1158  0.9012 -0.2944
14073TIP3    H263635   2.515   1.377   3.986  0.9334 -3.5276  0.1205
14074TIP3   OH263636   4.725   2.570   0.538 -0.0304 -0.0649  0.6195
14074TIP3    H163637   4.705   2.592   0.447  0.8592  0.6711  0.5849
14074TIP3    H263638   4.651   2.605   0.589 -0.9521 -1.2201  0.1284
14075TIP3   OH263639   0.356   4.076   5.044 -0.1945  0.3312 -0.0703
14075TIP3    H163640   0.384   3.999   4.993 -0.1390 -0.1578  0.6825
14075TIP3    H263641   0.400   4.149   5.002 -0.8175  0.0539 -1.2545
14076TIP3   OH263642   3.448   1.799   3.525 -0.0992 -0.3280 -0.4016
14076TIP3    H163643   3.385   1.739   3.564  1.0020 -1.1389  0.1738
14076TIP3    H263644   3.503   1.744   3.469  1.4720 -0.0722  0.7879
14077TIP3   OH263645   3.841   6.304   0.178  0.2851  0.1194  0.0248
14077TIP3    H163646   3.821   6.211   0.180  0.9026 -0.0075  1.5244
14077TIP3    H263647   3.839   6.327   0.085 -0.1324 -1.3234 -0.3434
14078TIP3   OH263648   5.417   6.664  10.444 -0.0441 -0.2956  0.4223
14078TIP3    H163649   5.397   6.577  10.408  0.5968 -0.2416 -0.0763
14078TIP3    H263650   5.485   6.648  10.510  0.7470 -0.0669 -0.3273
14079TIP3   OH263651   3.472   4.823  11.065 -0.7726  0.1793  0.5164
14079TIP3    H163652   3.534   4.765  11.019 -2.2498 -0.6144 -0.5421
14079TIP3    H263653   3.485   4.909  11.024 -1.1170 -0.2212 -0.4662
14080TIP3   OH263654   5.555   5.443   3.149  0.1684 -0.7938 -0.6709
14080TIP3    H163655   5.512   5.437   3.063 -0.4568  0.7058 -0.4875
14080TIP3    H263656   5.516   5.371   3.200 -0.8339 -0.5491 -1.0648
14081TIP3   OH263657   1.946   6.217   6.580  0.3869  0.3693 -0.1365
14081TIP3    H163658   1.926   6.131   6.542  2.3555 -0.1668 -0.0928
14081TIP3    H263659   1.908   6.213   6.668  2.0778 -1.2753  0.5944
14082TIP3   OH263660   5.395   6.625   4.016  0.6981 -0.5344  0.3012
14082TIP3    H163661   5.453   6.604   4.089 -0.2324 -1.7093  0.7462
14082TIP3    H263662   5.422   6.565   3.947  0.8039 -0.2430  0.0895
14083TIP3   OH263663   2.367   1.072   5.215 -0.8870 -0.1941  0.1292
14083TIP3    H163664   2.407   1.002   5.267 -1.0891  0.1991  0.8351
14083TIP3    H263665   2.422   1.148   5.232 -2.3145  0.5590  1.7351
14084TIP3   OH263666   4.072   0.602   3.457  0.1427  0.1772  0.2587
14084TIP3    H163667   3.990   0.650   3.465  0.8994  1.3097  1.8215
14084TIP3    H263668   4.097   0.581   3.547  1.2627 -0.6724 -0.2185
14085TIP3   OH263669   2.612   0.672  16.844 -0.4497  0.0456  0.0310
14085TIP3    H163670   2.611   0.578  16.831 -0.9916  0.0721 -0.1671
14085TIP3    H263671   2.609   0.709  16.755  1.0802  0.2603  0.0515
14086TIP3   OH263672   2.091   0.583  16.990 -0.1226 -0.4353  0.3284
14086TIP3    H163673   2.132   0.525  16.926  1.3650  0.6561  0.2579
14086TIP3    H263674   2.067   0.525  17.063  1.6936 -1.1166  0.4404
14087TIP3   OH263675   5.617   3.578  16.308  0.2580  0.1798 -0.1338
14087TIP3    H163676   5.623   3.650  16.371 -1.4817 -0.6727  1.1142
14087TIP3    H263677   5.535   3.533  16.331  0.4609 -1.2192 -1.9156
14088TIP3   OH263678   5.036   1.756  13.018  0.4126  0.5001 -0.4776
14088TIP3    H163679   5.036   1.765  13.113  1.6846 -0.2367 -0.3843
14088TIP3    H263680   5.124   1.723  12.997 -0.1625 -0.2612 -1.8119
14089TIP3   OH263681   0.558   4.752   0.011  0.1889  0.0188 -0.1548
14089TIP3    H163682   0.550   4.744   0.106  0.5313  0.9042 -0.0498
14089TIP3    H263683   0.571   4.845  -0.005 -4.1121  0.6301 -1.3652
14090TIP3   OH263684   5.490   1.192  16.259 -0.0639 -0.0789 -0.5743
14090TIP3    H163685   5.523   1.126  16.199  1.7553 -3.4059  3.5763
14090TIP3    H263686   5.568   1.233  16.296 -0.9989  0.4150  0.9652
14091TIP3   OH263687   0.055   4.240  12.863 -0.2756 -0.8322  0.1537
14091TIP3    H163688   0.101   4.294  12.928 -0.3858  0.1330 -0.5339
14091TIP3    H263689   0.057   4.152  12.899  1.4662 -0.6893  0.4949
14092TIP3   OH263690   3.623   3.359   6.174 -0.1515  0.1403  0.2151
14092TIP3    H163691   3.654   3.440   6.135  1.8031  0.3022  1.9412
14092TIP3    H263692   3.676   3.348   6.252 -0.2928 -2.8726 -0.0026
14093TIP3   OH263693   4.088   3.068  11.586 -0.1200  0.1732 -0.1144
14093TIP3    H163694   4.075   3.150  11.537  1.6036  1.1843  1.0531
14093TIP3    H263695   4.013   3.064  11.645 -2.0329 -0.8673 -2.4235
14094TIP3   OH263696   1.217   4.304   1.717  0.2387 -1.2197 -0.5246
14094TIP3    H163697   1.263   4.222   1.704 -1.8447 -2.1606 -2.7466
14094TIP3    H263698   1.194   4.333   1.629 -2.9140 -0.6159  0.3517
14095TIP3   OH263699   4.926   6.572  13.062 -0.3985  0.0171  0.4784
14095TIP3    H163700   4.963   6.545  12.978 -1.0211 -0.0987  0.2373
14095TIP3    H263701   4.842   6.612  13.039 -0.9404 -0.7489  1.1168
14096TIP3   OH263702   1.774   1.084   5.034  0.7515 -0.3769  0.4893
14096TIP3    H163703   1.816   1.168   5.018  1.6263 -0.9435 -0.2732
14096TIP3    H263704   1.814   1.024   4.971  0.6938 -1.5528  1.5337
14097TIP3   OH263705   1.186   4.373  15.331 -0.0819  0.7327 -1.1706
14097TIP3    H163706   1.180   4.303  15.395 -0.0940 -0.2824 -2.2532
14097TIP3    H263707   1.277   4.371  15.301 -0.0896  1.1640 -1.2355
14098TIP3   OH263708   3.093   2.592  16.133  0.6768 -0.2359 -0.0005
14098TIP3    H163709   3.077   2.669  16.188 -0.7102 -0.3040 -0.2671
14098TIP3    H263710   3.008   2.548  16.128  1.7102 -2.5552  1.2781
14099TIP3   OH263711   6.046   3.504  13.908 -0.4206  0.0726 -0.4229
14099TIP3    H163712   5.958   3.524  13.940 -1.1190 -0.3736 -2.0025
14099TIP3    H263713   6.090   3.589  13.903 -0.8948  0.3441 -0.0684
14100TIP3   OH263714   6.176   1.518   3.442  0.5096 -0.0444  0.5050
14100TIP3    H163715   6.100   1.577   3.437 -0.6871 -1.5315  0.5593
14100TIP3    H263716   6.248   1.569   3.405 -0.5198  1.3790  0.3657
14101TIP3   OH263717   3.823   1.171  12.064 -0.1440 -0.3571  0.3701
14101TIP3    H163718   3.796   1.144  12.152 -1.6559 -0.3096 -0.0492
14101TIP3    H263719   3.850   1.263  12.074  0.7806 -0.6841  0.9765
14102TIP3   OH263720   3.578   6.385  13.365  0.6503  1.1198  0.2049
14102TIP3    H163721   3.619   6.396  13.451 -0.6988 -3.0336  1.6343
14102TIP3    H263722   3.627   6.314  13.323  0.3187  2.0375 -1.8692
14103TIP3   OH263723   6.162   5.343   1.728  0.3910 -0.1866 -0.1373
14103TIP3    H163724   6.094   5.405   1.752  1.1526  0.9177 -0.7079
14103TIP3    H263725   6.173   5.355   1.633  1.5317 -0.1404 -0.0220
14104TIP3   OH263726   3.147   4.448   2.629  0.0679 -0.3801 -0.0962
14104TIP3    H163727   3.131   4.523   2.687 -0.3813 -1.2030  0.8742
14104TIP3    H263728   3.226   4.471   2.580 -0.6831  1.2120 -0.6338
14105TIP3   OH263729   3.628   1.140  14.137 -0.0394 -0.0207 -0.4576
14105TIP3    H163730   3.709   1.096  14.162  0.6044  0.5876 -1.4204
14105TIP3    H263731   3.560   1.095  14.188  0.8917 -0.5075  0.4015
14106TIP3   OH263732   0.567   2.508  13.011 -0.2783  0.6779 -0.0896
14106TIP3    H163733   0.612   2.582  13.050  0.6949 -0.5866  1.3162
14106TIP3    H263734   0.619   2.485  12.934 -0.2772  1.0990 -0.2163
14107TIP3   OH263735   3.369   4.916   4.866  0.0404  0.1528 -0.4724
14107TIP3    H163736   3.306   4.973   4.823  0.4053 -0.9290 -2.5404
14107TIP3    H263737   3.347   4.922   4.959 -1.3881  1.8389 -0.8757
14108TIP3   OH263738   5.876   6.030  13.925 -0.0387  0.0732 -0.1911
14108TIP3    H163739   5.878   6.026  13.829 -0.0740 -0.4600 -0.1730
14108TIP3    H263740   5.967   6.020  13.952 -0.1020 -0.4203 -0.1508
14109TIP3   OH263741   5.082   0.900   1.784  0.2351  0.4918  0.3272
14109TIP3    H163742   5.000   0.898   1.833  0.5553  0.7870  0.8872
14109TIP3    H263743   5.147   0.927   1.848  0.4780  2.0047 -0.5060
14110TIP3   OH263744   5.142   0.068   0.634  0.7046 -0.4481 -0.1879
14110TIP3    H163745   5.150   0.017   0.715  2.2633 -0.2761 -0.2030
14110TIP3    H263746   5.097   0.148   0.661 -2.0741 -1.9019 -0.2263
14111TIP3   OH263747   3.930   1.026  11.772 -0.5557  0.4147  0.4363
14111TIP3    H163748   3.861   1.087  11.746 -3.0113 -2.0123  0.8178
14111TIP3    H263749   3.979   1.073  11.840 -2.5451  1.8449  0.9607
14112TIP3   OH263750   3.659   2.016  14.901  0.4666  0.3764 -0.1695
14112TIP3    H163751   3.565   2.023  14.913  0.7671  1.3918  2.1024
14112TIP3    H263752   3.686   2.102  14.867  0.5034 -0.2147 -1.7224
14113TIP3   OH263753   0.265   4.476   5.595  0.1402 -0.0882  0.3768
14113TIP3    H163754   0.213   4.556   5.599 -1.1699 -0.9689  1.6870
14113TIP3    H263755   0.201   4.405   5.586  1.1588 -1.1230  0.9252
14114TIP3   OH263756   5.143   6.722   4.365  0.2467 -0.4333  0.0810
14114TIP3    H163757   5.081   6.785   4.328  1.7092  0.3671 -1.1496
14114TIP3    H263758   5.208   6.777   4.410  1.1418 -1.1027 -0.3749
14115TIP3   OH263759   2.931   1.175   1.099 -0.5435  0.0673  0.1641
14115TIP3    H163760   2.865   1.154   1.166 -0.8212 -1.2978 -0.5078
14115TIP3    H263761   2.880   1.193   1.020 -0.1954  1.2734  0.1846
14116TIP3   OH263762   0.944   6.789   1.416 -0.2184 -0.3082  0.3782
14116TIP3    H163763   0.939   6.701   1.454 -0.6512 -0.1571  0.6852
14116TIP3    H263764   1.031   6.821   1.439 -0.4601 -0.2358  1.2315
14117TIP3   OH263765   2.240   6.682   4.428  1.0005  0.3386 -0.5558
14117TIP3    H163766   2.219   6.766   4.387 -0.8432  0.6635  0.9113
14117TIP3    H263767   2.229   6.618   4.358  1.7403  1.2302 -1.5178
14118TIP3   OH263768   4.855   1.039  16.837 -0.0430 -0.7334 -0.2844
14118TIP3    H163769   4.920   0.987  16.791 -0.1816 -1.0427 -0.1348
14118TIP3    H263770   4.904   1.116  16.867 -0.2191  0.0688 -1.9580
14119TIP3   OH263771   4.364   1.507  11.936  0.0176 -0.2511  0.1140
14119TIP3    H163772   4.287   1.527  11.884 -2.3217 -0.3502  3.2451
14119TIP3    H263773   4.341   1.428  11.985  3.1443 -1.8035 -0.6165
14120TIP3   OH263774   1.368   0.754  13.013  0.2747 -0.4360 -0.1436
14120TIP3    H163775   1.360   0.658  13.019  1.7691 -0.6360 -0.9082
14120TIP3    H263776   1.432   0.777  13.079  1.6573 -0.2693 -1.4944
14121TIP3   OH263777   5.410   2.034  12.738  0.2225  0.2139  0.2787
14121TIP3    H163778   5.417   2.060  12.829 -0.5688  0.4063  0.2843
14121TIP3    H263779   5.398   1.939  12.740 -1.0237  0.3590  0.4386
14122TIP3   OH263780   1.499   5.760   5.892 -0.1418  0.1802  0.4907
14122TIP3    H163781   1.476   5.682   5.842 -0.7231  0.4308  0.3594
14122TIP3    H263782   1.437   5.762   5.965 -2.0689  2.0471 -1.0638
14123TIP3   OH263783   0.629   1.255   3.369  0.1112  0.0628  0.8714
14123TIP3    H163784   0.702   1.296   3.323 -1.0980  0.6828 -0.5583
14123TIP3    H263785   0.606   1.178   3.316 -0.2795 -0.1308  1.3080
14124TIP3   OH263786   5.905   1.187   0.211 -0.0018  0.1266  0.3590
14124TIP3    H163787   5.959   1.201   0.289  0.9344 -0.3838 -0.1839
14124TIP3    H263788   5.938   1.249   0.147  2.1862 -2.3026 -1.0621
14125TIP3   OH263789   1.043   5.642   2.174 -0.2609 -0.7626 -0.1286
14125TIP3    H163790   1.115   5.582   2.154  1.1913  0.8584 -0.0194
14125TIP3    H263791   1.010   5.670   2.089  1.1815  0.6504 -0.2866
14126TIP3   OH263792   2.207   3.846  16.412 -0.0996  0.1294  0.1744
14126TIP3    H163793   2.238   3.766  16.454  1.5182 -0.7024 -2.3441
14126TIP3    H263794   2.278   3.909  16.425  0.7190 -0.3355 -1.6939
14127TIP3   OH263795   4.191   4.561  13.069 -0.4768  0.5415 -0.3300
14127TIP3    H163796   4.113   4.599  13.029 -0.0995  1.0471 -0.5961
14127TIP3    H263797   4.264   4.614  13.036 -0.0166  0.0768 -0.0903
14128TIP3   OH263798   2.286   5.392   0.266 -0.3486 -0.1786 -0.2607
14128TIP3    H163799   2.355   5.433   0.213  0.9121  0.5285  1.8123
14128TIP3    H263800   2.324   5.310   0.296 -0.7755 -0.2488  0.1025
14129TIP3   OH263801   2.362   1.723  11.390  0.6931  0.0739  0.2601
14129TIP3    H163802   2.393   1.709  11.300  0.5558 -0.9217  0.3606
14129TIP3    H263803   2.299   1.653  11.405  1.2804 -0.2285  1.3980
14130TIP3   OH263804   2.390   1.129   2.042  0.6293  0.2786 -0.3713
14130TIP3    H163805   2.419   1.063   2.105  0.5666 -0.1035 -0.7384
14130TIP3    H263806   2.470   1.174   2.015  0.6955  0.2185 -0.2758
14131TIP3   OH263807   2.801   1.555   6.339  0.3298 -0.1368 -0.0880
14131TIP3    H163808   2.713   1.518   6.335 -0.8361  2.4190  0.2829
14131TIP3    H263809   2.805   1.599   6.424  2.1703 -0.5859  0.1069
14132TIP3   OH263810   5.618   3.789   4.650 -0.2172  0.5411 -0.1087
14132TIP3    H163811   5.627   3.855   4.581 -0.3348 -1.4590 -2.1602
14132TIP3    H263812   5.535   3.811   4.692 -0.7734  1.1176 -1.4277
14133TIP3   OH263813   0.836   4.548  14.038  0.1915  0.3751 -0.5215
14133TIP3    H163814   0.794   4.539  13.952 -0.8884 -0.7189  0.0797
14133TIP3    H263815   0.832   4.460  14.075 -0.0341  0.9777  0.9361
14134TIP3   OH263816   5.749   1.802  16.839 -0.1340 -0.1017 -0.3300
14134TIP3    H163817   5.785   1.883  16.803  2.4512 -0.6164  0.8494
14134TIP3    H263818   5.706   1.760  16.766 -2.0836  2.5692 -0.8501
14135TIP3   OH263819   1.292   3.644  14.632  0.0105  0.1408 -0.0212
14135TIP3    H163820   1.247   3.580  14.577  2.7220 -0.9770 -1.1283
14135TIP3    H263821   1.260   3.729  14.601 -2.0452 -0.5688 -0.0064
14136TIP3   OH263822   1.168   2.925   4.285 -0.2026 -0.1478 -0.2892
14136TIP3    H163823   1.201   3.003   4.329 -0.7806 -0.7208  1.2512
14136TIP3    H263824   1.140   2.956   4.199  1.3857  0.9354 -0.4443
14137TIP3   OH263825   6.247   3.410   1.008 -0.2908 -0.0988  0.1926
14137TIP3    H163826   6.156   3.431   1.028 -0.4036  0.5545 -0.9240
14137TIP3    H263827   6.287   3.393   1.093 -1.2889  0.3031  0.7593
14138TIP3   OH263828   2.823   4.788   0.961 -0.0448  0.4994 -0.0568
14138TIP3    H163829   2.865   4.759   0.880 -1.2398 -1.7777  0.0343
14138TIP3    H263830   2.729   4.774   0.945 -0.5600  2.7141  0.7384
14139TIP3   OH263831   6.737   1.071  16.072  0.1778 -0.5491  0.5907
14139TIP3    H163832   6.773   1.079  15.984 -0.3240 -2.3179  0.1818
14139TIP3    H263833   6.802   1.112  16.129  1.9395 -1.9404 -0.3216
14140TIP3   OH263834   3.999   1.644  11.962 -0.6787 -0.0521 -0.5088
14140TIP3    H163835   4.032   1.586  11.894  0.2394  1.2878 -1.2392
14140TIP3    H263836   3.959   1.716  11.914 -0.3322  0.7331  0.3686
14141TIP3   OH263837   1.492   6.357  14.461 -0.1565  0.1580 -0.0585
14141TIP3    H163838   1.558   6.412  14.503 -0.3045  0.5917 -0.3856
14141TIP3    H263839   1.509   6.366  14.367 -0.2668 -0.2551 -0.1235
14142TIP3   OH263840   4.779   0.833   3.571 -0.0883 -0.5775  0.3225
14142TIP3    H163841   4.775   0.837   3.667 -0.9352  0.4798  0.2643
14142TIP3    H263842   4.808   0.920   3.544 -2.3522  0.0199 -0.4448
14143TIP3   OH263843   5.681   2.300  15.998 -0.0810 -0.4108  0.1102
14143TIP3    H163844   5.727   2.304  16.081  0.7889  1.7349 -0.3928
14143TIP3    H263845   5.750   2.288  15.932 -0.4906  0.1220 -0.4390
14144TIP3   OH263846   2.926   3.571   4.293  0.1665 -0.0167  0.2649
14144TIP3    H163847   2.848   3.594   4.344 -1.0948  1.9538 -2.3203
14144TIP3    H263848   2.932   3.475   4.300 -2.0169 -0.1411  1.2114
14145TIP3   OH263849   1.411   0.543   3.474  0.4692  0.1944  0.0632
14145TIP3    H163850   1.382   0.631   3.452 -0.2331 -0.0621 -0.0642
14145TIP3    H263851   1.500   0.537   3.439  1.1341  1.3766  1.4515
14146TIP3   OH263852   0.018   4.579  13.075  0.8271 -0.4361 -0.0470
14146TIP3    H163853   0.012   4.645  13.144 -1.0934 -1.4107  0.7953
14146TIP3    H263854   0.003   4.628  12.993  1.8194  0.5163  0.3167
14147TIP3   OH263855   5.878   5.480  12.578 -0.3113  0.1724 -0.3731
14147TIP3    H163856   5.860   5.513  12.490 -1.2257 -0.7356 -0.5493
14147TIP3    H263857   5.974   5.481  12.586 -0.2834  2.4325 -0.5048
14148TIP3   OH263858   5.478   6.190   1.373  0.0698  0.3595  0.1395
14148TIP3    H163859   5.505   6.139   1.450 -1.1022 -1.5143 -0.6156
14148TIP3    H263860   5.383   6.192   1.379  0.0589  1.7504 -0.3361
14149TIP3   OH263861   3.653   2.693  12.898 -0.0200 -0.1364 -0.4171
14149TIP3    H163862   3.628   2.628  12.831 -0.0957 -0.0934 -0.4305
14149TIP3    H263863   3.603   2.668  12.975  0.7310 -0.7229 -0.0989
14150TIP3   OH263864   4.335   4.095   3.466  0.2902  0.0524  0.1720
14150TIP3    H163865   4.343   4.061   3.555 -0.4573  2.1223  1.1181
14150TIP3    H263866   4.389   4.174   3.466 -0.4219  0.5610 -0.9319
14151TIP3   OH263867   3.899   6.447  13.089 -0.0138  0.2440 -0.6090
14151TIP3    H163868   3.968   6.447  13.022  1.5613  0.1993  0.9390
14151TIP3    H263869   3.897   6.357  13.121  1.4529  0.8945  1.5042
14152TIP3   OH263870   6.102   6.711  12.107 -0.2170 -1.0030  0.4096
14152TIP3    H163871   6.066   6.630  12.070  0.0287 -1.3796  0.9962
14152TIP3    H263872   6.189   6.719  12.068  0.2263 -1.6446  1.2545
14153TIP3   OH263873   1.943   3.639  14.719  0.2136 -0.2336 -0.1482
14153TIP3    H163874   2.009   3.675  14.661  0.4277 -1.0406 -0.4286
14153TIP3    H263875   1.888   3.713  14.743  0.9761  0.3714 -0.2397
14154TIP3   OH263876   0.205   2.050  13.180  0.2594 -0.2744 -0.6128
14154TIP3    H163877   0.215   2.058  13.275 -0.4807 -2.0178 -0.3617
14154TIP3    H263878   0.277   1.994  13.153 -0.2738 -0.8433 -0.8803
14155TIP3   OH263879   2.560   6.638   1.486 -0.7812  0.3282 -0.2179
14155TIP3    H163880   2.487   6.651   1.427 -1.1065  0.8893  0.3003
14155TIP3    H263881   2.623   6.706   1.463 -1.6136  1.6105  1.1499
14156TIP3   OH263882   4.251   1.879   0.161 -1.0444 -0.3923  0.1523
14156TIP3    H163883   4.315   1.809   0.151 -0.4728  0.0322  0.7351
14156TIP3    H263884   4.302   1.955   0.188 -1.8515 -0.2036  1.2239
14157TIP3   OH263885   2.436   3.894  11.513  0.3279 -0.2271 -0.6684
14157TIP3    H163886   2.487   3.963  11.555  0.3405 -0.9786  0.6141
14157TIP3    H263887   2.484   3.873  11.432  1.8355 -0.6163  0.2937
14158TIP3   OH263888   5.157   2.661   4.727 -0.8791 -0.1760 -0.5088
14158TIP3    H163889   5.242   2.618   4.734 -0.8592 -0.5314 -2.2921
14158TIP3    H263890   5.168   2.744   4.772  0.0997 -0.6539  0.1636
14159TIP3   OH263891   2.491   1.865   2.388 -0.6273 -0.2146 -0.0745
14159TIP3    H163892   2.469   1.806   2.461 -1.1437  0.5850  0.4328
14159TIP3    H263893   2.407   1.885   2.348 -0.5669  0.8625  0.3042
14160TIP3   OH263894   4.554   5.865   2.290  0.2521  0.1364 -0.5142
14160TIP3    H163895   4.632   5.874   2.237  0.4611 -0.6846 -0.3553
14160TIP3    H263896   4.549   5.772   2.312  0.7739  0.5783  1.7942
14161TIP3   OH263897   2.649   6.603   3.932 -0.2489 -0.3581  0.0988
14161TIP3    H163898   2.621   6.687   3.898  2.4569  0.5158 -0.2573
14161TIP3    H263899   2.691   6.623   4.016  1.6299 -1.0859 -0.6034
14162TIP3   OH263900   3.817   0.502  14.725 -0.0719 -0.1628 -0.0163
14162TIP3    H163901   3.731   0.543  14.723  0.1286  0.2364 -0.5930
14162TIP3    H263902   3.823   0.462  14.812 -0.7070  0.0807  0.1405
14163TIP3   OH263903   6.231   2.461  11.761  0.3857  0.1223 -0.0388
14163TIP3    H163904   6.158   2.508  11.800 -0.8051 -1.3127 -0.4688
14163TIP3    H263905   6.288   2.439  11.835 -0.8814 -0.8948  0.6685
14164TIP3   OH263906   0.582   1.945   0.651 -0.2344  0.9653 -0.4014
14164TIP3    H163907   0.646   1.888   0.608  0.7135  0.8499  1.0779
14164TIP3    H263908   0.567   2.016   0.589 -0.5894 -0.2922 -1.8142
14165TIP3   OH263909   6.182   5.469  14.419  0.2795  0.4878  0.4579
14165TIP3    H163910   6.089   5.448  14.411  0.6851 -1.0965 -0.3495
14165TIP3    H263911   6.200   5.528  14.346  0.2741 -0.6224 -0.4679
14166TIP3   OH263912   3.705   3.243   1.681 -0.1280  0.5928 -0.3704
14166TIP3    H163913   3.745   3.156   1.674  0.4081  0.7835  0.2211
14166TIP3    H263914   3.615   3.226   1.710  0.4495  0.2882  1.3938
14167TIP3   OH263915   5.230   2.087   4.755  0.2815  0.0521  0.3292
14167TIP3    H163916   5.286   2.146   4.805  1.0621 -1.3523  1.2048
14167TIP3    H263917   5.255   2.101   4.664  0.1899  1.3079  0.4878
14168TIP3   OH263918   0.618   1.047  15.693 -0.2503  0.7860 -0.1752
14168TIP3    H163919   0.658   0.979  15.747 -2.2748  0.5502  1.1129
14168TIP3    H263920   0.671   1.125  15.710  1.2851 -0.0982 -0.6447
14169TIP3   OH263921   2.765   2.477   3.986  0.4878 -0.2293  0.0060
14169TIP3    H163922   2.807   2.552   4.028 -1.5256  0.7308  0.4482
14169TIP3    H263923   2.710   2.516   3.918  1.0381 -1.5053 -1.2141
14170TIP3   OH263924   0.117   5.481  16.002  0.1547  0.3022 -0.4183
14170TIP3    H163925   0.190   5.420  16.013  0.8525  1.3818  1.4813
14170TIP3    H263926   0.128   5.543  16.073 -1.5899  1.5791 -1.2085
14171TIP3   OH263927   5.974   3.676  13.687  0.7085 -0.1377  0.0840
14171TIP3    H163928   6.065   3.674  13.716  0.6029 -0.2904  0.4098
14171TIP3    H263929   5.937   3.754  13.728  0.3099 -0.8542  1.1388
14172TIP3   OH263930   3.085   2.317  12.484  0.3364 -0.2803 -0.4895
14172TIP3    H163931   3.088   2.292  12.391  1.9029  0.4398 -0.6571
14172TIP3    H263932   3.142   2.254  12.528 -1.4648 -1.4828  0.2491
14173TIP3   OH263933   3.711   1.307  15.585  0.1784  0.4192 -0.0036
14173TIP3    H163934   3.728   1.213  15.582  1.5171  0.5896  1.1378
14173TIP3    H263935   3.667   1.326  15.502  0.3803 -1.1119 -0.4979
14174TIP3   OH263936   4.808   6.249  10.642  0.1699 -0.5946  0.3955
14174TIP3    H163937   4.863   6.224  10.568  1.9443 -2.6395  2.2640
14174TIP3    H263938   4.864   6.304  10.696 -0.4810 -0.5855  1.0791
14175TIP3   OH263939   0.686   0.917   4.676 -0.4750 -0.5530  0.4279
14175TIP3    H163940   0.726   1.002   4.692 -1.3829 -0.1657  0.6826
14175TIP3    H263941   0.757   0.854   4.690  0.1469  0.1420  0.4403
14176TIP3   OH263942   6.137   3.394  13.090 -0.2898 -0.1688  0.3020
14176TIP3    H163943   6.123   3.359  13.178  0.5453  3.4244  2.0638
14176TIP3    H263944   6.232   3.387  13.076 -0.3964 -0.5594 -0.2663
14177TIP3   OH263945   3.170   1.032   1.092  0.0939 -0.0921  0.2450
14177TIP3    H163946   3.085   1.074   1.076 -1.7983 -2.2286  3.5116
14177TIP3    H263947   3.165   0.948   1.047  0.1199 -0.5599  1.0924
14178TIP3   OH263948   0.999   5.385  14.936  0.2582  0.8315  0.0195
14178TIP3    H163949   0.920   5.369  14.987  0.2753 -0.0317 -0.1987
14178TIP3    H263950   1.071   5.372  14.998  0.2685  0.0572 -0.1323
14179TIP3   OH263951   5.951   2.703   3.378  0.2586  0.2947  0.5797
14179TIP3    H163952   5.989   2.695   3.466  1.1366  2.6125  0.4836
14179TIP3    H263953   6.021   2.674   3.319  0.3016  0.4263  0.5668
14180TIP3   OH263954   0.997   2.811  10.734  0.3475  0.2092  0.4590
14180TIP3    H163955   1.066   2.745  10.724  0.8273  0.8798 -0.8252
14180TIP3    H263956   0.938   2.774  10.800  1.5605 -0.6875  1.0847
14181TIP3   OH263957   2.641   3.379   2.002 -0.2832 -0.4621  0.6450
14181TIP3    H163958   2.549   3.388   1.977 -0.3381 -0.6730  0.7611
14181TIP3    H263959   2.670   3.468   2.019 -0.3671 -0.3616  0.2663
14182TIP3   OH263960   0.360   3.785  12.422  0.3443 -0.4951 -0.0413
14182TIP3    H163961   0.382   3.705  12.470 -1.0343  0.2682  2.0221
14182TIP3    H263962   0.281   3.763  12.373 -1.9041  0.2748  2.9149
14183TIP3   OH263963   5.078   3.609   1.475  0.1352 -0.3841 -0.0464
14183TIP3    H163964   5.156   3.573   1.433  1.0246 -0.7360  1.7807
14183TIP3    H263965   5.062   3.550   1.550 -0.7547  0.7678  0.7097
14184TIP3   OH263966   3.837   3.829   3.796 -0.6694 -0.4602 -0.3765
14184TIP3    H163967   3.841   3.853   3.888  1.0614  2.0994 -0.9955
14184TIP3    H263968   3.775   3.891   3.758 -1.4129 -1.5275 -0.9524
14185TIP3   OH263969   5.174   3.518   0.488 -0.0536 -0.3404  0.2188
14185TIP3    H163970   5.202   3.608   0.501 -2.1246  0.3412  0.2849
14185TIP3    H263971   5.180   3.478   0.575 -2.0539  0.6681  0.8834
14186TIP3   OH263972   1.065   5.972  13.801  0.2142 -0.1675 -0.1835
14186TIP3    H163973   0.996   5.912  13.773  0.1545 -1.2356  2.0650
14186TIP3    H263974   1.113   5.924  13.868  2.9351  0.6854 -1.3740
14187TIP3   OH263975   0.401   2.617   0.595  0.0089 -0.0944 -0.3302
14187TIP3    H163976   0.379   2.565   0.518 -1.0362 -0.1729  0.0052
14187TIP3    H263977   0.324   2.610   0.652  0.4931  0.5105  0.4230
14188TIP3   OH263978   0.591   0.618  14.806  0.5032 -0.0399  0.1791
14188TIP3    H163979   0.543   0.554  14.860  3.8115 -1.3404  1.8675
14188TIP3    H263980   0.604   0.573  14.723 -1.4587  0.5299 -0.5043
14189TIP3   OH263981   2.111   0.033  14.829  0.0568 -0.2296  0.4182
14189TIP3    H163982   2.163  -0.006  14.759  2.4884  3.7146 -0.2833
14189TIP3    H263983   2.022   0.036  14.793  0.8858  0.0402 -1.7778
14190TIP3   OH263984   1.558   3.341  12.104  0.2817 -0.0372 -0.6164
14190TIP3    H163985   1.566   3.256  12.145  0.6142 -0.2351 -1.0776
14190TIP3    H263986   1.637   3.350  12.051 -0.1857  0.1513 -1.3020
14191TIP3   OH263987   6.528   0.075  12.880 -0.0936 -0.1239  0.6939
14191TIP3    H163988   6.579   0.154  12.900 -1.5554  0.9237  0.4466
14191TIP3    H263989   6.471   0.101  12.808  1.8837 -2.4896 -1.9756
14192TIP3   OH263990   1.024   3.267  11.519  0.4799  0.0108 -0.0961
14192TIP3    H163991   1.048   3.176  11.505 -0.7076 -0.1166 -1.4404
14192TIP3    H263992   0.980   3.267  11.604  0.7939 -0.5953  0.0718
14193TIP3   OH263993   6.204   4.437  10.698  0.4470  0.1359 -0.7913
14193TIP3    H163994   6.135   4.454  10.761  0.3302 -0.2732 -0.8054
14193TIP3    H263995   6.285   4.437  10.749  0.1600 -2.3726 -0.2367
14194TIP3   OH263996   6.493   6.563  14.213 -0.4131 -0.2669 -0.3454
14194TIP3    H163997   6.436   6.637  14.193  0.0970  0.7129  1.6355
14194TIP3    H263998   6.550   6.595  14.283  1.5788 -1.6950 -1.2272
14195TIP3   OH263999   5.926   2.626   0.635 -0.1372  0.3238  0.1129
14195TIP3    H164000   5.851   2.651   0.689 -0.7479 -0.1107 -0.5202
14195TIP3    H264001   5.909   2.535   0.610  1.2843 -0.2596  1.0980
14196TIP3   OH264002   2.799   2.295  17.082 -0.2327  0.0621  0.2676
14196TIP3    H164003   2.725   2.261  17.132 -1.5453  1.7302 -0.4404
14196TIP3    H264004   2.802   2.241  17.003 -1.0357  0.2927  0.0677
14197TIP3   OH264005   5.567   2.219   2.979 -0.2530  0.3527 -0.4481
14197TIP3    H164006   5.510   2.294   2.994 -0.0574  0.2364  0.9909
14197TIP3    H264007   5.641   2.255   2.930  0.5740  1.4762  1.4852
14198TIP3   OH264008   0.527   1.692  10.664 -0.7341  0.0652  0.0502
14198TIP3    H164009   0.607   1.692  10.612  0.0587  1.4503  1.1693
14198TIP3    H264010   0.503   1.600  10.673  0.3740 -0.3271 -0.8448
14199TIP3   OH264011   2.294   3.774   4.707 -0.2615  0.3123  0.2448
14199TIP3    H164012   2.235   3.754   4.635 -1.4262  2.9584  0.3594
14199TIP3    H264013   2.265   3.716   4.778  0.6694 -2.0628 -1.1686
14200TIP3   OH264014   2.216   4.194   2.143  0.3698 -0.0063 -0.3483
14200TIP3    H164015   2.250   4.227   2.227  3.0737  2.4965 -2.2430
14200TIP3    H264016   2.263   4.112   2.130 -0.0526 -0.4060  0.5368
14201TIP3   OH264017   1.989   2.475  16.534 -0.0139 -0.3919 -0.4598
14201TIP3    H164018   2.060   2.509  16.588 -0.3460 -1.8673  0.9599
14201TIP3    H264019   1.946   2.409  16.588 -1.4461 -0.7143 -1.9002
14202TIP3   OH264020   5.381   3.511   1.033 -0.1194 -0.5780 -0.5140
14202TIP3    H164021   5.417   3.423   1.019  0.2896 -0.5140  0.1235
14202TIP3    H264022   5.425   3.566   0.968  0.9893 -0.4863  0.3075
14203TIP3   OH264023   3.940   0.521   6.583  0.3588  0.0783 -0.4089
14203TIP3    H164024   3.967   0.599   6.630  0.7335  0.0251 -0.5365
14203TIP3    H264025   3.966   0.537   6.492  1.4442 -0.6532 -0.2474
14204TIP3   OH264026   3.273   0.091  13.863 -0.8036 -0.1485  0.1072
14204TIP3    H164027   3.321   0.149  13.804  0.6559 -1.6249 -0.2595
14204TIP3    H264028   3.333   0.076  13.936 -0.6366 -1.9808 -0.3294
14205TIP3   OH264029   0.001   1.120  15.813 -0.2130 -0.5140  0.7051
14205TIP3    H164030   0.088   1.156  15.792 -0.7864  1.8281  1.9459
14205TIP3    H264031  -0.060   1.177  15.766 -1.1436 -1.1693  1.0989
14206TIP3   OH264032   2.189   1.693   3.479  0.3101  0.0974  0.4237
14206TIP3    H164033   2.151   1.769   3.522  1.5473 -0.6790  3.1669
14206TIP3    H264034   2.283   1.711   3.477  0.5305 -0.9841  0.3873
14207TIP3   OH264035   2.592   5.332  14.751 -0.2764 -0.0436 -0.4732
14207TIP3    H164036   2.630   5.253  14.790 -0.1954  0.6400  0.8828
14207TIP3    H264037   2.507   5.341  14.793 -1.3632 -0.7254 -2.3993
14208TIP3   OH264038   5.623   2.816   0.353 -0.1008 -0.4412 -0.2914
14208TIP3    H164039   5.594   2.734   0.314 -0.5744 -0.4065 -0.0150
14208TIP3    H264040   5.718   2.804   0.366 -0.1751 -0.9585 -0.2094
14209TIP3   OH264041   0.099   3.331  16.220 -0.8241 -0.3736  0.1074
14209TIP3    H164042   0.028   3.368  16.167 -0.5381  0.9359  0.5973
14209TIP3    H264043   0.054   3.292  16.295 -1.1614 -1.4138 -0.6166
14210TIP3   OH264044   1.615   6.634   4.451  0.0521 -0.2270 -0.8927
14210TIP3    H164045   1.530   6.598   4.477  0.3186 -0.1182  0.1728
14210TIP3    H264046   1.595   6.712   4.401 -0.5065 -1.0729 -2.0287
14211TIP3   OH264047   5.517   4.758   4.044  0.1120 -0.2994  0.2558
14211TIP3    H164048   5.486   4.845   4.069 -1.7317 -0.5166 -1.0766
14211TIP3    H264049   5.500   4.703   4.121  2.6969  0.7294  1.6929
14212TIP3   OH264050   2.045   1.206  15.163  0.1464 -0.3959 -0.1581
14212TIP3    H164051   2.027   1.170  15.076 -0.1467 -2.5360  0.7293
14212TIP3    H264052   1.963   1.195  15.211  0.9179 -1.3215  1.0252
14213TIP3   OH264053   2.895   6.789  14.580  0.9684 -0.6359 -0.4935
14213TIP3    H164054   2.914   6.699  14.554  1.0011 -0.4007 -1.3123
14213TIP3    H264055   2.848   6.826  14.506 -1.2542 -0.6963  0.7973
14214TIP3   OH264056   1.678   6.174  16.214  0.3899 -0.4448  0.4153
14214TIP3    H164057   1.682   6.268  16.195 -0.8396  0.0280  2.3087
14214TIP3    H264058   1.749   6.137  16.161 -0.5201  1.2002 -2.1410
14215TIP3   OH264059   6.537   0.959  16.323  0.4122 -0.3509  0.1929
14215TIP3    H164060   6.618   0.978  16.371  0.3513 -0.9521  0.5394
14215TIP3    H264061   6.565   0.947  16.232  0.8722 -1.6668  0.4956
14216TIP3   OH264062   6.316   6.271   6.223  0.0145 -0.5871 -0.2640
14216TIP3    H164063   6.357   6.226   6.149  0.8169 -2.1850  1.1136
14216TIP3    H264064   6.363   6.354   6.229 -0.9226  0.1786 -2.3019
14217TIP3   OH264065   3.622   3.051  14.305 -0.3127 -0.2821 -0.2134
14217TIP3    H164066   3.682   3.019  14.373  1.0989  1.0964 -0.7692
14217TIP3    H264067   3.561   3.109  14.351 -0.1072 -0.2864  0.0625
14218TIP3   OH264068   0.272   3.758  16.171  0.2549 -0.2934 -0.1192
14218TIP3    H164069   0.253   3.840  16.215 -0.1931 -0.1487 -0.5626
14218TIP3    H264070   0.187   3.712  16.168  0.9658 -2.0239  2.5693
14219TIP3   OH264071   0.983   5.987  13.329  0.4052  0.0897 -0.1766
14219TIP3    H164072   0.910   5.932  13.359  0.5876  0.2812  0.6567
14219TIP3    H264073   1.054   5.968  13.392  0.5772  1.0300 -0.0732
14220TIP3   OH264074   3.946   4.737   1.792  0.5927 -0.1251  0.1136
14220TIP3    H164075   3.855   4.736   1.762  0.0938 -1.1405  1.5713
14220TIP3    H264076   3.979   4.823   1.764 -1.2766  0.9159  0.9125
14221TIP3   OH264077   2.246   5.938  14.054  0.5949  0.5847 -0.2313
14221TIP3    H164078   2.188   5.991  14.109 -0.6492  0.7168 -1.6239
14221TIP3    H264079   2.317   5.998  14.030 -0.1550  1.2652 -0.7821
14222TIP3   OH264080   0.220   4.117   0.334  0.5737  0.4078  0.1421
14222TIP3    H164081   0.269   4.042   0.368  1.3011  0.7255 -0.1924
14222TIP3    H264082   0.191   4.089   0.247 -1.0567 -0.3035  0.8702
14223TIP3   OH264083   2.645   1.617  13.449 -0.1479  0.2828  0.5677
14223TIP3    H164084   2.648   1.540  13.505 -1.6667 -1.3558 -1.4260
14223TIP3    H264085   2.689   1.590  13.368 -0.1184  1.7495  0.0589
14224TIP3   OH264086   1.867   3.770   1.078 -0.1574  0.1117 -0.2784
14224TIP3    H164087   1.883   3.815   1.161  0.9120  3.9459 -2.3563
14224TIP3    H264088   1.778   3.734   1.087 -1.2828  3.0239  1.4925
14225TIP3   OH264089   1.550   6.748  12.548 -0.5747 -0.0820  0.4799
14225TIP3    H164090   1.571   6.701  12.468  1.7964 -1.1981  1.6650
14225TIP3    H264091   1.613   6.821  12.551  0.0351 -0.6245  1.7611
14226TIP3   OH264092   2.603   3.127   2.343 -0.0340  0.2981  0.7606
14226TIP3    H164093   2.617   3.120   2.438 -0.5219 -0.5321  0.7808
14226TIP3    H264094   2.673   3.186   2.313  1.4960 -1.1446  1.3190
14227TIP3   OH264095   2.298   0.818  15.030  0.2319 -0.5209 -0.0025
14227TIP3    H164096   2.317   0.862  15.113 -1.9767 -0.1738  0.3777
14227TIP3    H264097   2.268   0.731  15.055  1.8407 -1.3045 -0.6165
14228TIP3   OH264098   5.036   1.909   6.565 -0.3712  0.3846  0.2644
14228TIP3    H164099   5.076   1.868   6.642 -0.0501 -0.1297 -0.1745
14228TIP3    H264100   4.954   1.860   6.552 -0.5544  0.6433  0.4331
14229TIP3   OH264101   1.396   2.929  12.607 -0.0885 -0.0976  0.2273
14229TIP3    H164102   1.413   2.855  12.549  1.0911  0.9579 -0.8278
14229TIP3    H264103   1.482   2.953  12.641 -0.3817  1.1265  0.1392
14230TIP3   OH264104   0.148   3.861   0.049 -0.1421 -0.3837  0.5344
14230TIP3    H164105   0.235   3.821   0.040  0.9948  2.3896 -4.1520
14230TIP3    H264106   0.091   3.808  -0.007  0.3601  1.6188 -2.0836
14231TIP3   OH264107   1.292   4.192  16.597 -0.6082 -0.1733  0.3308
14231TIP3    H164108   1.343   4.219  16.520 -2.1896  0.0502 -0.6765
14231TIP3    H264109   1.206   4.171  16.563 -1.5832  0.6235  2.1674
14232TIP3   OH264110   2.851   3.340   4.616  0.2621 -0.0286  0.4225
14232TIP3    H164111   2.789   3.298   4.676  0.2805 -0.0559  0.4224
14232TIP3    H264112   2.929   3.284   4.621 -0.2625 -0.9183 -0.8009
14233TIP3   OH264113   5.405   6.203  14.741  0.0395 -0.3483  0.3868
14233TIP3    H164114   5.352   6.277  14.710 -1.3325 -1.4487 -0.0279
14233TIP3    H264115   5.379   6.130  14.684  1.7716 -1.0329  0.4167
14234TIP3   OH264116   3.366   3.644  17.084 -0.3346  0.3840  0.5196
14234TIP3    H164117   3.302   3.583  17.121  0.2626 -0.3195  0.4114
14234TIP3    H264118   3.418   3.672  17.160  1.1097 -1.3178  0.2510
14235TIP3   OH264119   0.390   1.056  16.115  0.4340  0.0594  0.5715
14235TIP3    H164120   0.321   1.115  16.146  1.7726  3.2867 -1.9037
14235TIP3    H264121   0.368   1.040  16.023  1.0965 -1.9250  0.7191
14236TIP3   OH264122   6.319   4.166  10.945 -0.5645  0.3296 -0.2271
14236TIP3    H164123   6.352   4.256  10.941  0.5769 -0.0873 -0.4920
14236TIP3    H264124   6.359   4.122  10.870 -0.3775 -0.6345  0.4140
14237TIP3   OH264125   4.720   2.387  15.853  0.7793  0.1313 -0.6327
14237TIP3    H164126   4.689   2.478  15.860  0.7625  0.1483 -0.9193
14237TIP3    H264127   4.795   2.393  15.793 -0.7107 -0.3975 -2.6766
14238TIP3   OH264128   4.414   5.692   4.682 -0.2464 -0.4225  0.2114
14238TIP3    H164129   4.416   5.754   4.755  1.3339  0.9530 -0.9300
14238TIP3    H264130   4.460   5.615   4.716 -0.1013 -0.0501  0.8852
14239TIP3   OH264131   0.681   3.447  12.663  0.8320 -0.1077  0.5739
14239TIP3    H164132   0.631   3.514  12.709 -1.7594 -0.7378 -1.1521
14239TIP3    H264133   0.653   3.364  12.703  0.9314 -0.4400 -0.0355
14240TIP3   OH264134   6.070   6.300   4.119  0.0473 -0.3880 -0.4437
14240TIP3    H164135   6.134   6.326   4.185  1.6413  1.3093 -2.5258
14240TIP3    H264136   6.065   6.374   4.058 -2.9937 -0.9786 -1.0922
14241TIP3   OH264137   2.361   1.917   3.267  0.0751  0.1248 -0.6441
14241TIP3    H164138   2.444   1.905   3.314  1.1809  1.0113 -2.2441
14241TIP3    H264139   2.369   1.861   3.190 -1.3611 -0.7086 -0.2106
14242TIP3   OH264140   6.128   6.108   5.916 -0.2507  0.3278 -0.3385
14242TIP3    H164141   6.220   6.134   5.918 -0.6504  1.7970  1.0842
14242TIP3    H264142   6.118   6.051   5.993 -0.6756  0.7177 -0.1028
14243TIP3   OH264143   1.522   6.159   2.627 -0.3553 -0.4985 -0.8231
14243TIP3    H164144   1.555   6.192   2.543 -0.0642 -0.5153 -0.7190
14243TIP3    H264145   1.447   6.214   2.647  0.3533  0.3581 -0.4669
14244TIP3   OH264146   3.367   4.137   1.046 -0.7363  0.4152  0.5751
14244TIP3    H164147   3.288   4.083   1.053  0.0966 -0.7135  1.6907
14244TIP3    H264148   3.421   4.091   0.982 -0.9783  1.2089 -0.2155
14245TIP3   OH264149   6.429   0.816  14.408 -0.1284 -0.0899  0.3467
14245TIP3    H164150   6.359   0.881  14.413  1.1752  1.3498  0.3590
14245TIP3    H264151   6.458   0.805  14.499  0.5464  0.3362  0.1925
14246TIP3   OH264152   3.200   0.771   1.943 -0.1333 -0.4902  0.5366
14246TIP3    H164153   3.295   0.776   1.935  0.1671 -2.3952  1.9882
14246TIP3    H264154   3.178   0.834   2.011  0.2756 -0.8629  1.0288
14247TIP3   OH264155   3.647   4.989   5.817  0.0007  0.1291 -0.1318
14247TIP3    H164156   3.713   4.983   5.887  0.3451  1.8743 -0.2566
14247TIP3    H264157   3.610   4.901   5.811  0.3612 -0.2052  1.8544
14248TIP3   OH264158   4.071   5.368   5.391  0.2701  0.0181  0.0994
14248TIP3    H164159   4.094   5.431   5.322  1.2945 -0.0095  0.4083
14248TIP3    H264160   3.982   5.393   5.416  0.1623  0.5063 -0.7044
14249TIP3   OH264161   2.232   5.908   2.524 -0.2711 -0.1896  0.4492
14249TIP3    H164162   2.209   5.929   2.434  2.1978  0.9550  0.0009
14249TIP3    H264163   2.240   5.813   2.525 -0.5503 -0.2329 -0.4953
14250TIP3   OH264164   5.329   5.278   2.347  0.1180  0.5763 -0.2277
14250TIP3    H164165   5.238   5.275   2.378  0.3720  0.2146  0.4939
14250TIP3    H264166   5.322   5.317   2.260 -0.8438 -0.4011 -0.6215
14251TIP3   OH264167   6.148   1.738   6.304 -0.2669  0.0302 -0.0266
14251TIP3    H164168   6.118   1.829   6.302 -0.0664  0.1005  0.1530
14251TIP3    H264169   6.074   1.690   6.342 -1.2055 -0.2132 -2.0569
14252TIP3   OH264170   4.748   3.951   3.868  0.5836  0.6412 -0.1149
14252TIP3    H164171   4.792   3.889   3.927 -0.8491  0.2746  0.6051
14252TIP3    H264172   4.693   3.895   3.813  2.4264  0.8911 -2.3656
14253TIP3   OH264173   5.622   0.742   2.339  0.0906  0.0919  0.0663
14253TIP3    H164174   5.706   0.762   2.381 -0.1747  0.4085  0.4613
14253TIP3    H264175   5.630   0.651   2.312  0.8936  0.3708 -0.6977
14254TIP3   OH264176   0.495   4.480   0.779  0.0125 -0.3400 -0.1291
14254TIP3    H164177   0.459   4.468   0.867  0.3407 -0.5387 -0.0223
14254TIP3    H264178   0.446   4.554   0.743 -1.6902 -1.6217 -0.5896
14255TIP3   OH264179   2.626   1.599   4.484  0.4347  0.0862 -0.0182
14255TIP3    H164180   2.569   1.671   4.512 -0.2893  0.1013 -1.4673
14255TIP3    H264181   2.589   1.521   4.526 -0.1585  0.2239 -0.2781
14256TIP3   OH264182   6.791   6.655   3.245  0.6231  0.6714  0.1294
14256TIP3    H164183   6.780   6.568   3.206 -3.2305 -0.9730  4.0459
14256TIP3    H264184   6.878   6.652   3.286  1.7015 -0.1803 -2.0616
14257TIP3   OH264185   0.035   4.039   4.729  0.3241  0.1520  0.4383
14257TIP3    H164186  -0.060   4.048   4.734  0.4389  2.1653  0.0031
14257TIP3    H264187   0.068   4.124   4.759  1.9451 -0.0707 -0.6008
14258TIP3   OH264188   6.716   2.013  10.851  0.2141 -0.7725 -0.1052
14258TIP3    H164189   6.805   1.993  10.879  1.0468 -1.3761 -2.8285
14258TIP3    H264190   6.726   2.040  10.759 -2.4607 -1.3383 -0.6372
14259TIP3   OH264191   3.677   2.225   4.712  0.1516  0.4766  0.4088
14259TIP3    H164192   3.757   2.278   4.721  1.7794 -1.9930  1.4509
14259TIP3    H264193   3.632   2.264   4.637  2.5312  1.7544 -0.4900
14260TIP3   OH264194   4.681   2.126  14.532  0.0305  0.0429 -0.4787
14260TIP3    H164195   4.684   2.120  14.436 -0.9598  0.4615 -0.5456
14260TIP3    H264196   4.720   2.211  14.552 -0.8911  0.5122 -0.6065
14261TIP3   OH264197   2.377   3.503   2.002  0.5715 -0.4552  0.2506
14261TIP3    H164198   2.416   3.503   2.090  1.4861  0.3835 -0.1373
14261TIP3    H264199   2.284   3.517   2.018  0.3261 -2.7273  1.2136
14262TIP3   OH264200   4.106   3.470  16.761 -0.4062  0.0693  0.7049
14262TIP3    H164201   4.195   3.466  16.725  0.2495 -1.2646  2.3269
14262TIP3    H264202   4.111   3.541  16.826 -0.1101 -0.8598  1.7326
14263TIP3   OH264203   3.548   2.932  15.218  0.3082 -0.3627 -0.7256
14263TIP3    H164204   3.569   2.899  15.305 -1.1363  0.4280 -0.0353
14263TIP3    H264205   3.453   2.919  15.210  0.3309  0.0783 -1.9680
14264TIP3   OH264206   4.895   1.176   5.393  0.8592  0.4655  0.5605
14264TIP3    H164207   4.824   1.193   5.330  0.3153  1.7927  1.4611
14264TIP3    H264208   4.962   1.240   5.370  0.8120  0.7068  1.0882
14265TIP3   OH264209   6.441   2.166   1.241 -0.1570  0.5198  0.1320
14265TIP3    H164210   6.439   2.203   1.153 -2.1202  0.3125  0.0420
14265TIP3    H264211   6.400   2.232   1.296  0.6147  0.4411  0.8314
14266TIP3   OH264212   6.135   1.143   3.830  0.3816  0.1563  0.6905
14266TIP3    H164213   6.041   1.127   3.831  0.4748 -0.4772  0.2900
14266TIP3    H264214   6.144   1.236   3.808 -0.1358  0.0237 -0.1273
14267TIP3   OH264215   4.690   3.089  11.286  0.0702 -0.0212 -0.0659
14267TIP3    H164216   4.768   3.084  11.340  0.1024 -0.1886 -0.1254
14267TIP3    H264217   4.716   3.138  11.208 -0.4580  1.8573  0.8908
14268TIP3   OH264218   6.475   0.180  13.962 -0.1382  0.5972  0.1907
14268TIP3    H164219   6.386   0.192  13.930 -0.5383 -0.8357  0.6755
14268TIP3    H264220   6.497   0.263  14.004 -2.1519  0.2198  2.1574
14269TIP3   OH264221   5.594   2.861  13.907 -0.1608  0.2511 -0.4591
14269TIP3    H164222   5.514   2.864  13.853 -0.6756 -0.0021  0.2662
14269TIP3    H264223   5.656   2.917  13.860 -1.2220  1.6128 -0.3287
14270TIP3   OH264224   3.717   4.079  14.906 -0.3853 -0.7018  0.6441
14270TIP3    H164225   3.730   4.007  14.844 -0.8669 -0.7898  0.6412
14270TIP3    H264226   3.785   4.142  14.884 -1.7006  0.1668 -1.2734
14271TIP3   OH264227   1.777   1.227  13.913 -0.1481 -0.2063  0.3391
14271TIP3    H164228   1.815   1.223  14.001  0.0081  0.2516  0.2931
14271TIP3    H264229   1.813   1.151  13.868  1.3329  0.6357  0.0543
14272TIP3   OH264230   1.184   6.708  16.445  0.2202  0.0736 -0.0230
14272TIP3    H164231   1.229   6.624  16.445  0.7392  0.3465 -0.2651
14272TIP3    H264232   1.102   6.691  16.491  0.9012 -0.2638  1.1216
14273TIP3   OH264233   4.236   0.875  14.116  0.4627 -0.0602 -0.0289
14273TIP3    H164234   4.275   0.951  14.073  0.5821 -0.7532 -1.1822
14273TIP3    H264235   4.310   0.827  14.153  0.4014  0.2829  0.5555
14274TIP3   OH264236   0.465   4.824   6.162 -0.0636 -0.0770 -0.2240
14274TIP3    H164237   0.452   4.904   6.211  0.0429  0.0751 -0.4416
14274TIP3    H264238   0.394   4.823   6.097  1.0527  0.8371 -1.5212
14275TIP3   OH264239   5.020   0.468  11.166 -0.1715 -0.1869 -0.2869
14275TIP3    H164240   4.962   0.535  11.130 -0.8240 -1.0947 -0.9797
14275TIP3    H264241   5.087   0.455  11.099 -1.3941 -1.8884 -1.2680
14276TIP3   OH264242   3.983   5.087   5.412 -0.1400 -0.1252  0.0047
14276TIP3    H164243   4.058   5.147   5.405  0.4825 -1.0173 -1.4179
14276TIP3    H264244   3.925   5.114   5.341 -0.9200  0.1864  0.7411
14277TIP3   OH264245   3.819   5.482   2.563 -0.7014 -0.0715  0.3539
14277TIP3    H164246   3.890   5.457   2.505 -0.5142  0.9866  0.1095
14277TIP3    H264247   3.753   5.521   2.506 -1.4129 -0.8698  0.6016
14278TIP3   OH264248   4.583   3.910  11.628  0.3927  0.7996  0.6271
14278TIP3    H164249   4.582   3.938  11.537  1.4330  2.0868  0.9658
14278TIP3    H264250   4.518   3.841  11.633 -1.0831  2.0052 -0.6802
14279TIP3   OH264251   0.888   3.949  16.880 -0.5616  0.3484 -0.3676
14279TIP3    H164252   0.848   4.029  16.915  0.7416  1.9342 -2.2020
14279TIP3    H264253   0.827   3.879  16.902 -0.2890  1.2548  4.1168
14280TIP3   OH264254   3.494   1.773  14.253 -0.4492  0.1727 -0.3301
14280TIP3    H164255   3.417   1.820  14.285  0.8827  1.7441  0.7194
14280TIP3    H264256   3.461   1.687  14.230 -2.6004  0.9236 -0.3059
14281TIP3   OH264257   0.306   1.879  13.604 -0.2970  0.1462  0.2552
14281TIP3    H164258   0.239   1.913  13.664 -0.4939  1.3263 -0.6088
14281TIP3    H264259   0.389   1.901  13.647 -0.4391  0.4710  0.3686
14282TIP3   OH264260   1.079   5.519   1.481 -0.2149 -0.3315 -0.0168
14282TIP3    H164261   1.072   5.548   1.572 -2.6289  3.2286 -1.1223
14282TIP3    H264262   1.042   5.431   1.481 -0.8113 -0.1632  2.3208
14283TIP3   OH264263   4.184   3.310   0.801 -0.4330 -0.2527 -0.2459
14283TIP3    H164264   4.135   3.243   0.754 -0.8390 -0.8446  0.9936
14283TIP3    H264265   4.187   3.384   0.739 -1.9096 -0.6007 -0.7957
14284TIP3   OH264266   0.696   0.036  13.871 -0.5861 -0.0304 -0.5720
14284TIP3    H164267   0.732   0.122  13.848 -0.0431 -0.2352 -0.5154
14284TIP3    H264268   0.760  -0.026  13.835 -1.2263 -0.4254 -1.0509
14285TIP3   OH264269   0.966   0.840   4.725  0.3304  0.3542 -0.5767
14285TIP3    H164270   1.038   0.900   4.702  2.0355 -1.4608 -0.2707
14285TIP3    H264271   0.998   0.793   4.802 -0.2316 -2.0638 -1.7420
14286TIP3   OH264272   2.652   5.998   4.621 -0.0553 -0.7130 -0.5714
14286TIP3    H164273   2.653   5.913   4.665 -1.1706 -0.1037  0.7365
14286TIP3    H264274   2.560   6.011   4.597 -0.5076  1.2736  1.7622
14287TIP3   OH264275   1.912   4.261  11.637 -0.3910  0.5128 -0.5037
14287TIP3    H164276   1.904   4.289  11.728 -0.3240 -0.2156 -0.2710
14287TIP3    H264277   1.867   4.177  11.633  0.6435 -0.0392 -0.8723
14288TIP3   OH264278   2.292   5.791  11.081 -0.3925 -0.1806 -0.3967
14288TIP3    H164279   2.284   5.884  11.062 -0.1189 -0.4811 -2.0807
14288TIP3    H264280   2.276   5.747  10.998  0.2834 -1.6010  0.1817
14289TIP3   OH264281   4.418   3.704   1.192 -0.2133  0.1814  0.2364
14289TIP3    H164282   4.329   3.691   1.161 -0.1905  0.0294  0.2326
14289TIP3    H264283   4.413   3.693   1.287 -0.1679  0.0067  0.2176
14290TIP3   OH264284   6.750   5.646   3.036  0.4561  0.1232 -0.4229
14290TIP3    H164285   6.707   5.685   2.960  0.6513  2.3042  0.4913
14290TIP3    H264286   6.839   5.680   3.033  0.9027 -0.9702 -0.0190
14291TIP3   OH264287   5.873   4.668   1.307  0.4654 -0.2694  0.2096
14291TIP3    H164288   5.860   4.581   1.343  1.8012 -0.3926  0.4402
14291TIP3    H264289   5.965   4.688   1.323  1.0004 -0.0771 -2.5737
14292TIP3   OH264290   4.710   5.443   4.473  0.2362 -0.4574  0.1053
14292TIP3    H164291   4.619   5.417   4.483  0.4161 -1.1298  0.0809
14292TIP3    H264292   4.708   5.524   4.422 -0.4686  0.7357  1.9308
14293TIP3   OH264293   1.453   4.425  15.678 -0.3176 -0.4436  0.2071
14293TIP3    H164294   1.360   4.416  15.699  0.1902 -1.6490  2.2049
14293TIP3    H264295   1.498   4.411  15.761  1.7243 -1.6078 -1.0116
14294TIP3   OH264296   4.371   5.922  10.932  0.7386  0.1659 -0.1248
14294TIP3    H164297   4.324   5.954  11.010 -0.1333  1.2973 -1.0882
14294TIP3    H264298   4.332   5.836  10.915  1.3432 -0.3662  1.0000
14295TIP3   OH264299   6.703   3.871  13.094 -0.2332  0.1574 -0.2155
14295TIP3    H164300   6.707   3.967  13.099  1.5597  0.1680 -1.2380
14295TIP3    H264301   6.690   3.852  13.002  2.0667 -0.5951 -0.4396
14296TIP3   OH264302   1.740   3.202  11.339  0.6161 -0.0257  0.2776
14296TIP3    H164303   1.696   3.139  11.396  1.0840 -0.9596 -0.3655
14296TIP3    H264304   1.808   3.151  11.294  2.8346  1.4951  1.7118
14297TIP3   OH264305   1.311   4.467   0.431  0.1068 -0.2835  0.2521
14297TIP3    H164306   1.231   4.467   0.483  0.6582  0.5696  1.1409
14297TIP3    H264307   1.282   4.447   0.342 -1.0945  0.0253  0.5557
14298TIP3   OH264308   3.782   1.967  14.643 -0.4901 -0.1399 -0.1445
14298TIP3    H164309   3.741   1.968  14.729 -1.0140  0.0387 -0.3928
14298TIP3    H264310   3.725   1.912  14.589  0.9466 -2.0567  0.1545
14299TIP3   OH264311   0.526   6.180  11.583  0.0093  0.0499 -0.3403
14299TIP3    H164312   0.610   6.149  11.617 -0.9385 -2.9671 -0.5294
14299TIP3    H264313   0.546   6.206  11.492  0.9442  0.5060 -0.0207
14300TIP3   OH264314   0.512   4.169   0.128  0.7308 -0.3652  0.3957
14300TIP3    H164315   0.433   4.132   0.088  0.5054 -0.0404  0.5342
14300TIP3    H264316   0.581   4.152   0.065  0.4518 -0.1957  0.0424
14301TIP3   OH264317   1.620   5.551  13.096  0.5389  0.0816 -0.2412
14301TIP3    H164318   1.560   5.531  13.168 -0.1397 -0.3274 -0.9094
14301TIP3    H264319   1.687   5.483  13.100  1.2331  0.7841  0.7744
14302TIP3   OH264320   1.263   1.124  15.168 -0.3383  0.3276  0.5391
14302TIP3    H164321   1.296   1.036  15.151 -3.2782 -0.9916  1.0335
14302TIP3    H264322   1.281   1.138  15.261  0.2649  0.3327  0.4258
14303TIP3   OH264323   0.792   2.619  12.196  0.3582 -0.4215  0.0223
14303TIP3    H164324   0.839   2.584  12.271  0.7278 -0.4229 -0.2039
14303TIP3    H264325   0.708   2.575  12.197  1.4559 -2.7026 -1.2799
14304TIP3   OH264326   6.760   0.660  13.445  0.3420  0.1928  0.0920
14304TIP3    H164327   6.849   0.690  13.464  0.1887 -0.2435  1.6005
14304TIP3    H264328   6.721   0.644  13.530 -1.1389  0.1950 -0.5566
14305TIP3   OH264329   2.747   3.462  16.987 -0.2336  0.3615  0.0430
14305TIP3    H164330   2.770   3.555  16.991  1.2808  0.0575 -0.7177
14305TIP3    H264331   2.680   3.456  16.918  0.9224  0.6937 -1.1462
14306TIP3   OH264332   3.266   4.595  16.121  0.2081  0.0175 -0.1551
14306TIP3    H164333   3.299   4.678  16.088  0.3885  0.1754  0.4191
14306TIP3    H264334   3.338   4.559  16.173 -0.8129  0.8150  1.9084
14307TIP3   OH264335   0.963   3.869   2.552 -0.1281 -0.0819 -0.6742
14307TIP3    H164336   1.004   3.911   2.477  0.5306  0.8218  0.1588
14307TIP3    H264337   1.025   3.801   2.579 -0.7082 -0.9021 -1.3891
14308TIP3   OH264338   5.932   2.565   3.874 -0.2791 -0.2581 -0.1925
14308TIP3    H164339   5.970   2.483   3.842 -1.4533 -0.1828 -1.9272
14308TIP3    H264340   5.845   2.542   3.905 -1.0667  0.4478 -1.7374
14309TIP3   OH264341   1.136   5.462  13.899  0.1650 -0.5428  0.5496
14309TIP3    H164342   1.221   5.420  13.915  0.0493 -0.4911  1.3293
14309TIP3    H264343   1.156   5.532  13.837  1.1362  0.9518  2.4448
14310TIP3   OH264344   0.294   6.240  14.785 -0.3132 -0.0713  0.8395
14310TIP3    H164345   0.341   6.315  14.747  0.2258 -0.7444  0.1545
14310TIP3    H264346   0.351   6.165  14.770 -1.2569 -0.7818  0.6965
14311TIP3   OH264347   4.402   4.085  13.027  0.0588 -0.1624 -0.4357
14311TIP3    H164348   4.395   4.146  13.100  0.0445 -1.9740  1.1671
14311TIP3    H264349   4.385   4.138  12.949  0.3867  1.9087  0.8314
14312TIP3   OH264350   4.317   0.014  13.860 -0.2290 -0.6699 -0.2916
14312TIP3    H164351   4.316   0.107  13.835  0.0037  0.2090  2.5668
14312TIP3    H264352   4.295  -0.033  13.780 -0.0116  1.8250 -1.9276
14313TIP3   OH264353   3.459   6.231   5.883  0.4397 -0.2679  0.2273
14313TIP3    H164354   3.378   6.278   5.863  0.5711 -0.2420 -0.2409
14313TIP3    H264355   3.442   6.141   5.856  0.5213 -0.2894  0.2482
14314TIP3   OH264356   4.291   4.802  13.217 -0.1472  0.3814  0.0728
14314TIP3    H164357   4.219   4.774  13.273  0.5032  0.1831  0.8278
14314TIP3    H264358   4.368   4.797  13.273  0.8640 -1.8146 -1.3569
14315TIP3   OH264359   6.324   0.286  12.521 -0.4549 -0.2915  0.0087
14315TIP3    H164360   6.275   0.220  12.473 -0.9798  0.5015 -0.5798
14315TIP3    H264361   6.398   0.309  12.464 -2.4296  2.4658 -1.7081
14316TIP3   OH264362   6.771   2.961   3.752  0.4085  0.2173 -0.0794
14316TIP3    H164363   6.680   2.972   3.782 -0.0930 -0.1164 -1.3912
14316TIP3    H264364   6.824   2.971   3.831 -0.8245 -0.3840  0.8645
14317TIP3   OH264365   0.402   2.023  16.718  0.1485  0.6158 -0.1071
14317TIP3    H164366   0.395   2.095  16.654  3.9704  2.0017  0.7665
14317TIP3    H264367   0.339   2.046  16.786 -0.5814  1.7230 -1.1089
14318TIP3   OH264368   1.192   4.135   3.016  0.5990  0.2925  0.1079
14318TIP3    H164369   1.110   4.115   2.972  1.3343  0.7859 -1.5443
14318TIP3    H264370   1.166   4.163   3.104 -0.7603 -3.1110  0.9381
14319TIP3   OH264371   1.790   4.208   0.815 -0.3902 -0.5956 -0.0092
14319TIP3    H164372   1.780   4.115   0.833 -1.4762 -1.5692 -4.4051
14319TIP3    H264373   1.706   4.246   0.839 -0.5445 -1.0843  0.2382
14320TIP3   OH264374   6.776   1.004   2.055  0.1478  0.0124 -0.3083
14320TIP3    H164375   6.866   1.036   2.047  0.1157  0.1675 -0.0712
14320TIP3    H264376   6.749   0.984   1.965  0.4310 -0.0655 -0.3733
14321TIP3   OH264377   0.615   6.185  16.834 -0.3268  0.1412 -0.1846
14321TIP3    H164378   0.545   6.246  16.859  0.5645  1.5999 -1.0753
14321TIP3    H264379   0.681   6.194  16.902 -0.0957  0.3649 -0.4323
14322TIP3   OH264380   3.039   6.119   5.049  0.0265  0.2388 -0.4425
14322TIP3    H164381   2.981   6.071   4.991 -0.0419 -0.3809  0.1287
14322TIP3    H264382   3.127   6.086   5.028 -0.0878 -0.6725  0.4344
14323TIP3   OH264383   6.439   3.298  12.462 -0.6498 -0.2876  0.2323
14323TIP3    H164384   6.458   3.285  12.368 -0.2780  0.3120  0.2194
14323TIP3    H264385   6.382   3.225  12.485 -0.5773 -0.5582 -0.4176
14324TIP3   OH264386   2.394   1.791  13.624  0.2330  0.5573  0.1801
14324TIP3    H164387   2.360   1.720  13.679  1.8446  1.2093  2.1499
14324TIP3    H264388   2.473   1.755  13.584 -0.9263  0.0913 -1.8111
14325TIP3   OH264389   2.133   4.237   3.378 -0.8180  0.0859 -0.3029
14325TIP3    H164390   2.118   4.142   3.385  0.1160 -0.0573 -0.2061
14325TIP3    H264391   2.081   4.274   3.449 -2.9583 -0.1487 -1.6594
14326TIP3   OH264392   3.364   2.518  14.822  0.2998  0.0792  0.5166
14326TIP3    H164393   3.297   2.531  14.755 -0.8185 -0.7783  1.4380
14326TIP3    H264394   3.447   2.521  14.774 -0.4372  0.2764 -0.7749
14327TIP3   OH264395   3.513   3.883   6.052  0.0852  0.1301 -0.0371
14327TIP3    H164396   3.426   3.871   6.091 -0.1937  1.5985 -0.1765
14327TIP3    H264397   3.514   3.821   5.979 -1.1162  0.5560 -0.4503
14328TIP3   OH264398   3.586   0.461  16.569 -0.1796  0.2274  0.3552
14328TIP3    H164399   3.518   0.528  16.570 -0.7296 -0.3014 -0.5043
14328TIP3    H264400   3.566   0.408  16.492  1.5269  0.3764 -0.2252
14329TIP3   OH264401   6.654   4.800   0.220 -0.4447 -0.0611  0.3124
14329TIP3    H164402   6.611   4.879   0.255  1.3798  0.0884  2.4379
14329TIP3    H264403   6.719   4.833   0.158 -1.0544 -0.0726 -0.3525
14330TIP3   OH264404   5.954   6.720   1.017 -0.1192 -0.8175  0.2181
14330TIP3    H164405   5.949   6.663   0.940 -3.0754 -2.3771  1.3733
14330TIP3    H264406   5.940   6.661   1.091  2.7329  0.6039  2.0631
14331TIP3   OH264407   4.434   6.057  14.767  0.0346 -0.3927  0.7216
14331TIP3    H164408   4.364   6.119  14.787 -0.8114 -1.3610  0.8699
14331TIP3    H264409   4.450   6.069  14.673 -0.7438 -0.5482  0.5591
14332TIP3   OH264410   4.562   3.228   5.921 -0.4653 -0.5234  0.4277
14332TIP3    H164411   4.586   3.238   6.013  0.5967 -1.0932  0.2331
14332TIP3    H264412   4.493   3.162   5.921 -0.0024 -1.0120  0.7640
14333TIP3   OH264413   4.823   4.598  16.273 -0.3883  0.2052 -0.3009
14333TIP3    H164414   4.814   4.534  16.344  0.1804 -1.1093 -1.3656
14333TIP3    H264415   4.904   4.572  16.228  0.1740  2.0392 -0.4287
14334TIP3   OH264416   0.128   1.972   2.662 -0.0817  0.4554  0.0756
14334TIP3    H164417   0.178   2.033   2.716  0.2439  0.8379 -0.6393
14334TIP3    H264418   0.065   2.028   2.615 -1.9991 -0.1221  1.7936
14335TIP3   OH264419   6.508   1.293  12.172  0.1178 -0.9462 -0.2902
14335TIP3    H164420   6.529   1.281  12.079  0.1536  0.6591 -0.5217
14335TIP3    H264421   6.589   1.328  12.210  0.6776 -3.1983  0.7463
14336TIP3   OH264422   4.810   5.871   6.171 -0.2503 -0.5302 -0.0970
14336TIP3    H164423   4.766   5.815   6.106  1.9380 -0.2618 -1.9350
14336TIP3    H264424   4.788   5.960   6.144  0.0797 -0.4273 -0.0263
14337TIP3   OH264425   6.121   2.468   4.183  0.7653  0.2749  0.0810
14337TIP3    H164426   6.191   2.441   4.124  1.0615 -1.6491  1.1977
14337TIP3    H264427   6.054   2.400   4.172 -0.2085  1.1879  0.2376
14338TIP3   OH264428   2.744   2.685  11.804 -0.1063  0.0068 -0.2655
14338TIP3    H164429   2.657   2.725  11.812  0.0765 -0.0059  3.2721
14338TIP3    H264430   2.796   2.749  11.756 -1.1962  1.6401  0.6516
14339TIP3   OH264431   3.858   3.084   5.366  0.1894  0.2553  0.9204
14339TIP3    H164432   3.888   3.002   5.405  1.5351  0.5246  0.4779
14339TIP3    H264433   3.923   3.149   5.393 -0.2313  0.9444  0.3113
14340TIP3   OH264434   4.726   1.665  17.078 -0.1423 -0.4060  0.5174
14340TIP3    H164435   4.723   1.574  17.109 -2.5192 -0.5909 -0.0328
14340TIP3    H264436   4.674   1.664  16.997 -0.1894  1.4412  0.4861
14341TIP3   OH264437   4.101   3.570  14.839 -0.0110 -0.1005  0.0207
14341TIP3    H164438   4.172   3.629  14.814  0.5819 -0.7731  0.0950
14341TIP3    H264439   4.097   3.575  14.934 -0.1370  0.0184  0.0097
14342TIP3   OH264440   0.658   5.118  14.711  0.1376  0.2093 -0.8484
14342TIP3    H164441   0.623   5.151  14.628  1.1606  1.7990 -0.6888
14342TIP3    H264442   0.722   5.184  14.738 -1.2645  0.5563  2.0019
14343TIP3   OH264443   5.828   5.866   3.965 -0.3731  0.5775 -0.8630
14343TIP3    H164444   5.844   5.950   3.922 -1.3982  1.2885  0.0830
14343TIP3    H264445   5.759   5.884   4.029  0.2852 -0.7028  0.2748
14344TIP3   OH264446   5.424   1.598  11.247  0.2905 -0.3243  0.0246
14344TIP3    H164447   5.456   1.535  11.312  2.0069  0.0060 -0.4491
14344TIP3    H264448   5.498   1.657  11.233 -1.5955  2.5016  1.2283
14345TIP3   OH264449   1.894   3.993   4.105 -0.2615  0.6884 -0.1529
14345TIP3    H164450   1.873   4.039   4.024 -0.8130  1.4912  0.4282
14345TIP3    H264451   1.942   4.058   4.158  1.6497 -0.3695 -0.5061
14346TIP3   OH264452   0.140   3.821   5.498  0.5241 -0.1881 -0.3898
14346TIP3    H164453   0.135   3.902   5.549  1.1026 -0.5761  0.2945
14346TIP3    H264454   0.063   3.824   5.441 -0.5702 -0.0815  1.0327
14347TIP3   OH264455   1.603   6.631  13.620  0.4164 -0.4027 -0.0584
14347TIP3    H164456   1.512   6.605  13.629  0.5361 -1.9711 -2.4138
14347TIP3    H264457   1.623   6.677  13.702 -2.7127  0.8576  0.1436
14348TIP3   OH264458   3.187   0.492   0.681  0.0187  0.1001  0.0408
14348TIP3    H164459   3.101   0.470   0.717 -0.5364  1.6732 -0.2528
14348TIP3    H264460   3.246   0.489   0.756  0.1277 -2.8439 -0.0635
14349TIP3   OH264461   2.618   0.533   0.449 -0.2917  0.3176  0.0305
14349TIP3    H164462   2.589   0.588   0.376 -1.8081 -0.7859 -0.2424
14349TIP3    H264463   2.545   0.536   0.511 -1.7531 -3.4682 -1.1922
14350TIP3   OH264464   4.070   3.081   5.900 -0.3075 -0.1113  0.3802
14350TIP3    H164465   4.103   3.169   5.918  0.3549 -0.5383  1.3158
14350TIP3    H264466   3.985   3.096   5.858 -0.8575  0.9722  1.7817
14351TIP3   OH264467   6.115   5.038  13.818 -0.1764 -0.2098  0.3214
14351TIP3    H164468   6.053   5.105  13.789 -0.5083 -0.2256  0.9756
14351TIP3    H264469   6.087   5.017  13.907  1.2687  0.3888  0.9568
14352TIP3   OH264470   0.849   1.461   2.528 -0.0719  0.5226  0.0839
14352TIP3    H164471   0.756   1.469   2.546 -0.3198 -1.7035  0.0234
14352TIP3    H264472   0.889   1.536   2.573 -1.7037  0.6671  1.3703
14353TIP3   OH264473   2.470   6.723   2.670 -0.9117  0.1758 -0.2456
14353TIP3    H164474   2.478   6.671   2.749  2.6969  0.2368 -0.4024
14353TIP3    H264475   2.392   6.777   2.684 -1.2625 -0.9116  2.5629
14354TIP3   OH264476   3.025   1.218  14.475  0.5861 -0.7270  0.5568
14354TIP3    H164477   2.944   1.209  14.426  2.2786  0.1226 -2.7035
14354TIP3    H264478   2.999   1.255  14.559 -2.5514 -2.5798  0.5540
14355TIP3   OH264479   5.469   4.693   1.237  0.2024 -0.4276 -0.4445
14355TIP3    H164480   5.375   4.674   1.249  0.1908 -2.0697 -2.5143
14355TIP3    H264481   5.473   4.745   1.157  0.9640  1.2471  0.6435
14356TIP3   OH264482   6.626   0.716  12.398  0.5254  0.3583  0.3974
14356TIP3    H164483   6.548   0.714  12.454  0.5207 -0.7505  0.3707
14356TIP3    H264484   6.596   0.756  12.317 -0.1068 -0.3162  0.2804
14357TIP3   OH264485   6.450   3.187   3.662 -0.4667 -0.0454  0.1472
14357TIP3    H164486   6.538   3.219   3.644 -0.6316 -0.2205 -1.1119
14357TIP3    H264487   6.415   3.249   3.726 -0.1491  1.2974 -0.9078
14358TIP3   OH264488   0.345   4.504  14.320 -0.0619  0.6277 -0.7753
14358TIP3    H164489   0.252   4.494  14.340 -0.4264  2.6687 -1.2331
14358TIP3    H264490   0.356   4.597  14.302  2.7724  1.2159  2.8460
14359TIP3   OH264491   5.302   2.344  11.973 -0.1654  0.2556  0.6375
14359TIP3    H164492   5.233   2.282  11.996 -1.3688  1.3319  0.0537
14359TIP3    H264493   5.260   2.403  11.910  1.0920  1.3692  0.8221
14360TIP3   OH264494   1.767   0.937  12.551 -0.2387  0.1394 -0.4562
14360TIP3    H164495   1.812   0.973  12.474  0.2100  1.0036  0.2004
14360TIP3    H264496   1.829   0.950  12.623 -0.5438 -0.9087  0.0098
14361TIP3   OH264497   6.236   0.318   4.198 -0.8000  0.3192  0.2599
14361TIP3    H164498   6.206   0.293   4.286  0.1456  0.0563  0.5268
14361TIP3    H264499   6.200   0.405   4.184 -1.2220  0.2349  0.7826
14362TIP3   OH264500   2.396   6.213   3.275  0.1989 -0.0219 -0.2199
14362TIP3    H164501   2.460   6.170   3.332  0.2078 -0.5069 -0.5927
14362TIP3    H264502   2.426   6.304   3.269  0.0914  0.0790  0.7011
14363TIP3   OH264503   3.448   0.558  15.863  0.1951 -0.0285 -0.5127
14363TIP3    H164504   3.526   0.584  15.911 -2.5331  2.0632  3.3182
14363TIP3    H264505   3.412   0.641  15.829 -0.5062 -0.9162 -2.0425
14364TIP3   OH264506   0.763   4.472   1.100  0.6310 -0.2591  0.2713
14364TIP3    H164507   0.672   4.444   1.092  1.5192 -3.1658 -1.3205
14364TIP3    H264508   0.761   4.566   1.082 -1.9595 -0.3416 -0.2897
14365TIP3   OH264509   2.160   1.030  16.416  0.1138 -0.0061 -0.5501
14365TIP3    H164510   2.237   1.082  16.441  0.1284 -1.0060  1.7540
14365TIP3    H264511   2.109   1.023  16.497 -0.7388 -2.0892 -1.2046
14366TIP3   OH264512   1.298   0.253  12.941  0.1760 -0.0744  0.1723
14366TIP3    H164513   1.321   0.195  12.868  0.6057  0.4178 -0.0811
14366TIP3    H264514   1.264   0.193  13.009 -0.2930 -0.5253 -0.4495
14367TIP3   OH264515   6.151   5.863  14.674  0.5461 -0.1585 -0.1900
14367TIP3    H164516   6.223   5.850  14.735  1.6755  0.8435 -1.2499
14367TIP3    H264517   6.154   5.956  14.654 -1.1870 -0.0546 -0.1256
14368TIP3   OH264518   2.276   6.764  12.330  0.2929  0.0589 -0.5654
14368TIP3    H164519   2.227   6.821  12.270 -0.7123  0.8528  0.9459
14368TIP3    H264520   2.365   6.763  12.294 -0.1076  1.0788 -1.6674
14369TIP3   OH264521   1.072   3.207   4.394  0.2699  0.4274  0.2338
14369TIP3    H164522   1.122   3.142   4.443 -0.2056  1.3552  1.9940
14369TIP3    H264523   1.137   3.271   4.365  0.6726 -0.5394 -1.1350
14370TIP3   OH264524   3.202   2.587  14.616  0.2172  0.0575 -0.1222
14370TIP3    H164525   3.124   2.581  14.561 -0.5927  0.7270  0.9344
14370TIP3    H264526   3.262   2.642  14.565  0.3052 -0.9952 -1.2357
14371TIP3   OH264527   0.414   5.528   4.635 -0.3931  0.1762  0.4046
14371TIP3    H164528   0.412   5.437   4.604  1.2174  0.2018  0.1221
14371TIP3    H264529   0.363   5.527   4.716  0.3440 -1.1877  0.8850
14372TIP3   OH264530   5.061   0.274  13.510 -0.2596  0.0018 -0.1504
14372TIP3    H164531   5.104   0.192  13.537  0.1335  0.3029  0.1588
14372TIP3    H264532   4.984   0.246  13.460  0.0386 -0.5552 -0.3070
14373TIP3   OH264533   0.439   3.090   5.452  0.5451 -0.3806 -0.0184
14373TIP3    H164534   0.370   3.156   5.446  2.1472  1.3321 -0.5694
14373TIP3    H264535   0.398   3.009   5.421 -1.0659  0.6731 -0.7681
14374TIP3   OH264536   0.904   2.676   2.838  0.3630  0.5259 -0.2850
14374TIP3    H164537   0.899   2.585   2.868  3.0213  1.1120  2.4597
14374TIP3    H264538   0.822   2.716   2.868 -1.4086 -1.1223 -2.6058
14375TIP3   OH264539   0.317   6.211   0.231 -0.1262  0.0740  0.1552
14375TIP3    H164540   0.247   6.230   0.293 -2.0436  0.5419 -2.0323
14375TIP3    H264541   0.285   6.138   0.179  1.2210 -0.0023 -0.6292
14376TIP3   OH264542   0.073   2.789  11.848  0.3970 -0.4079  0.4516
14376TIP3    H164543   0.066   2.863  11.788  0.3962 -2.3510 -2.0867
14376TIP3    H264544   0.155   2.805  11.896  1.0392  0.6242 -0.9255
14377TIP3   OH264545   4.928   3.205   2.119  0.6172 -0.2878 -0.0566
14377TIP3    H164546   4.935   3.203   2.214  0.0843  1.5212  0.0631
14377TIP3    H264547   4.846   3.160   2.099  0.2124  0.2318  0.4218
14378TIP3   OH264548   4.850   3.541  16.897  0.2228 -0.1766 -0.1192
14378TIP3    H164549   4.882   3.598  16.828  1.2884  0.1919  0.6476
14378TIP3    H264550   4.870   3.588  16.979 -2.3552  0.0840  0.4230
14379TIP3   OH264551   3.429   3.184  16.187  0.0063 -0.2770  0.0822
14379TIP3    H164552   3.386   3.267  16.167 -0.7688 -0.4883  0.8227
14379TIP3    H264553   3.503   3.180  16.127 -1.1106  0.0178 -1.3815
14380TIP3   OH264554   6.339   0.815   2.212 -0.2598  0.3478  0.3130
14380TIP3    H164555   6.380   0.862   2.285 -0.9580  0.7549  0.4495
14380TIP3    H264556   6.257   0.782   2.247 -1.8408  2.7164 -0.9409
14381TIP3   OH264557   3.204   2.122   1.673  0.1806 -0.7902 -0.3785
14381TIP3    H164558   3.144   2.085   1.738  1.4405  0.3831  1.5460
14381TIP3    H264559   3.267   2.052   1.656 -0.1321 -1.0905 -0.3113
14382TIP3   OH264560   6.354   5.136   4.608 -0.4980  0.1365  0.6117
14382TIP3    H164561   6.428   5.093   4.651  0.0706  0.4995  0.0268
14382TIP3    H264562   6.330   5.078   4.537  0.3788  0.8292 -0.2815
14383TIP3   OH264563   0.269   4.071  11.249  0.6103  0.1138  0.0798
14383TIP3    H164564   0.322   3.992  11.265  0.1792 -0.1075  0.4373
14383TIP3    H264565   0.182   4.047  11.279  0.3191  0.4999 -0.4558
14384TIP3   OH264566   6.086   1.886   2.404 -0.2712  0.3180 -0.1717
14384TIP3    H164567   6.168   1.933   2.389 -1.4511  2.5205 -0.1523
14384TIP3    H264568   6.068   1.842   2.321  2.7957 -3.5700  0.9093
14385TIP3   OH264569   2.556   2.732  16.041 -0.0719  0.4002 -0.2327
14385TIP3    H164570   2.471   2.776  16.040  0.0274  0.5943 -1.0161
14385TIP3    H264571   2.535   2.639  16.046 -0.3847  0.3702 -1.6131
14386TIP3   OH264572   4.285   6.080   1.030 -0.3302 -0.2037 -0.5192
14386TIP3    H164573   4.215   6.040   0.979  0.5412 -0.2486 -1.7170
14386TIP3    H264574   4.303   6.163   0.985  1.1965 -0.7518 -0.9677
14387TIP3   OH264575   5.249   0.722   0.091  0.5956 -0.1210  0.5322
14387TIP3    H164576   5.295   0.659   0.035  1.6773  0.1054  1.1337
14387TIP3    H264577   5.289   0.710   0.177  0.7199  1.2894  0.6836
14388TIP3   OH264578   4.555   3.882   4.605 -0.0173 -0.2491 -0.1100
14388TIP3    H164579   4.473   3.840   4.580  0.8655 -1.6861 -0.7166
14388TIP3    H264580   4.596   3.820   4.665  1.9185 -0.9566 -2.0216
14389TIP3   OH264581   1.742   4.469   5.957  0.3861  0.2893  0.3787
14389TIP3    H164582   1.694   4.532   6.011  0.3300  0.1468  0.4966
14389TIP3    H264583   1.701   4.475   5.871 -0.8887 -0.9339  0.8503
14390TIP3   OH264584   2.588   6.360   1.103  0.1057 -0.8399 -0.5751
14390TIP3    H164585   2.632   6.428   1.052 -0.9447 -0.1890 -0.6390
14390TIP3    H264586   2.619   6.374   1.193 -1.5211  0.9885 -0.2204
14391TIP3   OH264587   2.466   6.660   0.779 -0.8241  0.1742 -0.1639
14391TIP3    H164588   2.504   6.739   0.740 -0.8369  0.2198 -0.0841
14391TIP3    H264589   2.382   6.649   0.733 -1.1209  0.5688  0.2628
14392TIP3   OH264590   3.218   6.478   6.383  0.0943 -0.2995 -0.3789
14392TIP3    H164591   3.254   6.552   6.335 -0.1862 -0.4490 -0.8252
14392TIP3    H264592   3.232   6.403   6.326  3.3556 -1.2326  1.4086
14393TIP3   OH264593   0.744   3.639   3.610  0.1556 -0.0628  0.2219
14393TIP3    H164594   0.675   3.685   3.562 -0.2314 -0.8664  0.0055
14393TIP3    H264595   0.819   3.639   3.551  0.6564  1.5946  0.7931
14394TIP3   OH264596   6.745   6.657   4.612 -0.0002 -0.1610  0.5371
14394TIP3    H164597   6.795   6.639   4.692 -0.7784  0.5694  1.2114
14394TIP3    H264598   6.743   6.752   4.606  3.6998 -0.0537 -2.7522
14395TIP3   OH264599   2.723   1.141  11.645 -0.5214 -0.8914  0.0952
14395TIP3    H164600   2.696   1.186  11.725  0.5898  0.8856 -0.4859
14395TIP3    H264601   2.765   1.060  11.676  0.1797 -0.0774  1.3394
14396TIP3   OH264602   1.650   1.683  11.484  0.0715  0.1983  0.5775
14396TIP3    H164603   1.638   1.677  11.579  2.4410  1.7381  1.0636
14396TIP3    H264604   1.742   1.659  11.470  0.3718  2.0505 -1.0500
14397TIP3   OH264605   3.654   5.579  10.277  0.2972  0.7359 -0.3349
14397TIP3    H164606   3.749   5.584  10.269  0.4058 -2.7143 -3.5700
14397TIP3    H264607   3.621   5.601  10.190 -1.7572  0.1231  0.2268
14398TIP3   OH264608   0.031   6.615   3.647  0.5203 -0.5609  0.3881
14398TIP3    H164609   0.093   6.602   3.576  0.0333  1.7122 -0.5392
14398TIP3    H264610   0.061   6.694   3.692 -0.5494 -0.5713  1.1822
14399TIP3   OH264611   5.338   4.167   3.233 -0.5166  0.1550 -0.1502
14399TIP3    H164612   5.400   4.116   3.285 -0.3722  0.2559 -0.2253
14399TIP3    H264613   5.267   4.188   3.295 -0.9403 -0.7651 -0.3040
14400TIP3   OH264614   5.087   5.941   0.302  0.2225  0.2102  0.3145
14400TIP3    H164615   5.036   5.968   0.378  0.5791  2.6341 -0.2141
14400TIP3    H264616   5.178   5.945   0.331  0.4274  2.1093 -0.4205
14401TIP3   OH264617   1.777   6.732   5.281  0.8913  0.3562 -0.6210
14401TIP3    H164618   1.766   6.786   5.202  0.0546 -0.7435 -1.2893
14401TIP3    H264619   1.829   6.657   5.252 -0.2096 -0.5309 -0.3940
14402TIP3   OH264620   6.670   2.963   5.203 -0.0409 -0.3660  0.3308
14402TIP3    H164621   6.695   2.991   5.291 -1.3868  0.0223  0.6223
14402TIP3    H264622   6.742   2.909   5.173  1.9126  2.0060  0.4314
14403TIP3   OH264623   6.327   0.756   0.869 -0.0713  0.5058 -0.1437
14403TIP3    H164624   6.281   0.683   0.827  1.8499 -0.1390 -1.2632
14403TIP3    H264625   6.330   0.825   0.803 -0.6674  1.0827  0.4229
14404TIP3   OH264626   6.369   0.954  14.114  0.0374  0.3243 -0.2695
14404TIP3    H164627   6.451   0.914  14.086  0.0043 -0.2553  0.4528
14404TIP3    H264628   6.396   1.026  14.171  0.0416 -0.9749  1.4542
14405TIP3   OH264629   2.219   1.463   1.149 -0.0163 -0.0330 -0.8919
14405TIP3    H164630   2.176   1.377   1.150  0.4440 -0.2697  0.6672
14405TIP3    H264631   2.159   1.519   1.100 -1.5537 -0.6429  0.2095
14406TIP3   OH264632   0.236   0.103   2.840 -0.3057  0.1291  0.3380
14406TIP3    H164633   0.229   0.008   2.830 -0.0811  0.0440  0.9244
14406TIP3    H264634   0.246   0.136   2.751  0.4611 -0.4683  0.1931
14407TIP3   OH264635   2.019   6.390   3.795 -0.2432 -0.0001  0.3467
14407TIP3    H164636   1.940   6.335   3.797  0.3993 -0.9460  0.4322
14407TIP3    H264637   2.024   6.427   3.883 -0.4910 -0.0941  0.4027
14408TIP3   OH264638   0.999   3.543   0.088  0.1469 -0.0089  0.3148
14408TIP3    H164639   1.056   3.562   0.014 -1.0282  1.6585 -0.2335
14408TIP3    H264640   1.055   3.496   0.150  1.4803 -0.3726 -1.1040
14409TIP3   OH264641   3.647   5.316   1.664 -0.1764 -0.2687  0.3348
14409TIP3    H164642   3.677   5.393   1.616 -1.4950  0.4844  0.6684
14409TIP3    H264643   3.617   5.256   1.596  0.4899 -0.3298  0.0909
14410TIP3   OH264644   1.990   2.430  12.973  0.5448 -0.4032 -0.4224
14410TIP3    H164645   2.016   2.501  12.914  2.6082 -0.4080  0.3995
14410TIP3    H264646   1.979   2.354  12.916  1.8292 -0.2418 -0.9282
14411TIP3   OH264647   4.309   5.285   4.677 -0.2991  0.3865 -0.3194
14411TIP3    H164648   4.358   5.204   4.663 -1.9631 -0.5805 -0.8615
14411TIP3    H264649   4.368   5.354   4.647  1.6614 -0.4596  1.3494
14412TIP3   OH264650   6.583   2.530   0.881  0.4782 -0.4927  0.0090
14412TIP3    H164651   6.493   2.553   0.858  0.5639 -0.7831 -0.6338
14412TIP3    H264652   6.629   2.526   0.797  0.9322 -1.0098  0.2776
14413TIP3   OH264653   4.116   0.489   2.222  0.2474 -0.2167 -0.2363
14413TIP3    H164654   4.126   0.499   2.127 -1.2137 -0.2385 -0.4121
14413TIP3    H264655   4.165   0.562   2.259  0.5062  0.0222 -1.0259
14414TIP3   OH264656   1.599   0.326  15.760 -0.0620  0.4482  0.2033
14414TIP3    H164657   1.515   0.282  15.772  0.6052 -1.5955 -1.9559
14414TIP3    H264658   1.665   0.261  15.784  0.9470  1.3393 -0.0280
14415TIP3   OH264659   0.204   6.653  13.206 -0.1412 -0.1861 -0.2944
14415TIP3    H164660   0.184   6.742  13.177 -0.2304 -0.6895 -1.8891
14415TIP3    H264661   0.119   6.616  13.228  0.0889  0.8498  2.8263
14416TIP3   OH264662   2.124   6.308   3.304 -0.0293  0.3120 -0.2509
14416TIP3    H164663   2.209   6.264   3.309  0.7298  1.6986 -0.5655
14416TIP3    H264664   2.069   6.248   3.254  0.9334 -0.3264 -0.5708
14417TIP3   OH264665   2.725   3.619   2.773  0.4482  0.2659  0.6472
14417TIP3    H164666   2.818   3.597   2.770  0.6574  0.6599  2.6147
14417TIP3    H264667   2.681   3.534   2.783  0.8993  0.2350  3.1781
14418TIP3   OH264668   5.909   3.627  15.418  0.1864  0.4017 -0.2011
14418TIP3    H164669   6.003   3.624  15.437  0.2345 -1.4085 -0.5953
14418TIP3    H264670   5.868   3.570  15.483 -0.3727 -0.5404 -1.3283
14419TIP3   OH264671   2.297   6.128   4.896 -0.1344 -0.2624 -0.2522
14419TIP3    H164672   2.238   6.155   4.966 -1.3958  0.0358 -1.3986
14419TIP3    H264673   2.365   6.077   4.941  0.3402  1.7774  1.4853
14420TIP3   OH264674   3.294   3.079  14.523  0.1254 -0.0395 -0.0033
14420TIP3    H164675   3.238   3.108  14.451  1.2964  1.0068 -0.5324
14420TIP3    H264676   3.361   3.147  14.530  2.8914 -2.4318 -1.1319
14421TIP3   OH264677   6.388   6.337   5.402 -0.0108 -0.7729 -0.1237
14421TIP3    H164678   6.416   6.310   5.489  0.6901 -0.0995 -0.1168
14421TIP3    H264679   6.426   6.272   5.343 -0.4642 -1.2146  0.0637
14422TIP3   OH264680   3.411   2.916  15.492 -0.4127  0.6212  0.6983
14422TIP3    H164681   3.325   2.932  15.454  0.6558  1.9054 -1.3048
14422TIP3    H264682   3.433   2.827  15.466 -1.4806 -0.0757  2.0314
14423TIP3   OH264683   5.749   1.972  11.157  0.1636  0.0845 -0.4673
14423TIP3    H164684   5.821   1.938  11.105  1.2741  0.8002  0.5397
14423TIP3    H264685   5.697   2.024  11.096  0.8578  0.0699 -1.0812
14424TIP3   OH264686   1.836   3.576  16.997 -0.2678 -0.1380  0.7360
14424TIP3    H164687   1.743   3.557  16.988 -0.0324 -0.7627 -0.5193
14424TIP3    H264688   1.876   3.492  17.020  0.2631 -0.4055 -1.0121
14425TIP3   OH264689   4.715   3.457  12.943  0.3935 -0.2047 -0.1259
14425TIP3    H164690   4.727   3.484  12.852 -0.6339 -0.7126 -0.4317
14425TIP3    H264691   4.765   3.520  12.994  0.4357  0.4870 -1.0052
14426TIP3   OH264692   2.943   1.072  11.416  0.5535 -0.3422  0.4276
14426TIP3    H164693   2.915   1.037  11.500 -0.8286 -0.7127 -0.1601
14426TIP3    H264694   2.969   1.163  11.434 -0.7213 -0.0938  1.0807
14427TIP3   OH264695   6.683   0.331   3.599  0.0525  0.1032  0.0243
14427TIP3    H164696   6.675   0.236   3.595 -1.7161  0.1271  1.6157
14427TIP3    H264697   6.594   0.364   3.588  0.8793  1.7453 -2.6639
14428TIP3   OH264698   3.288   4.055  12.359 -0.4821  0.4934 -0.0852
14428TIP3    H164699   3.367   4.011  12.390 -1.4792 -0.9935  0.4314
14428TIP3    H264700   3.257   4.001  12.287 -1.6460  0.4385  0.4465
14429TIP3   OH264701   0.163   5.483   5.083  0.2359  0.1724  0.0632
14429TIP3    H164702   0.141   5.540   5.156 -0.8402 -0.4035  0.2141
14429TIP3    H264703   0.222   5.418   5.121 -0.2265 -0.0557  0.4086
14430TIP3   OH264704   0.686   0.425  11.685 -0.3942 -0.3631  0.6957
14430TIP3    H164705   0.721   0.338  11.666  0.8948 -0.1240  1.8231
14430TIP3    H264706   0.655   0.457  11.600 -0.6390 -1.7986  0.2152
14431TIP3   OH264707   0.645   4.776   2.187  0.2411 -0.2119  0.3838
14431TIP3    H164708   0.616   4.753   2.275 -1.9002  2.2872  0.4564
14431TIP3    H264709   0.565   4.775   2.134  0.7745  2.1727 -0.5831
14432TIP3   OH264710   1.273   5.755  11.852 -0.1352  0.2796  0.2979
14432TIP3    H164711   1.269   5.757  11.756  0.6895 -1.1073  0.2010
14432TIP3    H264712   1.334   5.683  11.872 -1.2823 -0.3253  1.8769
14433TIP3   OH264713   6.442   5.039   1.572 -0.1663 -0.4346 -0.2389
14433TIP3    H164714   6.371   5.043   1.636  0.6339  1.9431  0.6167
14433TIP3    H264715   6.407   5.083   1.495 -0.2427 -0.9560 -0.5057
14434TIP3   OH264716   6.236   3.832   4.924  0.0742  0.2295  0.3916
14434TIP3    H164717   6.239   3.853   4.831 -1.7842  1.3445  0.5374
14434TIP3    H264718   6.275   3.745   4.930  2.8886  1.2442 -1.0060
14435TIP3   OH264719   3.700   1.542  12.432  0.1806 -0.0897  0.0344
14435TIP3    H164720   3.723   1.616  12.376 -1.1348  0.7283  0.5370
14435TIP3    H264721   3.780   1.488  12.435  1.1016  1.2017 -0.4754
14436TIP3   OH264722   0.659   0.419   3.840  0.0239 -0.3678  0.2746
14436TIP3    H164723   0.590   0.485   3.841 -1.6242 -1.9654 -1.0489
14436TIP3    H264724   0.707   0.435   3.759  0.3788 -0.0924  0.5338
14437TIP3   OH264725   3.622   4.441   4.167  1.0054  0.5424 -0.2673
14437TIP3    H164726   3.691   4.424   4.103  0.9216  0.4945 -0.3456
14437TIP3    H264727   3.541   4.415   4.123  0.9337  0.6266 -0.1869
14438TIP3   OH264728   6.182   6.458  11.368  0.2621 -0.1574 -0.3573
14438TIP3    H164729   6.255   6.513  11.396 -1.3744  0.1621  4.0344
14438TIP3    H264730   6.220   6.370  11.362  1.4728  0.3583 -0.4993
14439TIP3   OH264731   0.878   4.315   4.649  0.3396  0.0968  0.1077
14439TIP3    H164732   0.907   4.363   4.572  0.7247  0.3672  0.4146
14439TIP3    H264733   0.894   4.375   4.722  0.4875 -0.3598  0.4544
14440TIP3   OH264734   1.559   1.302   4.970 -0.5028  0.5811 -0.1647
14440TIP3    H164735   1.645   1.275   4.937 -1.1793 -0.3510 -1.2595
14440TIP3    H264736   1.501   1.230   4.947 -1.9247  1.9348 -1.0246
14441TIP3   OH264737   2.730   5.419   3.188 -0.2044  0.0823  0.0916
14441TIP3    H164738   2.709   5.451   3.100  0.2857  0.5875  0.1541
14441TIP3    H264739   2.819   5.452   3.205  0.5682 -1.7882 -0.0856
14442TIP3   OH264740   2.611   0.353  10.343  0.5328  0.2730 -0.8044
14442TIP3    H164741   2.615   0.438  10.298  0.5198 -0.0735 -1.4702
14442TIP3    H264742   2.581   0.292  10.276  2.4862 -0.6412 -0.9175
14443TIP3   OH264743   3.907   3.926   0.698 -0.2240 -0.0862 -0.6661
14443TIP3    H164744   3.814   3.948   0.700 -0.2993 -0.3700 -0.9061
14443TIP3    H264745   3.938   3.944   0.787 -0.4592  0.2197 -0.6451
14444TIP3   OH264746   6.544   2.249  13.833  0.5858  0.1956  0.6510
14444TIP3    H164747   6.524   2.214  13.746  0.2833  0.2032  0.7200
14444TIP3    H264748   6.594   2.179  13.876 -0.0168 -0.1520  0.7897
14445TIP3   OH264749   1.860   2.549  15.392 -0.2486 -0.0493  0.5411
14445TIP3    H164750   1.821   2.578  15.309  0.1719 -1.0192 -0.0123
14445TIP3    H264751   1.890   2.630  15.434 -0.0366  0.4149 -0.4715
14446TIP3   OH264752   5.310   1.774   6.043 -0.2590  0.4901 -0.0063
14446TIP3    H164753   5.367   1.703   6.073  0.4826  0.9854 -0.2177
14446TIP3    H264754   5.222   1.744   6.063 -0.0489 -0.9815 -1.0744
14447TIP3   OH264755   0.856   2.467   0.903 -0.3391 -0.2753  0.0661
14447TIP3    H164756   0.824   2.459   0.813  0.8547  0.0058 -0.4120
14447TIP3    H264757   0.862   2.377   0.934  0.2980 -0.4593 -0.5480
14448TIP3   OH264758   6.647   0.664   2.765 -0.0422 -0.3748 -0.1653
14448TIP3    H164759   6.689   0.719   2.832 -0.7146 -0.6541  0.5000
14448TIP3    H264760   6.697   0.583   2.766 -1.2503 -1.1569  1.4493
14449TIP3   OH264761   1.956   4.627   5.109  0.6096 -0.6758  0.3753
14449TIP3    H164762   1.982   4.698   5.168 -0.3695  0.1335 -0.1405
14449TIP3    H264763   1.978   4.660   5.021 -1.1123 -0.4121  0.0152
14450TIP3   OH264764   6.151   6.059  12.023  0.1606 -0.1432 -0.3837
14450TIP3    H164765   6.177   6.089  11.936  3.5632 -0.3721  0.4252
14450TIP3    H264766   6.136   5.965  12.013  3.8421 -0.8950 -0.2559
14451TIP3   OH264767   5.558   0.205   2.621  0.2875 -0.3014 -0.1571
14451TIP3    H164768   5.633   0.187   2.678 -0.3779 -1.9817  0.2661
14451TIP3    H264769   5.537   0.297   2.636  0.9714 -0.3580  1.3190
14452TIP3   OH264770   5.591   1.847  11.340  0.0940 -0.1542 -0.0222
14452TIP3    H164771   5.627   1.914  11.282 -2.4292 -0.2942 -1.9131
14452TIP3    H264772   5.665   1.789  11.357  1.3217  0.7520 -1.8790
14453TIP3   OH264773   1.915   6.123  16.066  0.2985  0.4901  0.7079
14453TIP3    H164774   1.982   6.131  16.133 -1.2654  0.1601  2.3781
14453TIP3    H264775   1.874   6.038  16.083  0.2508  0.1229 -1.0588
14454TIP3   OH264776   1.538   5.272   1.274  0.2870 -0.0185  0.1302
14454TIP3    H164777   1.461   5.326   1.294  0.5088  0.1800  0.4707
14454TIP3    H264778   1.531   5.198   1.335  0.2265 -0.1350 -0.0192
14455TIP3   OH264779   5.152   5.036  15.697 -0.5420 -0.6922 -0.5660
14455TIP3    H164780   5.184   5.117  15.736 -1.1067  0.0990 -1.7110
14455TIP3    H264781   5.171   4.969  15.763  0.0011  0.3458  0.3640
14456TIP3   OH264782   4.849   2.949  14.089 -0.1524  0.0925 -0.0145
14456TIP3    H164783   4.767   2.964  14.042 -0.1547 -1.2048 -0.4774
14456TIP3    H264784   4.872   3.034  14.126 -1.3036  0.6453 -0.5232
14457TIP3   OH264785   3.002   6.023   3.606  0.2902  0.3577  0.4268
14457TIP3    H164786   2.986   5.947   3.661  0.4977  1.3122  1.8424
14457TIP3    H264787   2.921   6.074   3.611 -0.1159 -0.0855 -1.0875
14458TIP3   OH264788   6.140   3.678   1.359  0.4261  0.2959 -0.0543
14458TIP3    H164789   6.147   3.646   1.450  2.3963 -0.9230 -0.5655
14458TIP3    H264790   6.227   3.661   1.322 -0.3110  0.8909 -2.1364
14459TIP3   OH264791   5.582   0.867   4.269  0.7689 -0.3525  0.4974
14459TIP3    H164792   5.599   0.793   4.327  1.2717 -1.0211 -0.4667
14459TIP3    H264793   5.663   0.878   4.219  0.4308  0.3472  0.0799
14460TIP3   OH264794   1.921   4.460  12.575  0.0892 -0.4988  0.5124
14460TIP3    H164795   1.841   4.493  12.535 -0.5975 -1.3719  1.1142
14460TIP3    H264796   1.990   4.478  12.511 -0.7837 -0.8321 -0.5440
14461TIP3   OH264797   2.576   6.286   4.744 -0.0770  0.5132 -0.4714
14461TIP3    H164798   2.641   6.336   4.695 -0.0141 -1.0665 -2.1085
14461TIP3    H264799   2.616   6.273   4.830  1.7225 -0.2011 -1.3573
14462TIP3   OH264800   3.967   2.621  11.277  0.0557  0.5282 -0.3002
14462TIP3    H164801   3.971   2.658  11.366 -1.2729  1.0941 -0.4382
14462TIP3    H264802   3.877   2.589  11.270  0.5111 -0.6326 -1.0246
14463TIP3   OH264803   3.491   3.251   4.345  0.2077 -0.4641 -0.2221
14463TIP3    H164804   3.477   3.331   4.396  0.6209  0.7804 -1.9862
14463TIP3    H264805   3.584   3.230   4.360  0.0967 -0.6406  0.2523
14464TIP3   OH264806   1.908   1.986  12.324 -0.2463  0.4336 -0.0069
14464TIP3    H164807   1.903   2.016  12.415 -0.7696  2.2496 -0.5932
14464TIP3    H264808   1.840   2.035  12.279  0.1242 -0.3048 -1.4398
14465TIP3   OH264809   4.865   2.901   0.339  0.1756  0.1531  0.4395
14465TIP3    H164810   4.799   2.861   0.282 -1.2398  2.2244  0.5402
14465TIP3    H264811   4.875   2.990   0.306 -0.0321  1.1436  2.8567
14466TIP3   OH264812   1.822   4.861  11.482 -0.0988 -0.2246  0.1003
14466TIP3    H164813   1.846   4.946  11.447 -1.1418  0.1509  0.2725
14466TIP3    H264814   1.735   4.843  11.446  0.1130 -1.2215  0.0564
14467TIP3   OH264815   5.991   1.276  15.835 -0.1589  0.2298 -0.4602
14467TIP3    H164816   6.072   1.230  15.811 -0.7310  0.5218 -3.3305
14467TIP3    H264817   5.998   1.360  15.791 -0.7433  1.5247  1.7623
14468TIP3   OH264818   6.161   0.895  11.558  0.3064 -0.3077  0.2356
14468TIP3    H164819   6.100   0.923  11.627  0.9381  0.4075  0.5226
14468TIP3    H264820   6.173   0.801  11.573 -4.3176 -1.6797 -2.6247
14469TIP3   OH264821   2.793   2.064  11.714  0.2320  0.1979 -0.4854
14469TIP3    H164822   2.757   1.990  11.763  0.5974 -0.3042 -0.9649
14469TIP3    H264823   2.861   2.100  11.770  0.2189  0.0204 -0.3566
14470TIP3   OH264824   5.014   0.984  14.708  0.2867  0.4398 -0.1334
14470TIP3    H164825   4.950   0.946  14.649 -0.6234 -1.8180  2.1055
14470TIP3    H264826   5.084   0.919  14.713 -0.1200  0.0812  1.9085
14471TIP3   OH264827   5.330   0.331  11.930  0.4536  0.4587  0.7710
14471TIP3    H164828   5.295   0.339  12.018  0.2345  1.4553  0.6086
14471TIP3    H264829   5.253   0.314  11.875  0.7110 -1.2084  0.8856
14472TIP3   OH264830   5.791   4.328   1.864  0.0379 -0.5642 -0.9776
14472TIP3    H164831   5.846   4.261   1.905 -2.8521 -1.2627  2.2579
14472TIP3    H264832   5.717   4.279   1.828 -1.7241  0.6909  0.7275
14473TIP3   OH264833   1.302   6.338   2.626 -0.2761 -0.2558  0.3710
14473TIP3    H164834   1.320   6.432   2.633 -0.5862 -0.2751  1.5702
14473TIP3    H264835   1.211   6.333   2.597 -0.6267 -0.1800  1.4309
14474TIP3   OH264836   0.056   2.173  16.668  0.2331  0.1921  0.0847
14474TIP3    H164837   0.130   2.174  16.607  1.8977 -0.4499  1.9556
14474TIP3    H264838   0.048   2.081  16.694 -0.2579  0.4876  1.0043
14475TIP3   OH264839   3.163   4.703   1.351  0.3044  0.5567 -0.5476
14475TIP3    H164840   3.087   4.726   1.297 -1.7181 -1.5165  1.2215
14475TIP3    H264841   3.200   4.626   1.309 -0.3866 -0.1737  0.1329
14476TIP3   OH264842   0.795   0.081  14.341 -0.2682 -0.2317 -0.2875
14476TIP3    H164843   0.745   0.056  14.264  0.2958 -2.6748  0.0796
14476TIP3    H264844   0.866   0.017  14.347  2.3278  2.4431 -0.1557
14477TIP3   OH264845   4.400   0.522   4.376  0.2368 -1.0399 -0.2440
14477TIP3    H164846   4.309   0.497   4.359  0.5559 -1.5514 -1.2980
14477TIP3    H264847   4.449   0.440   4.368  0.2575 -1.9947  5.6083
14478TIP3   OH264848   4.143   1.475  15.797  0.5682  0.3505  0.0272
14478TIP3    H164849   4.108   1.564  15.798 -0.5008 -0.0390 -0.6657
14478TIP3    H264850   4.199   1.472  15.719 -1.6191 -0.3467 -1.6240
14479TIP3   OH264851   6.110   5.684   1.493 -0.1810 -0.0097  0.4562
14479TIP3    H164852   6.179   5.621   1.513 -0.3194 -0.4924 -0.4882
14479TIP3    H264853   6.157   5.765   1.473  0.1776 -0.4929 -0.7687
14480TIP3   OH264854   4.270   3.915   6.370 -0.3961 -0.1602 -0.1598
14480TIP3    H164855   4.340   3.902   6.434 -0.2439 -2.1497 -0.6692
14480TIP3    H264856   4.316   3.941   6.290 -0.4062  0.2166 -0.0472
14481TIP3   OH264857   6.456   2.323  10.977 -0.2879 -0.6686 -0.5543
14481TIP3    H164858   6.412   2.288  10.899 -0.9063 -0.1981 -0.4271
14481TIP3    H264859   6.493   2.406  10.948 -0.8633 -0.2993 -0.2507
14482TIP3   OH264860   0.451   1.228  16.345  0.3747  0.0032 -0.1490
14482TIP3    H164861   0.367   1.271  16.333  0.7098  0.3801 -1.2468
14482TIP3    H264862   0.445   1.148  16.293 -0.1323 -1.1670  1.6301
14483TIP3   OH264863   0.010   4.026   1.331 -0.3503 -0.7529  0.3456
14483TIP3    H164864   0.021   3.934   1.355  1.3734 -0.3495  1.2559
14483TIP3    H264865   0.092   4.050   1.288 -1.1987  0.0927 -0.8614
14484TIP3   OH264866   3.710   1.389  17.088  0.0517  0.2414 -0.2935
14484TIP3    H164867   3.690   1.300  17.059  1.1862 -0.9505  2.2638
14484TIP3    H264868   3.798   1.406  17.055  0.9294 -0.7131  1.4033
14485TIP3   OH264869   6.312   1.011   1.282 -0.0601 -0.1735 -0.3333
14485TIP3    H164870   6.277   1.039   1.197 -0.9253 -0.1129  0.0289
14485TIP3    H264871   6.392   1.062   1.293 -1.3129  1.8004  0.0644
14486TIP3   OH264872   5.204   2.039   2.552 -0.2095  0.9331  0.4649
14486TIP3    H164873   5.121   2.072   2.518 -0.2217 -0.4152 -0.9202
14486TIP3    H264874   5.189   2.030   2.646 -1.6086  0.7728  0.2434
14487TIP3   OH264875   4.392   2.521   3.799  0.1526 -0.0364  0.1934
14487TIP3    H164876   4.374   2.588   3.733 -0.2990  0.4857  0.8292
14487TIP3    H264877   4.314   2.519   3.854  0.8639  0.1975  1.2585
14488TIP3   OH264878   3.745   1.176   0.354  0.5022  0.4181  0.2061
14488TIP3    H164879   3.794   1.106   0.397  1.2261  1.9278  1.9669
14488TIP3    H264880   3.699   1.220   0.426 -0.2942  1.4799 -0.9175
14489TIP3   OH264881   1.832   0.530   0.923 -0.1323 -0.2475  0.7525
14489TIP3    H164882   1.753   0.491   0.887 -0.1445  0.6651 -0.2652
14489TIP3    H264883   1.874   0.460   0.973  0.1740 -1.7354 -1.4954
14490TIP3   OH264884   4.385   5.046  16.036  0.0996  0.4177  0.2365
14490TIP3    H164885   4.464   5.035  15.983  0.0890  1.8412 -0.1162
14490TIP3    H264886   4.354   5.134  16.014 -0.8733  0.3612  1.3208
14491TIP3   OH264887   3.428   0.563  15.216 -0.0153 -0.2141 -0.0241
14491TIP3    H164888   3.511   0.610  15.210 -0.4143  0.6607  0.9508
14491TIP3    H264889   3.362   0.632  15.223 -0.5374 -0.8659  2.5777
14492TIP3   OH264890   5.625   5.567  16.589 -0.1103  0.5496 -0.4277
14492TIP3    H164891   5.694   5.613  16.541  0.5880  0.0470  0.0809
14492TIP3    H264892   5.545   5.616  16.568  0.6984  2.4374  0.6346
14493TIP3   OH264893   1.223   1.311   4.360 -0.2871  0.2161 -0.3488
14493TIP3    H164894   1.295   1.324   4.298 -0.5486 -0.1493 -0.7364
14493TIP3    H264895   1.266   1.300   4.445  0.2442 -1.8033 -0.8256
14494TIP3   OH264896   1.750   3.404   3.689 -0.4884  0.3302 -0.0922
14494TIP3    H164897   1.715   3.360   3.767  1.8075  0.5431  1.1350
14494TIP3    H264898   1.734   3.497   3.705 -0.7366  0.3220 -0.2779
14495TIP3   OH264899   5.400   4.936  16.943 -0.0226 -0.4720  0.2771
14495TIP3    H164900   5.393   4.844  16.968 -1.2941 -0.0636  1.5545
14495TIP3    H264901   5.424   4.935  16.851 -1.8651 -2.1072 -0.2398
14496TIP3   OH264902   5.264   0.878   6.274  0.3989 -0.2047 -0.0756
14496TIP3    H164903   5.328   0.931   6.228 -0.5406  1.8956  0.8978
14496TIP3    H264904   5.229   0.818   6.208  3.9760 -2.1520 -0.4296
14497TIP3   OH264905   5.313   1.914  15.590 -0.6062  0.8530 -0.4803
14497TIP3    H164906   5.222   1.885  15.601 -0.3639  0.9186  2.5306
14497TIP3    H264907   5.306   1.997  15.543 -1.9745  0.3412 -1.2691
14498TIP3   OH264908   0.882   4.168   3.959  0.2884  0.2570  0.2558
14498TIP3    H164909   0.864   4.236   3.895 -0.2500  1.5103  1.6703
14498TIP3    H264910   0.846   4.088   3.921  1.0576  0.6964 -1.5000
14499TIP3   OH264911   0.838   3.103   1.118 -0.2727  0.2909  0.1660
14499TIP3    H164912   0.835   3.034   1.185 -1.0331  0.0667 -0.0885
14499TIP3    H264913   0.780   3.071   1.049  1.1092  0.1511 -0.9723
14500TIP3   OH264914   4.765   2.501  12.417  0.1200 -0.1248 -0.3988
14500TIP3    H164915   4.815   2.491  12.336 -1.3471 -1.7692 -1.1569
14500TIP3    H264916   4.686   2.549  12.392  0.8743  1.8062  0.6495
14501TIP3   OH264917   4.046   1.606   4.414  0.0130  0.2159 -0.4340
14501TIP3    H164918   3.981   1.676   4.407 -0.0005  0.2143 -0.3185
14501TIP3    H264919   4.097   1.613   4.333 -0.3246  0.0225 -0.6664
14502TIP3   OH264920   2.817   4.593   0.493  0.3690  0.1801  0.3473
14502TIP3    H164921   2.749   4.653   0.520 -0.4346 -0.2793 -0.5841
14502TIP3    H264922   2.771   4.522   0.447  1.4031 -0.4689  0.2534
14503TIP3   OH264923   0.749   6.344  14.015 -0.5588 -0.5819  0.2895
14503TIP3    H164924   0.807   6.286  13.965 -2.1768 -1.2690 -0.8948
14503TIP3    H264925   0.804   6.418  14.040  0.5910 -0.7348 -1.6171
14504TIP3   OH264926   4.321   5.167   5.161 -0.1254  0.4082 -0.2192
14504TIP3    H164927   4.316   5.072   5.164  0.3923  0.3871  1.9458
14504TIP3    H264928   4.233   5.195   5.137 -2.1832 -0.5969  4.8396
14505TIP3   OH264929   0.204   1.295  10.625  0.2591 -0.2377 -0.4788
14505TIP3    H164930   0.140   1.327  10.561 -0.6191  0.7588  0.8603
14505TIP3    H264931   0.159   1.223  10.670 -0.2539  0.9610  0.9921
14506TIP3   OH264932   5.535   5.671  14.656  0.4398 -0.0229 -0.0193
14506TIP3    H164933   5.534   5.723  14.576  1.3067 -2.1079 -1.4552
14506TIP3    H264934   5.444   5.644  14.668  0.5612 -1.0876 -1.2991
14507TIP3   OH264935   4.816   2.628  15.387  0.9137 -0.2233 -0.4224
14507TIP3    H164936   4.792   2.542  15.354 -2.3642  0.4441 -0.0496
14507TIP3    H264937   4.836   2.615  15.480  0.8385 -0.6229 -0.4647
14508TIP3   OH264938   4.650   1.909   1.591  0.2674 -0.1177  0.5131
14508TIP3    H164939   4.591   1.960   1.647 -0.2546  2.5444 -2.2169
14508TIP3    H264940   4.736   1.949   1.605  1.0291 -2.2327  2.4519
14509TIP3   OH264941   3.308   6.554   3.621  0.0460 -0.1412 -0.2760
14509TIP3    H164942   3.270   6.641   3.620  0.2722 -0.0358  0.1510
14509TIP3    H264943   3.398   6.567   3.651  0.1466 -0.4939 -0.4178
14510TIP3   OH264944   5.227   2.074   3.352  0.4433 -0.3014  0.3135
14510TIP3    H164945   5.266   2.057   3.266 -0.7738  0.9514 -0.5222
14510TIP3    H264946   5.263   2.159   3.378 -0.3884  0.0487  0.3306
14511TIP3   OH264947   6.045   1.479  16.442 -0.5905 -0.2962  0.1336
14511TIP3    H164948   5.994   1.407  16.480  2.5229 -2.8862 -0.2040
14511TIP3    H264949   6.049   1.458  16.349  0.9817 -0.1589  0.1426
14512TIP3   OH264950   3.674   3.190  11.246  0.0302 -0.0825 -0.4012
14512TIP3    H164951   3.680   3.241  11.165 -0.1218  1.3006  0.4437
14512TIP3    H264952   3.715   3.244  11.313 -0.4597 -0.9106  0.6032
14513TIP3   OH264953   0.725   0.993   2.045 -0.4547 -0.2276  0.2760
14513TIP3    H164954   0.704   0.910   2.088  0.6993  0.3040  1.9561
14513TIP3    H264955   0.713   1.059   2.113 -1.9671  1.1065 -1.1968
14514TIP3   OH264956   5.586   2.501  13.304  0.0009  0.3888 -0.1869
14514TIP3    H164957   5.509   2.558  13.302 -1.1897 -1.0992  0.8048
14514TIP3    H264958   5.625   2.517  13.390  0.5155  0.7721 -0.4890
14515TIP3   OH264959   2.107   1.320  11.872 -0.4816 -0.5312 -0.4741
14515TIP3    H164960   2.044   1.352  11.807  1.4051 -0.2088 -2.2720
14515TIP3    H264961   2.191   1.352  11.841  0.4344  0.5929  2.8007
14516TIP3   OH264962   2.088   4.251  14.511  0.0740  0.5555 -0.3666
14516TIP3    H164963   2.170   4.208  14.489 -0.0371  0.2687 -0.2244
14516TIP3    H264964   2.065   4.215  14.597 -0.6631 -0.0444 -0.8068
14517TIP3   OH264965   4.931   0.402  13.221 -0.0996  0.5072  0.1791
14517TIP3    H164966   4.881   0.372  13.298 -1.2830 -0.8912 -1.0665
14517TIP3    H264967   4.866   0.437  13.162 -0.1391 -3.2681 -2.4015
14518TIP3   OH264968   4.901   0.102   2.624  0.0300  0.4198  0.1186
14518TIP3    H164969   4.942   0.075   2.542 -0.4936 -0.0096 -0.0030
14518TIP3    H264970   4.974   0.134   2.678  0.7884 -1.9162  0.5726
14519TIP3   OH264971   1.627   3.469  11.822 -0.0029 -0.0231  0.0413
14519TIP3    H164972   1.702   3.435  11.870 -0.5604  0.7377  1.5251
14519TIP3    H264973   1.649   3.560  11.803 -0.4978  0.1820  0.4194
14520TIP3   OH264974   0.319   0.116   1.068 -0.1648  0.1872 -0.1680
14520TIP3    H164975   0.296   0.044   1.127  2.3309 -1.2679 -0.8501
14520TIP3    H264976   0.375   0.173   1.120  0.4133 -0.0411 -0.5306
14521TIP3   OH264977   5.585   1.727   1.758 -0.0761  0.0686 -0.2903
14521TIP3    H164978   5.664   1.679   1.782  0.3192  0.6332 -0.4302
14521TIP3    H264979   5.563   1.779   1.836 -0.7211 -0.6127 -0.0058
14522TIP3   OH264980   4.867   1.435  15.724  0.3202 -0.4144  0.2026
14522TIP3    H164981   4.882   1.342  15.706 -0.1707 -0.7759  1.4995
14522TIP3    H264982   4.784   1.454  15.681  1.6783  0.1597 -2.3281
14523TIP3   OH264983   4.559   1.826   3.529  0.2724 -0.4869  0.2054
14523TIP3    H164984   4.505   1.748   3.537  1.0002 -1.0607 -0.3682
14523TIP3    H264985   4.636   1.808   3.583  0.6794 -0.3751 -0.3342
14524TIP3   OH264986   4.040   4.777   5.720  0.5374  0.5222  0.7158
14524TIP3    H164987   3.983   4.711   5.760 -0.7974  1.6353  0.7292
14524TIP3    H264988   4.068   4.832   5.793  1.1193  0.3591  0.6178
14525TIP3   OH264989   3.926   1.213  12.956  0.8375  0.1961  0.5710
14525TIP3    H164990   3.857   1.247  12.898  1.9391 -0.9886 -1.5738
14525TIP3    H264991   4.008   1.240  12.914  1.6937 -1.8195  0.8245
14526TIP3   OH264992   6.228   2.132  12.008 -0.3903  0.0465  0.3775
14526TIP3    H164993   6.149   2.179  11.981 -0.2657  0.1421  0.1797
14526TIP3    H264994   6.297   2.199  12.009 -0.2995 -0.0474  0.4967
14527TIP3   OH264995   4.362   5.573   2.426 -0.1672 -0.2279 -0.1469
14527TIP3    H164996   4.421   5.543   2.357 -0.9108 -1.5186 -0.2609
14527TIP3    H264997   4.397   5.534   2.506 -0.6548 -0.7036 -0.1624
14528TIP3   OH264998   6.474   4.730  12.890  0.0876  0.3230  0.1074
14528TIP3    H164999   6.472   4.768  12.978 -2.1992  2.1173 -0.6508
14528TIP3    H265000   6.497   4.803  12.833  0.9144 -0.6874 -0.8945
14529TIP3   OH265001   1.197   2.713   0.105 -0.2535  0.0200  0.3692
14529TIP3    H165002   1.288   2.716   0.074 -0.5775 -1.1949 -0.7879
14529TIP3    H265003   1.149   2.671   0.034 -2.1262  2.4076  0.0824
14530TIP3   OH265004   5.788   0.516  16.952  0.4190 -0.4093 -0.0308
14530TIP3    H165005   5.847   0.454  16.909  3.4091  1.0458  1.5993
14530TIP3    H265006   5.701   0.481  16.938  1.5760 -2.4191 -3.1605
14531TIP3   OH265007   2.574   5.636   1.783  0.1577  0.0137  0.0796
14531TIP3    H165008   2.479   5.628   1.783  0.1886 -0.4064 -0.2171
14531TIP3    H265009   2.601   5.614   1.694  0.4922  0.7141  0.0020
14532TIP3   OH265010   6.261   2.718  13.196 -0.2915 -0.4981 -0.0404
14532TIP3    H165011   6.223   2.631  13.206 -0.5902 -0.2652  0.9131
14532TIP3    H265012   6.349   2.701  13.162 -0.3355 -1.1751  0.1602
14533TIP3   OH265013   2.025   4.665   4.323 -0.4214 -0.5486  0.4413
14533TIP3    H165014   2.002   4.699   4.410 -0.6264 -0.9734  0.5582
14533TIP3    H265015   2.095   4.602   4.340  0.6503  0.5135  0.1186
14534TIP3   OH265016   2.002   5.214  16.734 -0.6110 -0.0489  0.3543
14534TIP3    H165017   1.971   5.137  16.686 -1.3223  0.5321 -0.1364
14534TIP3    H265018   2.083   5.185  16.776 -0.8421 -1.0465  0.1317
14535TIP3   OH265019   5.700   2.604   2.725 -0.1146  0.4168 -0.0939
14535TIP3    H165020   5.741   2.610   2.811  1.1952 -0.2224 -0.6434
14535TIP3    H265021   5.613   2.569   2.742 -0.3138  1.4130  1.0718
14536TIP3   OH265022   6.043   5.108   4.506  0.3593  0.2650 -0.3859
14536TIP3    H165023   6.103   5.162   4.454 -1.8974  1.0109 -2.4145
14536TIP3    H265024   6.017   5.037   4.447 -1.1503  0.2674  0.2193
14537TIP3   OH265025   0.267   1.976   1.199 -0.4464  0.0502 -0.4710
14537TIP3    H165026   0.179   1.971   1.237  0.1819 -1.3494  0.9022
14537TIP3    H265027   0.252   2.001   1.108 -2.3848 -1.5718 -0.6699
14538TIP3   OH265028   1.965   5.707   4.010  0.0894 -0.3063 -0.2823
14538TIP3    H165029   1.889   5.729   3.955  1.3600  0.2167 -1.9191
14538TIP3    H265030   1.989   5.619   3.982  1.2243  0.2682 -1.1708
14539TIP3   OH265031   0.983   5.300   1.087 -0.1669 -0.0040 -0.1868
14539TIP3    H165032   0.929   5.326   1.162  0.5064  0.2819  0.2066
14539TIP3    H265033   0.951   5.213   1.064 -2.6727  1.1871 -1.7049
14540TIP3   OH265034   5.864   0.511   1.507 -0.6681 -0.0810  0.0085
14540TIP3    H165035   5.865   0.604   1.532 -0.5942  0.2795 -1.2840
14540TIP3    H265036   5.880   0.511   1.413  0.9979 -1.5201  0.2452
14541TIP3   OH265037   0.076   6.062   2.967  0.4614 -0.2699  0.4104
14541TIP3    H165038  -0.011   6.077   2.930 -0.5783 -3.0986  1.4263
14541TIP3    H265039   0.137   6.087   2.897 -1.2020  0.1079 -0.9677
14542TIP3   OH265040   0.618   2.859  15.510 -0.1192  0.3502  0.3205
14542TIP3    H165041   0.593   2.815  15.429 -0.7277  0.8906  0.2109
14542TIP3    H265042   0.535   2.877  15.554  0.2175 -0.2707  1.2449
14543TIP3   OH265043   5.043   0.939  12.318 -0.0562  0.2330 -0.2845
14543TIP3    H165044   5.132   0.974  12.316  0.3241 -0.6800 -2.1114
14543TIP3    H265045   5.034   0.893  12.234 -1.8616 -0.6493  0.3393
14544TIP3   OH265046   0.522   6.535  11.869  0.2935 -0.4833  0.4478
14544TIP3    H165047   0.599   6.484  11.843  0.7343 -0.2572  1.2732
14544TIP3    H265048   0.459   6.470  11.899 -0.0168 -0.7047 -0.6554
14545TIP3   OH265049   3.827   0.266   4.451  0.3561  0.5180 -0.4971
14545TIP3    H165050   3.898   0.236   4.509  0.7093  1.5101 -0.4025
14545TIP3    H265051   3.752   0.276   4.510 -0.2204 -1.6052 -0.7759
14546TIP3   OH265052   2.625   2.788  10.946 -0.3046  0.2256  0.1929
14546TIP3    H165053   2.676   2.816  10.870  0.4033  0.0408  0.5919
14546TIP3    H265054   2.535   2.785  10.915 -0.2981  2.1266 -0.0856
14547TIP3   OH265055   1.670   3.291   5.438  0.4870 -0.2457  0.3997
14547TIP3    H165056   1.737   3.255   5.495  1.4499  2.8076  1.4385
14547TIP3    H265057   1.591   3.293   5.491  1.4308  2.7859  1.9519
14548TIP3   OH265058   3.932   5.590   3.753  0.2282 -0.0002 -0.0648
14548TIP3    H165059   4.015   5.572   3.798  1.3031 -1.1133 -2.3406
14548TIP3    H265060   3.945   5.558   3.664 -2.2249  0.9876 -0.8718
14549TIP3   OH265061   5.123   5.245  12.974  0.1257  0.3534 -0.2152
14549TIP3    H165062   5.127   5.239  13.070  1.3226  0.8819 -0.2092
14549TIP3    H265063   5.034   5.275  12.955  0.3083  1.6230  0.8199
14550TIP3   OH265064   5.164   4.453  15.549 -0.4503  0.0783  0.2912
14550TIP3    H165065   5.208   4.368  15.541 -1.0037 -0.1026 -0.9900
14550TIP3    H265066   5.164   4.489  15.461  0.6687  1.8930  0.9691
14551TIP3   OH265067   5.846   2.477   4.706  1.0136 -0.0143 -0.2603
14551TIP3    H165068   5.840   2.384   4.685  0.6257  0.0447 -0.4169
14551TIP3    H265069   5.775   2.518   4.657  1.6451  0.4736 -0.7907
14552TIP3   OH265070   5.223   1.767   2.595  0.4985  0.1355  0.0356
14552TIP3    H165071   5.163   1.710   2.547 -0.7487  1.3381  0.1050
14552TIP3    H265072   5.224   1.848   2.544 -0.2690  1.1733  1.6026
14553TIP3   OH265073   5.610   6.078  11.208 -1.0943  0.1081  0.0701
14553TIP3    H165074   5.551   6.022  11.259 -2.2585  0.8343 -0.4071
14553TIP3    H265075   5.688   6.026  11.193 -2.8078 -2.1162 -1.9215
14554TIP3   OH265076   6.620   5.398  10.955 -0.3584 -0.1327 -0.1621
14554TIP3    H165077   6.539   5.395  11.006  0.0802 -2.1852  0.4990
14554TIP3    H265078   6.688   5.366  11.015  0.9241  1.2284 -0.8105
14555TIP3   OH265079   2.444   5.268   5.923  0.0086  0.4791  0.4521
14555TIP3    H165080   2.350   5.266   5.939 -0.4227  0.5595 -1.7856
14555TIP3    H265081   2.464   5.360   5.907 -0.1957  0.1188 -2.2704
14556TIP3   OH265082   2.730   2.603  13.414  0.6008  0.2865 -0.4210
14556TIP3    H165083   2.787   2.565  13.348  0.1098 -0.0164 -0.6801
14556TIP3    H265084   2.702   2.528  13.468 -2.7478 -0.3543 -2.7056
14557TIP3   OH265085   4.440   2.813  14.283 -0.3134 -0.2422 -0.0609
14557TIP3    H165086   4.363   2.776  14.240  1.3462 -0.7927 -2.8526
14557TIP3    H265087   4.446   2.902  14.250 -0.9745  0.6141  1.9800
14558TIP3   OH265088   0.859   2.365   3.596  0.5815  0.1267  0.1973
14558TIP3    H165089   0.925   2.410   3.543  1.3048 -0.3374  0.6872
14558TIP3    H265090   0.882   2.384   3.686  1.6134 -2.1130  0.4836
14559TIP3   OH265091   4.764   4.302   0.217  0.0771  0.1881 -0.4341
14559TIP3    H165092   4.747   4.383   0.169  0.7026  0.8013  0.3663
14559TIP3    H265093   4.732   4.319   0.305 -1.6742 -1.1580 -0.7432
14560TIP3   OH265094   4.734   0.493   3.773  1.1137  0.2547 -0.4017
14560TIP3    H165095   4.799   0.480   3.704  0.5264  0.1549 -0.9496
14560TIP3    H265096   4.758   0.576   3.814  1.2180  0.5338 -1.0165
14561TIP3   OH265097   3.739   0.474   5.777 -0.5675 -0.1091  0.3568
14561TIP3    H165098   3.675   0.527   5.824 -1.2670 -0.4506 -0.1849
14561TIP3    H265099   3.734   0.505   5.686  0.9749  0.7531  0.5189
14562TIP3   OH265100   2.579   1.467   2.349 -0.0476 -0.2194  0.1627
14562TIP3    H165101   2.670   1.443   2.366  0.1849  0.6052  0.1432
14562TIP3    H265102   2.560   1.536   2.413 -1.0664 -1.2375  1.0174
14563TIP3   OH265103   3.643   0.454   0.334 -0.1779  0.4033  0.3664
14563TIP3    H165104   3.636   0.488   0.424  1.1120  0.1434  0.5922
14563TIP3    H265105   3.730   0.483   0.305  0.6678 -1.9736  0.2885
14564TIP3   OH265106   0.271   4.047  12.347 -0.5328 -0.0347 -0.2056
14564TIP3    H165107   0.332   3.976  12.367  1.4003  1.2152 -1.3650
14564TIP3    H265108   0.261   4.094  12.429 -2.8932 -2.2802  0.9537
14565TIP3   OH265109   6.708   2.637  15.794 -0.2209  0.1087  0.4369
14565TIP3    H165110   6.754   2.667  15.872 -0.1846  0.4274  0.2914
14565TIP3    H265111   6.636   2.698  15.783  0.9410  1.3063 -0.9475
14566TIP3   OH265112   0.461   6.229   5.343 -0.2365 -0.2764 -0.2236
14566TIP3    H165113   0.375   6.189   5.331 -0.4217  0.4014 -1.3909
14566TIP3    H265114   0.441   6.321   5.364  0.1839 -0.6097  1.8977
14567TIP3   OH265115   2.746   3.962  15.212 -0.7593  0.6449  0.5593
14567TIP3    H165116   2.785   3.881  15.247  0.4548  0.9396 -0.0345
14567TIP3    H265117   2.698   3.934  15.134 -0.1104  0.5115  0.1960
14568TIP3   OH265118   2.441   4.997   5.750 -0.0992 -0.2397 -0.0096
14568TIP3    H165119   2.460   4.904   5.763 -1.1778 -0.9537 -2.7546
14568TIP3    H265120   2.348   4.999   5.729 -0.3704  1.6582  1.1653
14569TIP3   OH265121   5.836   6.026   3.605  0.1593  0.0019  0.2241
14569TIP3    H165122   5.891   6.066   3.537 -0.8184 -0.8729 -1.1532
14569TIP3    H265123   5.893   5.962   3.647  1.0633  1.2253  0.9092
14570TIP3   OH265124   6.597   4.048  13.475  0.4735  0.2720  0.9197
14570TIP3    H165125   6.567   4.100  13.549 -2.0151 -0.6175  0.6415
14570TIP3    H265126   6.567   4.096  13.398 -1.0290 -1.0207  0.6416
14571TIP3   OH265127   0.494   1.105  15.469 -0.3721  0.6418 -0.2168
14571TIP3    H165128   0.475   1.020  15.428  0.7814  0.2804 -0.0355
14571TIP3    H265129   0.552   1.084  15.542 -1.8873  1.3484  1.2656
14572TIP3   OH265130   1.361   1.687   6.052  0.0989 -0.0582 -0.3928
14572TIP3    H165131   1.379   1.760   5.992 -0.0848  0.1399 -0.2068
14572TIP3    H265132   1.441   1.679   6.105  0.4413 -0.5291 -0.9656
14573TIP3   OH265133   0.256   0.069  13.988  0.2331 -0.9483 -0.2100
14573TIP3    H165134   0.307   0.026  13.920  1.0021 -0.9171  0.3310
14573TIP3    H265135   0.186   0.007  14.009  0.3027 -1.1799 -0.6596
14574TIP3   OH265136   2.601   1.266  15.900  0.3826  0.2617  0.0938
14574TIP3    H165137   2.645   1.181  15.904  2.2099  1.2091  1.9632
14574TIP3    H265138   2.551   1.271  15.982  1.7112  1.6430  0.8699
14575TIP3   OH265139   2.185   0.992  15.297  0.7208 -0.1036  0.0020
14575TIP3    H165140   2.125   0.923  15.267 -0.0198 -0.1722  1.5732
14575TIP3    H265141   2.167   1.066  15.239  0.3207 -0.6633 -0.6082
14576TIP3   OH265142   0.401   5.483  14.824  0.0156  0.2371 -0.0687
14576TIP3    H165143   0.365   5.541  14.891  0.7062  0.6331 -0.0349
14576TIP3    H265144   0.485   5.522  14.800  1.5783 -1.8502  1.5345
14577TIP3   OH265145   0.252   0.059  14.667  0.6987  0.0808  0.3538
14577TIP3    H165146   0.188   0.022  14.606  1.2105 -0.0837 -0.0936
14577TIP3    H265147   0.336   0.043  14.625  0.9473  2.0187 -0.0268
14578TIP3   OH265148   1.809   4.515  16.668  0.4625  0.2529 -0.0373
14578TIP3    H165149   1.789   4.421  16.665  2.4378 -0.2445  0.6931
14578TIP3    H265150   1.847   4.529  16.755  3.8719  0.8385 -1.4244
14579TIP3   OH265151   3.426   6.039   4.697  0.3037  0.3150  0.2566
14579TIP3    H165152   3.395   6.116   4.648 -2.8289 -0.8821  0.1437
14579TIP3    H265153   3.521   6.039   4.682  0.0611  2.4540 -2.2182
14580TIP3   OH265154   4.419   1.754  14.974  0.0205 -0.0621  0.3999
14580TIP3    H165155   4.455   1.731  14.888  0.6493 -2.3624  1.2260
14580TIP3    H265156   4.331   1.717  14.974 -0.7092  1.5687  0.1082
14581TIP3   OH265157   0.728   4.962   0.347 -0.0718 -0.4006  0.8507
14581TIP3    H165158   0.701   4.988   0.259 -0.1255  1.0019  1.2587
14581TIP3    H265159   0.757   4.871   0.337 -1.5374 -0.7740 -0.2973
14582TIP3   OH265160   5.369   0.633   5.666  0.0764 -0.4583 -0.4790
14582TIP3    H165161   5.382   0.726   5.648 -2.5398  0.3578  1.3336
14582TIP3    H265162   5.452   0.604   5.703 -0.0122  1.9795  1.8973
14583TIP3   OH265163   2.351   0.602  17.038 -0.4459  0.0851  0.2527
14583TIP3    H165164   2.397   0.676  16.999 -2.7322  0.3311 -2.2577
14583TIP3    H265165   2.265   0.637  17.061 -1.5940 -1.7583 -1.0288
14584TIP3   OH265166   1.712   4.175  15.397 -0.6958  0.0898 -0.0782
14584TIP3    H165167   1.744   4.258  15.362 -0.5996  1.1512  2.3607
14584TIP3    H265168   1.624   4.194  15.429 -0.8038 -0.8277  0.2147
14585TIP3   OH265169   1.583   6.029  13.460 -0.1589 -0.4706  0.3266
14585TIP3    H165170   1.571   5.972  13.536  1.3397 -0.7620  0.3568
14585TIP3    H265171   1.602   6.115  13.497 -1.9876  0.0181  0.2740
14586TIP3   OH265172   1.500   4.349  14.390 -0.2979  0.3635  0.1705
14586TIP3    H165173   1.546   4.423  14.352  0.0535 -0.0979 -0.3037
14586TIP3    H265174   1.569   4.289  14.419 -0.5607 -0.7569 -1.3781
14587TIP3   OH265175   2.667   5.386  12.336  0.1711  0.7330  0.3208
14587TIP3    H165176   2.592   5.432  12.300 -0.6053 -1.1717 -0.6169
14587TIP3    H265177   2.643   5.293  12.333  2.4905  0.0567  0.0909
14588TIP3   OH265178   0.877   1.889   2.882  0.5344  0.2890  0.0200
14588TIP3    H165179   0.868   1.898   2.977  1.0530  0.3919  0.0615
14588TIP3    H265180   0.962   1.927   2.862  0.1768  0.8051 -0.5642
14589TIP3   OH265181   4.362   0.270   1.321 -0.0744 -0.8956 -0.3152
14589TIP3    H165182   4.326   0.353   1.351 -0.0095 -1.0029  0.0685
14589TIP3    H265183   4.449   0.292   1.288  0.0487 -0.8509  0.0347
14590TIP3   OH265184   6.428   2.596   4.908 -0.2903  0.1364  0.1653
14590TIP3    H165185   6.383   2.680   4.912 -1.8436 -0.6047 -0.9199
14590TIP3    H265186   6.359   2.531   4.917  0.9454 -1.0690  1.6609
14591TIP3   OH265187   4.266   1.276  12.107  0.2924 -0.1591  0.3520
14591TIP3    H165188   4.340   1.217  12.121 -0.3269 -0.7099  1.5136
14591TIP3    H265189   4.209   1.229  12.047 -0.3151 -0.8931  1.4625
14592TIP3   OH265190   5.642   0.825  16.663 -0.1216 -0.1887  0.1576
14592TIP3    H165191   5.714   0.853  16.719 -1.6747  0.1352  2.0977
14592TIP3    H265192   5.584   0.775  16.720 -0.9890 -1.2526 -1.5647
14593TIP3   OH265193   4.170   6.023   3.960 -0.3434 -0.6833  0.0574
14593TIP3    H165194   4.219   6.066   4.031 -0.3967 -0.1180 -0.2421
14593TIP3    H265195   4.119   6.094   3.921  0.6203 -0.7242 -1.3418
14594TIP3   OH265196   2.559   1.005   2.962  0.5442  0.3953  0.0662
14594TIP3    H165197   2.618   0.930   2.950 -0.7706 -0.4266 -1.8236
14594TIP3    H265198   2.473   0.966   2.978 -0.3325  1.4289 -1.8015
14595TIP3   OH265199   2.858   1.806  11.148  0.3875  0.7605 -0.7039
14595TIP3    H165200   2.905   1.769  11.074  2.9001  2.0465  0.1276
14595TIP3    H265201   2.780   1.752  11.157  2.3801 -2.4478 -1.3058
14596TIP3   OH265202   2.952   0.284  14.014 -0.3994  0.4874 -0.5513
14596TIP3    H165203   2.946   0.376  14.042  0.4888 -0.1039  1.8012
14596TIP3    H265204   2.861   0.256  14.003 -0.8017  0.9952  1.1624
14597TIP3   OH265205   1.886   5.906  12.025 -0.0642 -1.0347  0.3637
14597TIP3    H165206   1.931   5.884  11.944 -0.3503 -1.2607  0.2673
14597TIP3    H265207   1.793   5.897  12.005 -0.1171 -1.8976  0.9520
14598TIP3   OH265208   6.089   2.782   4.020  0.0657  0.0812 -0.4178
14598TIP3    H165209   6.027   2.724   3.976 -0.5373  0.6432 -0.3204
14598TIP3    H265210   6.058   2.787   4.110  0.1138  0.5442 -0.4221
14599TIP3   OH265211   5.107   3.790  13.878  0.1853 -0.0253  0.2371
14599TIP3    H165212   5.202   3.803  13.872 -0.0494  1.2144 -2.0642
14599TIP3    H265213   5.074   3.871  13.918 -0.1821  1.4492 -2.7749
14600TIP3   OH265214   5.034   4.291   0.679 -0.0034 -0.5179  0.4892
14600TIP3    H165215   4.944   4.299   0.711  0.3719 -1.1097  1.7689
14600TIP3    H265216   5.026   4.267   0.587 -1.1693 -1.5762  0.8499
14601TIP3   OH265217   1.833   5.112  15.548  0.2082  0.3876  0.0781
14601TIP3    H165218   1.892   5.162  15.493 -0.7061  1.3056 -0.1046
14601TIP3    H265219   1.885   5.038  15.580  1.0718  0.4876 -1.0733
14602TIP3   OH265220   0.796   2.759   5.568 -0.4825  0.1755  0.5194
14602TIP3    H165221   0.712   2.714   5.569  0.1313 -1.0690 -0.6907
14602TIP3    H265222   0.773   2.852   5.572 -1.8738 -0.1515  0.8097
14603TIP3   OH265223   3.662   3.678   1.175 -0.2199  0.2950  0.2235
14603TIP3    H165224   3.716   3.653   1.101 -0.2005  1.3567 -0.1384
14603TIP3    H265225   3.574   3.649   1.152 -0.0609 -0.1706  0.1890
14604TIP3   OH265226   3.966   1.178   3.021 -0.8223  0.7244  0.6464
14604TIP3    H165227   4.035   1.223   2.971 -2.4053 -0.0654 -2.5482
14604TIP3    H265228   4.012   1.109   3.068  0.6513  0.1180 -1.4881
14605TIP3   OH265229   0.607   6.148   6.075 -0.2150 -0.4077  0.4272
14605TIP3    H165230   0.565   6.190   6.000  0.4655  0.1892  0.3685
14605TIP3    H265231   0.571   6.194   6.151  1.3456  1.0954  0.3191
14606TIP3   OH265232   5.444   1.610   4.909 -0.5910  0.2544 -0.1272
14606TIP3    H165233   5.471   1.702   4.899  0.8472 -0.1381 -0.0704
14606TIP3    H265234   5.445   1.575   4.820 -1.2440  0.3123 -0.1613
14607TIP3   OH265235   3.227   1.530   4.388  0.2824 -0.4357  0.8383
14607TIP3    H165236   3.158   1.496   4.445 -0.7722 -0.1403 -0.2462
14607TIP3    H265237   3.223   1.625   4.399  0.5505 -0.4195  0.8073
14608TIP3   OH265238   5.088   0.827  11.365  0.1362  0.4088  0.3673
14608TIP3    H165239   5.173   0.836  11.322  0.9237  0.2799  1.8275
14608TIP3    H265240   5.037   0.770  11.307  1.1661  0.1905 -0.3520
14609TIP3   OH265241   1.043   1.980  13.043  0.5027 -0.3533 -0.3852
14609TIP3    H165242   0.985   2.030  12.986  0.3648  0.4341  0.4219
14609TIP3    H265243   1.065   2.041  13.114  0.5030 -1.3775  0.5102
14610TIP3   OH265244   1.129   3.606   4.862 -0.0577 -0.4325  0.3061
14610TIP3    H165245   1.215   3.596   4.821  0.3507 -1.4062  1.3683
14610TIP3    H265246   1.089   3.679   4.815  0.5722 -1.1991 -1.4996
14611TIP3   OH265247   1.159   1.263  11.676  0.1839  0.7370  0.0178
14611TIP3    H165248   1.230   1.208  11.644  0.0098 -0.0571  0.9404
14611TIP3    H265249   1.125   1.307  11.598  0.9135  0.2220 -0.6029
14612TIP3   OH265250   0.435   0.115   3.623  0.4167  0.0743  0.0641
14612TIP3    H165251   0.379   0.108   3.546  0.5653  3.7171 -0.5549
14612TIP3    H265252   0.524   0.109   3.588  0.4908 -1.0932  0.4057
14613TIP3   OH265253   1.186   0.068  11.508  0.2130  0.6963 -0.1608
14613TIP3    H165254   1.112   0.115  11.547 -0.6996  1.3390 -2.5055
14613TIP3    H265255   1.260   0.128  11.518  0.0853  0.6971  0.8510
14614TIP3   OH265256   5.238   6.655  11.308 -0.4005  0.2159  0.5448
14614TIP3    H165257   5.313   6.600  11.332 -2.2068 -2.4375  0.5163
14614TIP3    H265258   5.259   6.689  11.221  0.7377 -0.5087  0.5236
14615TIP3   OH265259   0.058   5.935   5.667 -0.1864 -0.2885  0.3138
14615TIP3    H165260   0.107   5.866   5.712  0.6952  0.7347  0.9854
14615TIP3    H265261   0.126   5.991   5.629 -0.8281  0.9037  0.8590
14616TIP3   OH265262   6.296   3.474  14.126  0.2671 -0.1475 -0.3121
14616TIP3    H165263   6.241   3.420  14.069  0.6750 -1.1388  0.2138
14616TIP3    H265264   6.370   3.498  14.070 -1.3629  2.5089 -1.5315
14617TIP3   OH265265   1.225   1.730   2.346 -0.6350 -0.1169  0.1376
14617TIP3    H165266   1.298   1.741   2.408  0.4676 -1.2949 -0.8947
14617TIP3    H265267   1.202   1.819   2.321  1.6081  0.2902 -0.7725
14618TIP3   OH265268   1.413   1.108   2.932  0.2543 -0.3560  0.3818
14618TIP3    H165269   1.428   1.033   2.873  0.0930 -2.2155  2.5804
14618TIP3    H265270   1.358   1.167   2.881  0.9093 -1.4058 -1.6797
14619TIP3   OH265271   2.432   1.769  12.753  0.4989 -0.0496  0.6559
14619TIP3    H165272   2.476   1.848  12.783  1.6404 -0.3428 -0.1790
14619TIP3    H265273   2.430   1.712  12.830  3.2704 -0.7387  0.3250
14620TIP3   OH265274   5.081   1.956   2.837  0.1003 -0.3932 -0.0561
14620TIP3    H165275   5.129   1.879   2.868  0.5686 -0.6514 -1.3452
14620TIP3    H265276   5.143   2.028   2.846  0.1549 -0.4251 -0.1803
14621TIP3   OH265277   6.516   5.996  16.667 -0.3700 -0.1302 -0.2016
14621TIP3    H165278   6.521   5.926  16.603 -0.1023 -1.2556  1.0112
14621TIP3    H265279   6.508   5.952  16.751 -0.7608  1.3039  0.5519
14622TIP3   OH265280   3.059   4.245  11.678 -0.1552 -0.1903 -0.6580
14622TIP3    H165281   3.113   4.315  11.640  0.4339  0.5904  1.4779
14622TIP3    H265282   3.000   4.290  11.738  0.1113 -1.4894  0.6405
14623TIP3   OH265283   6.032   5.848   3.785 -0.0383  0.0983 -0.3417
14623TIP3    H165284   6.051   5.756   3.766 -0.7718 -0.1427  0.0249
14623TIP3    H265285   5.987   5.846   3.869 -0.2415  0.7768 -0.4272
14624TIP3   OH265286   6.629   4.278  12.718  0.2127  0.1711 -0.1355
14624TIP3    H165287   6.560   4.332  12.757  1.2910  0.8393  0.9065
14624TIP3    H265288   6.692   4.265  12.789  0.9735 -0.7631 -0.9586
14625TIP3   OH265289   6.758   2.655  13.629 -0.1482  0.2500  0.2823
14625TIP3    H165290   6.761   2.745  13.661  0.7214  0.1625  0.4660
14625TIP3    H265291   6.828   2.610  13.676 -0.7210 -0.5826  0.3610
14626TIP3   OH265292   5.043   2.434   0.960  0.1067  0.2642  0.3451
14626TIP3    H165293   5.131   2.468   0.981 -0.1824  1.1912  0.1081
14626TIP3    H265294   5.056   2.382   0.882  0.4939  0.1762  0.4619
14627TIP3   OH265295   4.836   2.870  15.091 -0.3465  0.0495  0.2401
14627TIP3    H165296   4.849   2.815  15.014 -1.0633 -0.3200  0.3811
14627TIP3    H265297   4.832   2.808  15.164 -0.0262  0.3733  0.5362
14628TIP3   OH265298   6.128   6.755  16.722  0.2930  0.6076 -0.6106
14628TIP3    H165299   6.186   6.786  16.792 -0.9179  1.3830  0.0988
14628TIP3    H265300   6.186   6.737  16.648  1.7213 -0.9990  0.8069
14629TIP3   OH265301   2.507   0.347  12.607  0.5016 -0.9025  0.1903
14629TIP3    H165302   2.529   0.431  12.566  0.6047 -0.8345  0.3857
14629TIP3    H265303   2.439   0.311  12.551 -1.3181  0.4322  1.4492
14630TIP3   OH265304   3.989   4.206  13.992  0.3417  0.4148 -0.1975
14630TIP3    H165305   4.033   4.290  14.004  1.9396 -0.1972 -1.4068
14630TIP3    H265306   4.039   4.145  14.046 -0.0144 -0.0061 -0.3397
14631TIP3   OH265307   2.262   1.920  13.337  0.2022  0.4219 -0.3155
14631TIP3    H165308   2.235   1.979  13.408  2.0939 -0.3075  1.0969
14631TIP3    H265309   2.229   1.835  13.363 -0.0115  0.3267 -0.8785
14632TIP3   OH265310   1.325   5.339  16.989  0.0908 -0.6905  0.6308
14632TIP3    H165311   1.416   5.323  17.016 -0.1223 -2.3267  0.5073
14632TIP3    H265312   1.333   5.363  16.896  0.4364 -0.2956  0.7591
14633TIP3   OH265313   0.233   1.290  12.304 -0.2214 -0.1118 -0.2697
14633TIP3    H165314   0.283   1.212  12.330 -1.3475 -0.3037  1.5224
14633TIP3    H265315   0.299   1.353  12.276  1.0386 -0.4700  1.7069
14634TIP3   OH265316   4.575   0.930   6.088 -0.1548 -0.2427  0.0202
14634TIP3    H165317   4.605   1.005   6.037 -3.9892 -0.3017 -2.7666
14634TIP3    H265318   4.509   0.965   6.147  0.6209 -0.9756  1.3793
14635TIP3   OH265319   0.821   5.394   1.265  0.1040  0.1123  0.1585
14635TIP3    H165320   0.804   5.486   1.285 -0.0007  0.0988  0.1322
14635TIP3    H265321   0.735   5.358   1.245  0.2118  0.1260 -0.3215
14636TIP3   OH265322   1.757   6.340   4.271  0.5811  0.1760 -0.0474
14636TIP3    H165323   1.833   6.338   4.330  1.4524  1.2689 -1.0969
14636TIP3    H265324   1.778   6.276   4.203 -0.9953 -2.0533  1.4077
14637TIP3   OH265325   4.642   0.468   2.807  0.2575  0.0664 -0.7805
14637TIP3    H165326   4.567   0.448   2.751  0.1495 -1.3901 -0.1539
14637TIP3    H265327   4.658   0.387   2.855 -0.0729  1.4093  1.7759
14638TIP3   OH265328   6.200   4.400   5.483 -0.2039  0.4666 -0.2429
14638TIP3    H165329   6.295   4.402   5.476 -0.1810 -0.5021 -0.2808
14638TIP3    H265330   6.182   4.375   5.573 -0.4281  0.3948 -0.3057
14639TIP3   OH265331   2.432   2.128  12.544 -0.0423 -0.2802 -0.5076
14639TIP3    H165332   2.435   2.208  12.491  0.6647 -0.4816 -0.7813
14639TIP3    H265333   2.444   2.057  12.481  5.5350 -0.4175  0.2186
14640TIP3   OH265334   1.087   2.751   4.963  0.6869  0.0610 -0.4721
14640TIP3    H165335   1.171   2.739   5.006  0.2499 -2.0193 -0.0811
14640TIP3    H265336   1.029   2.688   5.007 -0.1846 -1.0222 -3.0164
14641TIP3   OH265337   1.826   2.481   0.401 -0.3058 -0.2376  0.1649
14641TIP3    H165338   1.753   2.542   0.414 -1.1444 -0.9017 -1.2330
14641TIP3    H265339   1.875   2.518   0.328  0.5888  0.0174  0.8748
14642TIP3   OH265340   4.167   3.484   3.387 -0.2707 -0.5587 -0.3886
14642TIP3    H165341   4.104   3.476   3.459 -0.5609  1.7049 -0.3327
14642TIP3    H265342   4.247   3.517   3.429  0.0497 -0.7011 -0.8794
14643TIP3   OH265343   0.731   2.814  12.697 -1.0727  0.1521  0.2672
14643TIP3    H165344   0.757   2.752  12.766  0.5449  0.6578  0.1441
14643TIP3    H265345   0.693   2.759  12.629  0.1074 -0.7186  0.2737
14644TIP3   OH265346   6.575   5.434   5.254  0.4376  0.7893 -0.5937
14644TIP3    H165347   6.629   5.398   5.184  0.6057  1.3765 -0.7710
14644TIP3    H265348   6.487   5.437   5.218  0.8616  3.0847 -1.5749
14645TIP3   OH265349   5.068   0.854   2.534  0.1282 -0.1692  0.3600
14645TIP3    H165350   5.116   0.783   2.577  1.1092  0.5326  0.4778
14645TIP3    H265351   4.993   0.812   2.493  1.4197 -1.5145 -0.7572
14646TIP3   OH265352   5.444   0.910   5.631 -0.4129 -0.0545  0.3435
14646TIP3    H165353   5.531   0.933   5.600 -0.0271 -1.2004  0.5254
14646TIP3    H265354   5.411   0.990   5.672 -1.2178  1.7828 -3.4522
14647TIP3   OH265355   2.220   0.885   5.560 -0.1212  0.1906 -0.0910
14647TIP3    H165356   2.199   0.844   5.644 -1.1741  0.2715 -0.2994
14647TIP3    H265357   2.286   0.951   5.581  0.1880 -0.3069  0.5479
14648TIP3   OH265358   6.460   1.739   0.629 -0.1585 -0.7048  0.0465
14648TIP3    H165359   6.464   1.815   0.687 -1.3965 -1.9431  1.8894
14648TIP3    H265360   6.387   1.758   0.569  1.3052  0.7050 -1.3846
14649TIP3   OH265361   5.332   3.848   1.866 -0.0832 -0.2447 -0.8670
14649TIP3    H165362   5.295   3.910   1.929 -0.3888  0.5457 -1.7871
14649TIP3    H265363   5.270   3.849   1.793  0.5905 -0.6392 -1.4567
14650TIP3   OH265364   1.813   5.118  14.018 -0.2860 -0.3050 -0.1808
14650TIP3    H165365   1.816   5.191  13.956 -1.2017  1.2229  1.4935
14650TIP3    H265366   1.742   5.062  13.985 -0.7645  0.4797 -0.4941
14651TIP3   OH265367   5.203   6.584  16.688 -0.5519 -0.2977  0.5750
14651TIP3    H165368   5.253   6.504  16.706  0.9143  0.6172  0.7405
14651TIP3    H265369   5.200   6.590  16.592  1.3746  0.6060  0.5161
14652TIP3   OH265370   6.015   4.877   3.983 -0.0810 -0.2445  0.1749
14652TIP3    H165371   6.044   4.908   3.897 -1.0426 -3.3917 -1.4430
14652TIP3    H265372   6.077   4.915   4.044  1.2264  1.3646 -2.0029
14653TIP3   OH265373   6.421   4.994  10.638  0.3630 -0.0728  0.3000
14653TIP3    H165374   6.394   4.961  10.552 -0.3465  0.6918  0.2114
14653TIP3    H265375   6.484   5.063  10.619  0.0091  0.2751  0.3771
14654TIP3   OH265376   6.762   4.585   3.680  0.3046  0.1339  0.6893
14654TIP3    H165377   6.758   4.676   3.707 -2.9056  0.0700  0.8066
14654TIP3    H265378   6.691   4.542   3.728 -0.7749 -1.5706 -2.1413
14655TIP3   OH265379   5.957   3.793  16.746  0.7073  0.2004 -0.3323
14655TIP3    H165380   6.050   3.815  16.737  0.4418  0.7160 -2.4480
14655TIP3    H265381   5.924   3.857  16.809  1.4906  1.0399 -0.7338
14656TIP3   OH265382   3.447   1.894   1.004 -0.6812 -0.0163  0.0333
14656TIP3    H165383   3.412   1.806   1.018 -0.5974  0.1842  1.7969
14656TIP3    H265384   3.374   1.952   1.026 -0.0160  0.3614  1.3826
14657TIP3   OH265385   0.424   2.338   2.393  0.4411  0.1607 -0.4161
14657TIP3    H165386   0.361   2.280   2.350 -1.5479 -0.3645  2.8504
14657TIP3    H265387   0.503   2.286   2.401 -0.0761 -0.7217 -0.8514
14658TIP3   OH265388   1.758   4.831  12.432  0.0745 -0.2720 -0.5790
14658TIP3    H165389   1.746   4.881  12.352  0.3898  0.7273 -0.0120
14658TIP3    H265390   1.737   4.892  12.503  4.3621  0.4763  0.3579
14659TIP3   OH265391   1.599   0.565  15.903 -0.1782  0.2207 -0.1337
14659TIP3    H165392   1.633   0.500  15.842 -1.1030 -0.4294  0.0139
14659TIP3    H265393   1.545   0.515  15.964 -2.5501  1.2978 -1.2041
14660TIP3   OH265394   2.391   4.665  11.799  0.4859  0.1933 -0.1849
14660TIP3    H165395   2.342   4.604  11.854 -1.7229  1.0256 -1.1019
14660TIP3    H265396   2.482   4.637  11.807 -0.1720 -1.7851  1.1971
14661TIP3   OH265397   4.582   5.897   4.824 -0.5254  0.4915 -0.4822
14661TIP3    H165398   4.571   5.925   4.734 -2.6139 -0.3204 -0.5290
14661TIP3    H265399   4.675   5.877   4.832 -0.1185  1.5677 -2.1354
14662TIP3   OH265400   5.858   3.472  15.149 -0.2033 -0.1324  0.4239
14662TIP3    H165401   5.772   3.434  15.163  0.3371 -0.9867  1.6687
14662TIP3    H265402   5.878   3.516  15.232 -0.0062  1.2675 -0.3252
14663TIP3   OH265403   2.204   3.353  11.603  0.5627 -0.4483  0.0330
14663TIP3    H165404   2.203   3.438  11.558 -0.2823 -1.6434 -2.3966
14663TIP3    H265405   2.277   3.359  11.664  1.1389  1.6729 -0.7760
14664TIP3   OH265406   4.845   6.289  12.254  0.1169  0.0816 -0.3128
14664TIP3    H165407   4.908   6.250  12.314 -0.4392  0.9716  0.9223
14664TIP3    H265408   4.769   6.307  12.309 -0.9099 -0.2247 -1.5840
14665TIP3   OH265409   5.830   1.707   0.830 -0.0097 -0.1142  0.9922
14665TIP3    H165410   5.869   1.778   0.778 -0.8180 -1.5375 -1.7640
14665TIP3    H265411   5.746   1.742   0.859 -0.5303  0.0065 -0.5865
14666TIP3   OH265412   1.889   2.879   5.092  0.4068  0.6575  0.2535
14666TIP3    H165413   1.853   2.791   5.105  2.7568 -0.3587  0.5048
14666TIP3    H265414   1.871   2.924   5.175 -3.4060  1.5335 -0.8757
14667TIP3   OH265415   2.103   0.514  12.330 -0.1771  0.2961 -0.1806
14667TIP3    H165416   2.178   0.573  12.341 -0.7009  0.7022  1.5430
14667TIP3    H265417   2.131   0.432  12.372 -0.4515  0.2215 -0.1445
14668TIP3   OH265418   6.491   0.370   1.854 -0.1049  0.2868  0.0641
14668TIP3    H165419   6.502   0.274   1.856 -0.7044  0.2160  0.5467
14668TIP3    H265420   6.488   0.392   1.762  0.4348 -0.1137 -0.0562
14669TIP3   OH265421   5.133   4.885   5.060  0.2939  0.1506 -0.0731
14669TIP3    H165422   5.166   4.811   5.009  0.6631 -1.3324  2.1764
14669TIP3    H265423   5.123   4.956   4.996  3.5215 -0.6553 -1.6680
14670TIP3   OH265424   3.379   1.123   1.208 -0.1761  0.1316  0.4784
14670TIP3    H165425   3.343   1.131   1.296 -0.1622  0.1159  0.4855
14670TIP3    H265426   3.325   1.057   1.165  0.0954 -0.1857  0.6185
14671TIP3   OH265427   3.582   1.269   0.998  0.3387  0.1220  0.5458
14671TIP3    H165428   3.556   1.313   1.079 -0.1119  2.3415 -0.7419
14671TIP3    H265429   3.509   1.283   0.938  1.6204  0.5153 -0.9740
14672TIP3   OH265430   5.914   0.117   1.438  0.6838 -0.0112 -0.0999
14672TIP3    H165431   5.963   0.168   1.373  0.2801  1.8459  0.9711
14672TIP3    H265432   5.982   0.075   1.491  1.0748  0.6319 -0.0765
14673TIP3   OH265433   6.001   0.051   2.158 -0.3308  0.2262 -0.3017
14673TIP3    H165434   5.914   0.023   2.187 -0.6709 -0.9882 -2.3020
14673TIP3    H265435   6.043  -0.030   2.129  0.4844  1.1486 -1.7878
14674TIP3   OH265436   1.241   5.469   2.982  0.6344 -0.2039  0.2105
14674TIP3    H165437   1.333   5.496   2.984  0.1424  1.5658  0.7411
14674TIP3    H265438   1.199   5.523   3.048 -1.0675  0.0414 -1.0104
14675TIP3   OH265439   3.654   0.072  12.166 -0.1675 -0.4012  0.0027
14675TIP3    H165440   3.581   0.077  12.105 -0.1285  1.9806  0.0795
14675TIP3    H265441   3.624   0.118  12.244  0.9886 -0.4523  0.4954
14676TIP3   OH265442   6.802   4.201  15.371  0.4786  0.0265 -0.3346
14676TIP3    H165443   6.884   4.226  15.328  0.4130 -0.1288 -0.5524
14676TIP3    H265444   6.765   4.133  15.314 -0.0270  0.4178 -0.4799
14677TIP3   OH265445   1.625   0.393   0.848 -0.0232 -0.2056 -0.4448
14677TIP3    H165446   1.674   0.311   0.839 -0.6503 -0.4781 -1.5395
14677TIP3    H265447   1.545   0.378   0.798 -1.0892  0.3457  1.0417
14678TIP3   OH265448   2.013   2.457  15.784 -0.1770 -0.4154 -0.4557
14678TIP3    H165449   1.919   2.448  15.773 -0.1299 -1.3523 -0.2090
14678TIP3    H265450   2.051   2.413  15.709  0.0779 -2.9837  1.0618
14679TIP3   OH265451   4.448   6.279  11.408 -0.1791  0.6235  0.3639
14679TIP3    H165452   4.543   6.287  11.401 -0.2449  0.8423 -0.3257
14679TIP3    H265453   4.414   6.311  11.324 -0.7765 -0.8564  0.0024
14680TIP3   OH265454   6.379   0.003  12.663  0.3534 -0.3206 -0.2083
14680TIP3    H165455   6.409   0.015  12.573  1.7763  0.4139  0.3357
14680TIP3    H265456   6.428  -0.072  12.696 -0.9873 -1.3134 -0.3560
14681TIP3   OH265457   5.099   4.744  16.927 -0.4178  0.4183  0.0762
14681TIP3    H165458   5.184   4.724  16.966 -0.2732  0.9850  0.0623
14681TIP3    H265459   5.116   4.815  16.866 -0.7724  0.0177 -0.4956
14682TIP3   OH265460   4.910   4.732   5.118 -0.1100 -0.1478 -0.1629
14682TIP3    H165461   4.979   4.793   5.092 -0.4238  0.6197  0.7506
14682TIP3    H265462   4.866   4.775   5.191  0.5366 -2.0695  1.4710
14683TIP3   OH265463   6.380   2.136  16.097 -0.0848 -0.1705  0.5470
14683TIP3    H165464   6.419   2.220  16.122 -1.5565  0.4867  0.7418
14683TIP3    H265465   6.337   2.106  16.177 -0.6159 -0.4937  0.1409
14684TIP3   OH265466   1.568   1.885  14.073 -0.9814  0.6673  0.0620
14684TIP3    H165467   1.520   1.871  13.992 -0.9594 -0.1312  0.1700
14684TIP3    H265468   1.536   1.816  14.132  1.6205 -1.1790 -0.4748
14685TIP3   OH265469   2.981   4.656   5.568 -0.1226  0.1770 -0.1989
14685TIP3    H165470   2.980   4.576   5.515  0.5366 -1.5258  2.1889
14685TIP3    H265471   2.889   4.675   5.584 -0.2755 -0.3290 -0.4495
14686TIP3   OH265472   0.872   0.236  11.601  0.0704  0.6115  0.3168
14686TIP3    H165473   0.930   0.269  11.670  0.6781 -0.1726  0.1885
14686TIP3    H265474   0.909   0.271  11.520  1.3986 -1.2587  0.0613
14687TIP3   OH265475   0.059   4.353   2.889 -0.3269  0.4085 -0.4505
14687TIP3    H165476  -0.008   4.370   2.955 -0.8198 -0.2404 -0.7801
14687TIP3    H265477   0.088   4.264   2.906  2.2285  1.4582  1.2473
14688TIP3   OH265478   1.029   6.448  14.002 -0.1041 -0.0039  0.3272
14688TIP3    H165479   1.045   6.423  14.093  0.4884  0.4408  0.3498
14688TIP3    H265480   1.072   6.380  13.951 -0.0941 -0.0346  0.3758
14689TIP3   OH265481   4.305   4.671   4.189  0.4032  0.2017 -0.1280
14689TIP3    H165482   4.243   4.599   4.200  1.6324 -1.0640 -1.1605
14689TIP3    H265483   4.277   4.737   4.253 -0.8780 -1.0928  0.6966
14690TIP3   OH265484   1.227   4.728   3.041 -0.1662  0.7386 -0.4119
14690TIP3    H165485   1.142   4.698   3.073  1.4245 -5.6663 -0.9697
14690TIP3    H265486   1.272   4.759   3.120 -1.2561 -0.7746  0.8689
14691TIP3   OH265487   0.862   2.375  11.993 -0.2339 -0.0645  0.0875
14691TIP3    H165488   0.908   2.402  11.914 -0.1406 -1.1681 -0.2470
14691TIP3    H265489   0.861   2.454  12.048  1.7867  0.0827 -0.0053
14692TIP3   OH265490   6.350   2.512   1.543 -0.0528 -0.3199  0.1725
14692TIP3    H165491   6.401   2.585   1.578 -1.1518  0.0503  1.0445
14692TIP3    H265492   6.281   2.497   1.607 -3.2163  1.4966 -2.5039
14693TIP3   OH265493   0.025   1.504  15.813  0.4469 -0.2769 -0.0126
14693TIP3    H165494  -0.071   1.502  15.819  0.4433  0.5874  0.2062
14693TIP3    H265495   0.048   1.596  15.818  1.2503 -0.4213 -0.7807
14694TIP3   OH265496   2.366   6.397   5.315 -0.2030 -0.1397  0.6154
14694TIP3    H165497   2.340   6.324   5.370  0.9204  1.1205  2.9852
14694TIP3    H265498   2.425   6.359   5.250 -0.7305 -1.5435  0.9410
14695TIP3   OH265499   0.722   0.485  11.139 -0.2497  0.0322 -0.0790
14695TIP3    H165500   0.718   0.529  11.054  0.6987 -1.5021 -0.9861
14695TIP3    H265501   0.798   0.524  11.183 -0.5204  0.5721 -0.0855
14696TIP3   OH265502   1.498   1.410  14.171 -0.1612  0.5508  0.4715
14696TIP3    H165503   1.559   1.407  14.245 -2.2901  0.2677  2.3279
14696TIP3    H265504   1.421   1.457  14.205 -0.5791  1.9414 -2.1191
14697TIP3   OH265505   2.355   2.462  12.032 -0.5955 -0.3305  0.4755
14697TIP3    H165506   2.437   2.415  12.049 -0.3320  0.0121  0.1690
14697TIP3    H265507   2.286   2.402  12.060 -0.2696 -0.9702 -0.0711
14698TIP3   OH265508   3.010   2.304  14.696 -0.7720  0.5624  0.0610
14698TIP3    H165509   3.024   2.369  14.765 -3.2573  1.2078  0.0508
14698TIP3    H265510   2.928   2.330  14.655  0.1166 -0.3882 -2.5136
14699TIP3   OH265511   3.777   3.342   3.245  0.3001  0.3112  0.8846
14699TIP3    H165512   3.763   3.420   3.299  2.3991  0.2795  1.5893
14699TIP3    H265513   3.835   3.372   3.175 -1.7411  0.1607 -0.9853
14700TIP3   OH265514   6.700   5.945   3.823  1.3205  0.2516 -0.0009
14700TIP3    H165515   6.692   5.911   3.734 -0.4434 -0.1909  0.2944
14700TIP3    H265516   6.699   5.868   3.879 -0.9878  0.6313  0.5723
14701TIP3   OH265517   6.179   0.976   4.299 -0.2555  0.2021  0.2572
14701TIP3    H165518   6.187   0.960   4.393  0.1313  0.1994  0.2267
14701TIP3    H265519   6.126   1.056   4.292  1.6800  1.5822  0.5662
14702TIP3   OH265520   6.571   1.048   1.003  0.2822  0.1900 -0.5934
14702TIP3    H165521   6.485   1.092   1.001  0.5880  0.8644  0.2549
14702TIP3    H265522   6.597   1.052   1.095  0.6121 -1.2391 -0.6145
14703TIP3   OH265523   3.875   2.534  11.715 -0.3063  0.4708 -0.0988
14703TIP3    H165524   3.873   2.446  11.678 -1.7596  0.8988 -1.1629
14703TIP3    H265525   3.966   2.561  11.710  0.0849 -0.8150 -0.1338
14704TIP3   OH265526   5.725   3.063  13.781  0.1778 -0.3123 -0.1468
14704TIP3    H165527   5.669   3.125  13.733  0.2487  0.4674  0.7424
14704TIP3    H265528   5.807   3.063  13.732  0.6551  1.3706  0.5675
14705TIP3   OH265529   5.187   2.857  12.791 -0.0908  0.2362 -0.2278
14705TIP3    H165530   5.233   2.902  12.720  0.4339  1.1800  0.6852
14705TIP3    H265531   5.193   2.916  12.866 -1.3477 -0.3719  0.3935
14706TIP3   OH265532   2.057   3.833  12.484  0.1607 -0.0765  0.0238
14706TIP3    H165533   2.041   3.909  12.540  3.9562  0.6094  0.3909
14706TIP3    H265534   2.095   3.869  12.404 -0.2731 -1.4492 -0.8334
14707TIP3   OH265535   5.756   5.797   2.789 -0.2034  0.2411  0.0247
14707TIP3    H165536   5.836   5.831   2.830  0.1289  0.1189 -0.5063
14707TIP3    H265537   5.708   5.875   2.761  0.6767  0.3030 -1.4167
14708TIP3   OH265538   1.036   1.112  10.612 -0.3289 -1.0652 -0.5500
14708TIP3    H165539   0.958   1.057  10.607 -0.2030 -1.3196  0.2219
14708TIP3    H265540   1.105   1.053  10.644 -0.0379 -0.6247 -0.3571
14709TIP3   OH265541   4.536   6.738  12.453 -0.0645 -0.6930 -0.9497
14709TIP3    H165542   4.573   6.665  12.404  1.5240  0.8340 -2.1768
14709TIP3    H265543   4.443   6.718  12.460 -0.1732 -1.5409 -3.6830
14710TIP3   OH265544   0.289   6.013   3.858  0.1349 -0.4407  0.0598
14710TIP3    H165545   0.382   6.014   3.880 -0.4997 -0.3013  3.1274
14710TIP3    H265546   0.246   6.056   3.931 -2.5112 -1.9421 -0.4799
14711TIP3   OH265547   2.452   3.759   4.370  0.3113  0.3709 -0.0173
14711TIP3    H165548   2.431   3.796   4.285 -2.3698 -1.4512 -0.2682
14711TIP3    H265549   2.457   3.834   4.429  0.7901  1.5326 -1.4819
14712TIP3   OH265550   3.375   2.208   0.855  0.0555 -0.2325 -0.1529
14712TIP3    H165551   3.414   2.146   0.794  2.4122  0.1907  0.8174
14712TIP3    H265552   3.357   2.286   0.802  2.7371  0.4031 -0.3023
14713TIP3   OH265553   0.956   4.015  11.899  0.0675  0.2118 -0.5414
14713TIP3    H165554   1.039   4.054  11.924  2.1482 -3.1084 -1.6110
14713TIP3    H265555   0.932   3.959  11.974 -1.3277  1.1877 -0.2074
14714TIP3   OH265556   4.205   6.103   2.348  0.4659  0.4387 -0.0178
14714TIP3    H165557   4.250   6.019   2.361  1.4066  0.2786 -3.2671
14714TIP3    H265558   4.114   6.085   2.370  1.1449 -0.5540  2.2252
14715TIP3   OH265559   3.014   2.025   1.843 -0.1364 -0.1511  0.0132
14715TIP3    H165560   2.934   2.046   1.796  0.0350  1.7159  0.4928
14715TIP3    H265561   2.988   2.021   1.935 -0.2699 -2.7736 -0.0678
14716TIP3   OH265562   6.428   3.705   4.735 -0.3707 -0.0254 -0.5632
14716TIP3    H165563   6.482   3.632   4.703 -0.4406 -0.3692  0.0861
14716TIP3    H265564   6.377   3.732   4.659 -0.2138 -0.5440 -0.8597
14717TIP3   OH265565   2.316   5.661   1.757 -0.1642  0.3695 -0.3269
14717TIP3    H165566   2.263   5.720   1.811 -0.9789  0.1566 -0.8781
14717TIP3    H265567   2.325   5.707   1.674 -0.1172  0.0690 -0.4874
14718TIP3   OH265568   0.704   1.445  15.402 -0.2852  0.6899  0.0732
14718TIP3    H165569   0.667   1.388  15.335  0.4011  0.6909 -0.3123
14718TIP3    H265570   0.703   1.391  15.482 -1.4124  0.8057  0.1448
14719TIP3   OH265571   0.970   4.752  16.075 -0.2869  0.0680  0.1253
14719TIP3    H165572   0.951   4.823  16.014  0.1556 -0.2029 -0.3381
14719TIP3    H265573   0.986   4.796  16.159 -0.2175  0.5010 -0.1107
14720TIP3   OH265574   5.722   4.659  12.142  0.3965 -0.0060  0.6062
14720TIP3    H165575   5.751   4.569  12.129 -0.1734 -0.0286 -0.6344
14720TIP3    H265576   5.705   4.665  12.236 -0.7610 -1.5720  0.5441
14721TIP3   OH265577   2.982   5.366   1.544 -0.0790 -0.0666 -0.2904
14721TIP3    H165578   2.950   5.410   1.465  1.5387  0.3780 -0.7474
14721TIP3    H265579   2.908   5.314   1.575 -2.0093  2.7233  0.1170
14722TIP3   OH265580   0.871   2.096   3.871 -0.1789  0.3341  0.0277
14722TIP3    H165581   0.832   2.119   3.956  1.2297 -0.2844  0.8849
14722TIP3    H265582   0.903   2.006   3.882 -0.3927  0.0678 -1.3245
14723TIP3   OH265583   3.315   4.218   6.372 -0.1142 -0.6359  0.4017
14723TIP3    H165584   3.231   4.177   6.352  0.4429 -2.3234  1.2743
14723TIP3    H265585   3.379   4.167   6.322  0.4609  0.3036  0.1447
14724TIP3   OH265586   2.746   2.834  16.255 -0.5821  0.0828 -0.7479
14724TIP3    H165587   2.662   2.829  16.211 -1.2649 -1.0857  0.6355
14724TIP3    H265588   2.733   2.899  16.325  0.2270  1.2416 -1.6231
14725TIP3   OH265589   2.734   3.000  11.489 -0.3680  0.1263 -0.5402
14725TIP3    H165590   2.749   3.092  11.508  0.0310 -0.2839  1.3311
14725TIP3    H265591   2.768   2.988  11.400 -1.0623  1.9028 -1.0912
14726TIP3   OH265592   3.532   3.895  16.625  0.8166 -0.5490  0.1183
14726TIP3    H165593   3.472   3.836  16.670 -1.0707 -1.4024 -3.1472
14726TIP3    H265594   3.491   3.981  16.633 -0.2145 -0.9117 -0.9697
14727TIP3   OH265595   5.543   0.269   5.367 -0.0598 -0.0839 -0.1046
14727TIP3    H165596   5.560   0.286   5.274  1.9864 -0.9659  0.0533
14727TIP3    H265597   5.523   0.355   5.404  1.6758  0.7075 -0.8972
14728TIP3   OH265598   2.066   0.079   0.894 -0.0180  0.2661 -0.3431
14728TIP3    H165599   2.092   0.145   0.829  3.4269 -0.4506  0.0901
14728TIP3    H265600   2.148   0.054   0.936 -1.3432 -3.4017  0.4171
14729TIP3   OH265601   0.971   4.119   1.029 -0.5230 -0.5618  0.6432
14729TIP3    H165602   0.954   4.036   1.074 -0.9451 -2.2363 -2.3521
14729TIP3    H265603   1.065   4.133   1.040 -0.4252 -1.5048  1.0757
14730TIP3   OH265604   0.310   0.039  16.633  0.1594 -0.4839  0.1030
14730TIP3    H165605   0.319   0.043  16.538 -0.0583 -0.7147  0.0714
14730TIP3    H265606   0.398   0.018  16.665  0.7618  1.7131  0.1075
14731TIP3   OH265607   3.128   2.855  16.300  0.2063  0.0544  0.0409
14731TIP3    H165608   3.217   2.850  16.336  0.4852 -1.6140 -0.7941
14731TIP3    H265609   3.124   2.941  16.257  1.1571  0.4506  0.7084
14732TIP3   OH265610   1.696   3.704   0.227 -0.1118  0.5162 -0.3006
14732TIP3    H165611   1.667   3.721   0.138  0.5343 -2.1795 -1.1048
14732TIP3    H265612   1.621   3.663   0.270 -0.2248  1.2591  0.2231
14733TIP3   OH265613   1.971   3.427  13.560  0.1175 -0.0881 -0.0397
14733TIP3    H165614   1.908   3.442  13.490  0.5415  1.3251 -0.1447
14733TIP3    H265615   1.924   3.446  13.640 -0.2581 -1.3474  0.0669
14734TIP3   OH265616   2.104   0.162   3.827 -0.5316  0.1393 -0.2448
14734TIP3    H165617   2.174   0.139   3.766 -1.0729 -0.2559 -0.7220
14734TIP3    H265618   2.122   0.110   3.905 -0.6007 -0.3747 -0.5678
14735TIP3   OH265619   3.757   0.739   1.929  0.3229  0.3339 -1.1154
14735TIP3    H165620   3.760   0.833   1.943  2.6082  0.1081  0.4417
14735TIP3    H265621   3.788   0.727   1.839  0.7797  1.0562 -1.0621
14736TIP3   OH265622   4.008   4.106  12.603 -0.2646 -0.1591  0.3473
14736TIP3    H165623   3.917   4.102  12.633 -0.0266  2.9814  1.9757
14736TIP3    H265624   4.057   4.052  12.665 -0.6567  0.9079  1.6400
14737TIP3   OH265625   1.584   0.542  17.075  0.3251  0.1039  0.1377
14737TIP3    H165626   1.641   0.465  17.063 -2.0136 -1.5036 -1.5927
14737TIP3    H265627   1.582   0.584  16.990 -0.5717  0.4816  0.3364
14738TIP3   OH265628   0.875   6.458  12.442 -0.1584 -0.1952 -0.0610
14738TIP3    H165629   0.822   6.532  12.471  1.2219  1.2048 -0.9483
14738TIP3    H265630   0.828   6.424  12.365 -0.1993  0.5058 -0.3541
14739TIP3   OH265631   6.234   0.260  13.349  0.2560 -0.2436  0.2192
14739TIP3    H165632   6.316   0.281  13.305  0.2032 -0.3910  0.0486
14739TIP3    H265633   6.170   0.252  13.278 -0.4575  2.2475  0.4858
14740TIP3   OH265634   0.725   4.420  16.870  0.5742  0.2256  0.1256
14740TIP3    H165635   0.639   4.436  16.910  0.2514 -0.7261 -0.1616
14740TIP3    H265636   0.775   4.500  16.888 -0.3828  0.8142  0.2551
14741TIP3   OH265637   1.256   6.597   4.726  0.4346  0.4113 -0.7148
14741TIP3    H165638   1.312   6.551   4.663 -0.2891 -1.1173 -0.2674
14741TIP3    H265639   1.290   6.572   4.811  0.6097  1.4751 -0.4556
14742TIP3   OH265640   4.356   0.807   0.134  0.2704  0.0261  0.0709
14742TIP3    H165641   4.382   0.892   0.096  2.4937 -1.4634 -2.1116
14742TIP3    H265642   4.262   0.803   0.121  0.5736  0.6073 -3.5367
14743TIP3   OH265643   3.568   4.250  15.207 -0.1589  0.4822  0.0001
14743TIP3    H165644   3.531   4.198  15.136 -0.2039  0.0856  0.3158
14743TIP3    H265645   3.539   4.339  15.189 -1.1420  0.1993  0.1671
14744TIP3   OH265646   3.216   2.182  14.216  0.2244 -1.0127 -0.1327
14744TIP3    H165647   3.182   2.202  14.303  1.5963 -1.4901  0.5441
14744TIP3    H265648   3.203   2.262  14.166 -0.6788 -0.7686  0.4736
14745TIP3   OH265649   1.571   5.541  11.401  0.1323 -0.9933 -0.0528
14745TIP3    H165650   1.521   5.493  11.466  0.8108  0.1688  1.3898
14745TIP3    H265651   1.561   5.633  11.426 -0.0342 -0.4547 -1.9333
14746TIP3   OH265652   2.241   4.085   6.486  0.3402  0.0718 -0.1737
14746TIP3    H165653   2.239   4.085   6.390 -0.7774  0.9088 -0.1653
14746TIP3    H265654   2.324   4.042   6.508 -0.3796 -2.1452 -1.4852
14747TIP3   OH265655   1.502   3.783  13.005  0.2309 -0.0604 -0.0036
14747TIP3    H165656   1.495   3.770  12.910 -0.3693 -0.4021  0.0782
14747TIP3    H265657   1.412   3.794  13.034  0.5715  2.7697  0.1826
14748TIP3   OH265658   2.267   3.682   3.013 -0.1765  0.6841  0.1945
14748TIP3    H165659   2.357   3.672   2.984 -0.0798  0.5269  0.5526
14748TIP3    H265660   2.262   3.770   3.049 -0.5671  1.2937 -1.2670
14749TIP3   OH265661   0.821   6.325   3.156  0.5190  0.4407  0.3200
14749TIP3    H165662   0.776   6.377   3.222  1.7863  0.4252  1.2304
14749TIP3    H265663   0.815   6.235   3.189  1.8178  0.5223  0.8418
14750TIP3   OH265664   0.426   4.551   5.377 -0.9694 -0.4492 -0.2065
14750TIP3    H165665   0.374   4.487   5.425  0.1963 -0.2335  1.4507
14750TIP3    H265666   0.388   4.636   5.401 -1.2818 -0.4105 -0.8272
14751TIP3   OH265667   3.811   1.594   1.107  0.2785  0.6277  0.4641
14751TIP3    H165668   3.853   1.679   1.115  0.6550  0.6289 -1.1222
14751TIP3    H265669   3.869   1.545   1.048 -1.7329  0.5173 -1.5317
14752TIP3   OH265670   4.266   0.979   0.681 -0.3541  0.0303 -0.3331
14752TIP3    H165671   4.252   0.951   0.772 -0.8347  0.3996 -0.2897
14752TIP3    H265672   4.357   0.955   0.663 -0.1551  0.2284  0.3474
14753TIP3   OH265673   3.410   3.194   1.735  0.3287  0.0054  0.4715
14753TIP3    H165674   3.458   3.111   1.728  0.1204 -0.0119 -0.9818
14753TIP3    H265675   3.326   3.170   1.774 -1.0937 -1.0894 -2.9441
14754TIP3   OH265676   5.279   0.839   5.403  0.0957 -0.1850 -0.2408
14754TIP3    H165677   5.189   0.871   5.411  0.0767 -0.0873 -0.8175
14754TIP3    H265678   5.319   0.862   5.487 -0.3515 -0.0189 -0.0673
14755TIP3   OH265679   1.617   2.663   1.899 -0.8781  0.3558  0.4138
14755TIP3    H165680   1.680   2.594   1.921 -0.9110  0.1002 -0.2697
14755TIP3    H265681   1.640   2.736   1.956  0.7197  0.6523 -0.5726
14756TIP3   OH265682   2.321   0.716  11.742  0.4162 -0.1497 -0.1579
14756TIP3    H165683   2.245   0.772  11.760  0.1535 -0.1492 -1.2042
14756TIP3    H265684   2.379   0.771  11.690 -0.2064 -1.0619 -1.9100
14757TIP3   OH265685   2.954   2.893   1.629 -0.0747  0.5651 -0.0269
14757TIP3    H165686   2.871   2.849   1.645 -0.3536  1.5593  1.4536
14757TIP3    H265687   2.946   2.927   1.540 -0.2462 -1.4077 -0.8248
14758TIP3   OH265688   3.724   5.703  12.424 -0.3494  0.2145  0.2552
14758TIP3    H165689   3.819   5.701  12.424 -0.3387  0.5198 -0.1477
14758TIP3    H265690   3.700   5.736  12.511 -0.1134 -0.6363  0.6499
14759TIP3   OH265691   0.103   3.923  12.709  0.1014 -0.2930 -0.0989
14759TIP3    H165692   0.175   3.969  12.664  0.4516  0.0781  0.8266
14759TIP3    H265693   0.125   3.929  12.802 -0.9205 -0.5445  0.1687
14760TIP3   OH265694   2.953   0.476   1.429  0.2703 -0.4340  0.1621
14760TIP3    H165695   3.018   0.445   1.366 -0.2554 -0.5991 -0.3094
14760TIP3    H265696   3.003   0.529   1.491  0.9565 -1.0966  0.1882
14761TIP3   OH265697   1.544   3.042   5.670 -0.5582  0.3821  0.3976
14761TIP3    H165698   1.483   3.088   5.612  0.5076  1.8986  0.4153
14761TIP3    H265699   1.628   3.046   5.624 -0.6046 -2.6125 -0.1280
14762TIP3   OH265700   0.226   4.980  14.835  0.4466  0.1498 -0.0306
14762TIP3    H165701   0.248   4.934  14.754  3.2697  2.7863 -0.9570
14762TIP3    H265702   0.310   4.998  14.876 -0.6469  2.2916  1.4809
14763TIP3   OH265703   5.140   6.402  15.801  0.6534  0.0668 -0.2728
14763TIP3    H165704   5.172   6.400  15.891 -1.3357 -0.6191  0.4836
14763TIP3    H265705   5.103   6.315  15.786  0.8587  0.2005 -1.7388
14764TIP3   OH265706   1.248   3.889   4.490 -0.4134 -0.4312  0.2821
14764TIP3    H165707   1.337   3.909   4.461 -1.1165 -0.7774 -2.4127
14764TIP3    H265708   1.202   3.973   4.488 -0.4855 -0.4681  0.3516
14765TIP3   OH265709   3.544   0.324  12.415 -0.5271 -0.4450  0.1329
14765TIP3    H165710   3.543   0.262  12.488 -1.6388 -1.1069 -0.4107
14765TIP3    H265711   3.466   0.301  12.364 -1.1607  1.6220  0.0892
14766TIP3   OH265712   4.614   3.819  11.184 -0.0266  0.3106  0.7159
14766TIP3    H165713   4.651   3.823  11.096  0.3614  0.0849  0.8637
14766TIP3    H265714   4.617   3.909  11.216 -2.5111  0.8953 -0.4227
14767TIP3   OH265715   3.968   4.411  11.977  0.2400 -0.4781  0.0191
14767TIP3    H165716   3.884   4.379  12.010 -0.1001  1.2980  1.0228
14767TIP3    H265717   3.976   4.374  11.890 -1.1702 -1.3861  0.2510
14768TIP3   OH265718   0.354   0.420  12.776  0.2081  0.0009 -0.7098
14768TIP3    H165719   0.312   0.450  12.694 -0.3467  0.8566 -0.1336
14768TIP3    H265720   0.316   0.334  12.792  0.8271 -0.4814 -1.7021
14769TIP3   OH265721   1.759   1.861   0.349 -0.1241  0.1047 -0.1312
14769TIP3    H165722   1.745   1.866   0.443  0.4505  1.2479 -0.0840
14769TIP3    H265723   1.674   1.880   0.310 -0.3034 -0.1075  0.1575
14770TIP3   OH265724   2.819   6.329   0.036  0.2400  0.4584  0.1729
14770TIP3    H165725   2.815   6.371  -0.050  1.4332  0.0906 -0.0827
14770TIP3    H265726   2.756   6.258   0.030 -0.3217  0.9642 -0.0865
14771TIP3   OH265727   4.183   5.280  11.872  0.3432 -0.1255  0.4141
14771TIP3    H165728   4.194   5.185  11.866  1.1518  0.0359 -1.1000
14771TIP3    H265729   4.128   5.302  11.797 -1.6362  0.3842  1.9336
14772TIP3   OH265730   3.964   6.036   1.439 -0.4785 -0.8470 -0.2015
14772TIP3    H165731   3.895   6.100   1.421 -0.5273 -1.1303 -1.0668
14772TIP3    H265732   4.020   6.079   1.504  0.0379  0.5082 -1.4790
14773TIP3   OH265733   1.024   1.977  16.692 -0.2295  0.4084 -0.1227
14773TIP3    H165734   1.056   2.048  16.749  2.0937 -1.2894  0.8608
14773TIP3    H265735   1.082   1.979  16.616 -0.6322  0.0319 -0.4465
14774TIP3   OH265736   5.081   6.367  14.694  0.1070  0.1960 -0.1542
14774TIP3    H165737   5.118   6.445  14.651  0.8063 -0.5948 -1.0230
14774TIP3    H265738   4.987   6.388  14.703 -0.1007  0.3788 -2.1781
14775TIP3   OH265739   3.627   0.163   0.235  0.0163  0.0065 -0.2008
14775TIP3    H165740   3.590   0.133   0.317  0.5767 -1.0737 -0.3295
14775TIP3    H265741   3.600   0.255   0.229  2.2532  1.0099  2.5566
14776TIP3   OH265742   4.597   5.358   0.575  0.0115 -0.0400  0.0116
14776TIP3    H165743   4.596   5.287   0.510  1.5717  0.3912 -0.5378
14776TIP3    H265744   4.512   5.352   0.618 -0.2954 -1.5999 -0.7143
14777TIP3   OH265745   3.377   5.965  15.724 -0.2783 -0.3643  0.0079
14777TIP3    H165746   3.289   5.994  15.747  0.3185  0.1944  1.7537
14777TIP3    H265747   3.429   5.980  15.803  1.6529  0.3983 -1.3270
14778TIP3   OH265748   1.120   1.393  16.805 -0.0165 -0.6509  0.1922
14778TIP3    H165749   1.141   1.366  16.894 -0.7405 -2.1323 -0.0493
14778TIP3    H265750   1.157   1.324  16.750 -2.2781 -1.4569 -0.4394
14779TIP3   OH265751   1.925   6.728  16.709  0.2117 -0.7950 -0.0076
14779TIP3    H165752   1.945   6.682  16.791  0.8166 -1.3192 -0.4321
14779TIP3    H265753   1.969   6.676  16.642 -1.6121 -1.2994 -0.8677
14780TIP3   OH265754   1.981   6.610  16.014 -0.2181  0.4415  0.1679
14780TIP3    H165755   2.024   6.535  15.973  3.1917  1.8090  0.9324
14780TIP3    H265756   1.966   6.672  15.943 -0.5964  0.1322 -0.0291
14781TIP3   OH265757   0.833   4.318  12.369  0.1855 -0.3423  0.0174
14781TIP3    H165758   0.866   4.228  12.370 -1.3746 -1.0668  3.7679
14781TIP3    H265759   0.907   4.371  12.400  1.2806 -0.0988 -2.6969
14782TIP3   OH265760   1.538   3.809  16.835  0.4304 -0.7322  0.4621
14782TIP3    H165761   1.611   3.854  16.794 -0.4246  0.2506 -0.0107
14782TIP3    H265762   1.499   3.756  16.765 -1.0282  0.9467 -0.0868
14783TIP3   OH265763   2.445   1.892  11.586 -0.1998  0.0978 -0.5609
14783TIP3    H165764   2.419   1.833  11.515 -0.3497 -0.0912 -0.3503
14783TIP3    H265765   2.389   1.868  11.660  1.3459 -1.1073  0.2783
14784TIP3   OH265766   0.590   6.519   4.566  0.2862  0.0692 -0.3045
14784TIP3    H165767   0.600   6.478   4.651  1.1275  1.1775  0.1585
14784TIP3    H265768   0.631   6.458   4.505  1.9136  0.3707  0.4241
14785TIP3   OH265769   1.830   0.675  14.549 -0.0672  0.9146 -0.6186
14785TIP3    H165770   1.758   0.692  14.610 -0.9630 -1.5672 -0.8510
14785TIP3    H265771   1.903   0.647  14.605 -0.5659 -0.3568 -0.5549
14786TIP3   OH265772   4.087   6.658   2.865 -0.3873  0.1036 -0.1829
14786TIP3    H165773   4.149   6.697   2.804 -1.1543  0.6901 -0.6028
14786TIP3    H265774   4.003   6.657   2.818 -0.5563 -1.3856  0.0880
14787TIP3   OH265775   1.177   5.097  12.200 -0.3159  0.1539  0.0850
14787TIP3    H165776   1.161   5.087  12.294  1.3515  0.8068  0.4635
14787TIP3    H265777   1.157   5.011  12.163 -5.7927  0.9726  0.2063
14788TIP3   OH265778   0.881   3.021   2.350 -0.0092  0.4279 -0.5543
14788TIP3    H165779   0.806   2.962   2.344 -0.4168  1.0713 -2.4687
14788TIP3    H265780   0.843   3.109   2.347  0.6121  0.8748  1.9168
14789TIP3   OH265781   4.538   0.296  13.786 -0.4752 -0.1688 -0.0457
14789TIP3    H165782   4.543   0.212  13.741 -0.0117 -0.2758  0.2029
14789TIP3    H265783   4.611   0.347  13.749 -1.1172  0.3403 -0.6397
14790TIP3   OH265784   0.153   2.117   6.015 -0.4759 -0.1745  0.0481
14790TIP3    H165785   0.226   2.178   6.017 -1.7753  1.4261  1.8263
14790TIP3    H265786   0.079   2.168   5.982 -1.6972 -0.5886  1.9717
14791TIP3   OH265787   2.780   3.625  13.947 -0.1984 -0.0182  0.3685
14791TIP3    H165788   2.738   3.607  14.031 -0.1306 -1.2696  0.1466
14791TIP3    H265789   2.867   3.657  13.971 -0.6557  0.9520  0.7902
14792TIP3   OH265790   0.408   4.304   2.953 -0.4229  0.4064  0.1290
14792TIP3    H165791   0.330   4.293   2.899 -0.8290  0.9453  0.5988
14792TIP3    H265792   0.375   4.311   3.042  0.1561  0.6974  0.3235
14793TIP3   OH265793   4.484   0.347   3.557  0.2803 -0.2948  0.0738
14793TIP3    H165794   4.549   0.417   3.547  0.9110 -0.9671 -0.6614
14793TIP3    H265795   4.415   0.370   3.495  0.4342 -0.2598 -0.0855
14794TIP3   OH265796   2.124   3.647  11.131 -0.3358 -0.2503 -0.6663
14794TIP3    H165797   2.192   3.680  11.190  0.8955  0.9123 -2.6124
14794TIP3    H265798   2.115   3.555  11.154  0.9822 -0.1197  0.5051
14795TIP3   OH265799   3.072   1.669  12.196 -0.0407  0.1342  0.2904
14795TIP3    H165800   3.108   1.723  12.125 -3.4581  0.4810 -1.3847
14795TIP3    H265801   3.125   1.691  12.272  3.4454  0.2011 -1.9512
14796TIP3   OH265802   2.200   3.217   1.098  0.5390 -0.0296 -0.1182
14796TIP3    H165803   2.228   3.187   1.011  0.0718 -0.6729 -0.0527
14796TIP3    H265804   2.150   3.297   1.080  1.7607  0.7264 -0.2970
14797TIP3   OH265805   2.676   6.413  15.103 -0.6695 -0.3135  0.0864
14797TIP3    H165806   2.752   6.451  15.147  0.2883 -1.0849 -0.8416
14797TIP3    H265807   2.614   6.395  15.173  0.7131 -1.3057  1.1136
14798TIP3   OH265808   1.639   6.403   0.787 -0.3885 -0.1042  0.3374
14798TIP3    H165809   1.596   6.428   0.705 -1.9503 -0.4500  1.0212
14798TIP3    H265810   1.702   6.474   0.804 -1.7405  1.2031  0.0621
14799TIP3   OH265811   2.312   3.808   5.640  0.0825 -0.0973  0.0865
14799TIP3    H165812   2.343   3.780   5.726  0.4770  0.3213  0.0851
14799TIP3    H265813   2.386   3.856   5.603 -0.6372  1.1210  0.1750
14800TIP3   OH265814   2.492   6.754   4.714 -0.1057  0.5795  0.4698
14800TIP3    H165815   2.531   6.717   4.635  0.3393 -0.2064  1.0575
14800TIP3    H265816   2.400   6.767   4.690 -0.2298 -0.7166  0.1889
14801TIP3   OH265817   5.391   1.316  13.995 -0.2447  0.2910  0.2647
14801TIP3    H165818   5.450   1.243  13.978  0.8403  0.8331  1.5888
14801TIP3    H265819   5.435   1.392  13.956 -0.4967  0.5497  0.4782
14802TIP3   OH265820   1.489   6.366  16.376 -0.2362 -0.1755  0.0619
14802TIP3    H165821   1.473   6.276  16.349  0.1727 -1.1631  2.8142
14802TIP3    H265822   1.540   6.404  16.304 -0.6185 -2.0328 -1.2603
14803TIP3   OH265823   0.717   2.107   2.361 -0.5168 -0.4050 -0.2698
14803TIP3    H165824   0.790   2.149   2.406 -1.3388  0.1022  0.6220
14803TIP3    H265825   0.695   2.166   2.289 -1.1307  0.3084  0.4842
14804TIP3   OH265826   0.026   5.470  15.403 -0.1010 -0.3879 -0.7289
14804TIP3    H165827   0.016   5.410  15.329  3.1254 -0.1111 -1.5415
14804TIP3    H265828  -0.019   5.550  15.375 -0.4143 -0.8816 -1.6684
14805TIP3   OH265829   5.879   4.642  16.286  0.3593 -0.2073 -0.3058
14805TIP3    H165830   5.947   4.658  16.221  0.1818 -1.5494 -0.8600
14805TIP3    H265831   5.812   4.593  16.239 -1.3599  1.7115  0.0412
14806TIP3   OH265832   6.093   0.270  13.587 -0.6157  0.2152 -0.0311
14806TIP3    H165833   6.172   0.297  13.632 -1.1802  1.5774  0.1842
14806TIP3    H265834   6.115   0.274  13.494 -0.2912  0.1196  0.0425
14807TIP3   OH265835   4.164   5.698  16.264 -0.6179  0.1216  0.6948
14807TIP3    H165836   4.077   5.729  16.291 -0.2832  1.5445  0.2014
14807TIP3    H265837   4.225   5.763  16.300  0.1332 -0.1056 -0.1321
14808TIP3   OH265838   0.357   5.148  16.704  0.1709  0.0433  0.0451
14808TIP3    H165839   0.291   5.151  16.635  0.1263 -1.8023 -0.0512
14808TIP3    H265840   0.438   5.177  16.661  0.3008 -1.7438 -1.0424
14809TIP3   OH265841   1.632   3.877   4.170 -0.7831  0.1361  0.5503
14809TIP3    H165842   1.631   3.794   4.122 -2.6171  0.9155 -0.8309
14809TIP3    H265843   1.709   3.923   4.137  0.3847 -1.0519  1.4898
14810TIP3   OH265844   0.196   4.002  16.255  0.4228  0.4783 -0.2168
14810TIP3    H165845   0.156   4.043  16.332  0.5725  1.5397 -0.6883
14810TIP3    H265846   0.155   4.046  16.180  0.9858  0.1425 -0.7298
14811TIP3   OH265847   3.991   1.498   1.882 -0.7598 -0.6270  0.5033
14811TIP3    H165848   3.955   1.579   1.845 -1.0668 -1.1772 -0.4209
14811TIP3    H265849   3.951   1.492   1.969 -0.0694  0.6549  0.9495
14812TIP3   OH265850   2.083   2.286  12.518  0.3912  0.2820  0.4985
14812TIP3    H165851   2.014   2.302  12.583  0.3282  0.3645  0.4111
14812TIP3    H265852   2.036   2.266  12.437  0.4699  0.2289  0.4658
14813TIP3   OH265853   1.887   5.132  11.371  0.3620 -0.3996 -0.0715
14813TIP3    H165854   1.799   5.169  11.360 -0.1025 -1.6670 -0.9630
14813TIP3    H265855   1.926   5.137  11.284  1.3254  0.4703  0.3938
14814TIP3   OH265856   0.203   3.032   6.129 -0.0329  0.0491 -0.1647
14814TIP3    H165857   0.196   2.937   6.138 -0.0866 -0.0359 -1.0012
14814TIP3    H265858   0.280   3.056   6.180 -0.8745 -0.2448  1.2933
14815TIP3   OH265859   3.789   6.540   0.943  0.5639 -0.2253 -0.4175
14815TIP3    H165860   3.781   6.614   0.883 -2.3100 -0.5924 -0.6389
14815TIP3    H265861   3.718   6.481   0.917  0.1153 -1.0605  2.4235
14816TIP3   OH265862   5.127   3.444   0.829 -0.0434 -0.1239  0.3801
14816TIP3    H165863   5.049   3.438   0.883 -0.5511 -0.5564 -0.3961
14816TIP3    H265864   5.145   3.354   0.802 -0.3402  0.1937 -0.9295
14817TIP3   OH265865   2.564   4.202  11.909  0.8438 -0.1931  0.1314
14817TIP3    H165866   2.550   4.296  11.920  2.5493  0.2185 -0.7957
14817TIP3    H265867   2.568   4.168  11.999 -2.7159  0.0361  0.5210
14818TIP3   OH265868   3.782   4.945  13.596 -0.0350 -0.0053 -0.2294
14818TIP3    H165869   3.823   4.862  13.570 -0.5474 -0.8084  1.3875
14818TIP3    H265870   3.690   4.935  13.571 -0.2111 -0.1534  0.4775
14819TIP3   OH265871   1.802   2.068  14.667  0.1896  0.0405  0.1422
14819TIP3    H165872   1.781   2.159  14.644 -0.4828 -0.4739 -1.4507
14819TIP3    H265873   1.898   2.064  14.660  0.1102  0.2044 -1.7041
14820TIP3   OH265874   2.148   1.420   0.729  0.1087 -0.3237  0.3453
14820TIP3    H165875   2.058   1.452   0.730  0.4886  0.7956  0.3593
14820TIP3    H265876   2.198   1.488   0.775  0.8634 -1.2303  0.8810
14821TIP3   OH265877   2.558   0.432   1.470  0.8591  0.2698  0.1523
14821TIP3    H165878   2.636   0.393   1.508  0.5407 -0.1038  0.4324
14821TIP3    H265879   2.572   0.526   1.477  1.6711  0.2158 -0.6012
14822TIP3   OH265880   6.285   0.685   1.761 -0.3157 -0.1874 -0.5558
14822TIP3    H165881   6.224   0.754   1.733 -1.3438  0.4733  2.8294
14822TIP3    H265882   6.228   0.617   1.798  0.9105 -0.6710  0.4904
14823TIP3   OH265883   4.607   3.005   4.599  0.2319 -0.2387 -0.5385
14823TIP3    H165884   4.653   2.942   4.542 -0.3282  0.8504 -2.2522
14823TIP3    H265885   4.652   3.088   4.584  0.4536 -0.0201  1.1133
14824TIP3   OH265886   6.677   3.238   1.539 -0.1851  0.3420  0.1103
14824TIP3    H165887   6.711   3.270   1.456 -0.1413  1.1540  0.4347
14824TIP3    H265888   6.596   3.193   1.516 -2.6976  4.4135  0.0328
14825TIP3   OH265889   4.344   4.503  12.282  0.0558  0.2450  0.4624
14825TIP3    H165890   4.419   4.445  12.271 -1.6094 -1.7190 -1.2924
14825TIP3    H265891   4.353   4.537  12.371  2.2211 -1.0615  0.8090
14826TIP3   OH265892   3.348   5.584  11.450 -0.2661  0.2953  0.0446
14826TIP3    H165893   3.380   5.546  11.368 -0.4631  0.4519 -0.1052
14826TIP3    H265894   3.412   5.556  11.516  0.4510  0.9967 -0.3323
14827TIP3   OH265895   5.081   0.326   4.929  0.3357 -0.1313  0.1245
14827TIP3    H165896   5.064   0.257   4.864  0.4134 -1.6500  1.6488
14827TIP3    H265897   5.102   0.278   5.009  2.2931  1.6783  0.7626
14828TIP3   OH265898   0.416   3.822  15.973  0.1560  0.6278  0.4434
14828TIP3    H165899   0.351   3.800  16.039 -0.4033 -0.9323 -0.5714
14828TIP3    H265900   0.365   3.860  15.901  0.4492  0.1333 -0.0337
14829TIP3   OH265901   0.689   4.209   5.252 -0.1735 -0.4259  0.3548
14829TIP3    H165902   0.616   4.213   5.314 -0.3870 -1.1626  0.1620
14829TIP3    H265903   0.675   4.283   5.193  1.0376  1.4233  2.2473
14830TIP3   OH265904   0.257   6.275   6.278 -0.4495  0.3467 -0.0067
14830TIP3    H165905   0.348   6.298   6.296  0.1364 -1.0844 -0.9233
14830TIP3    H265906   0.229   6.336   6.209  0.0800  0.2974 -0.2689
14831TIP3   OH265907   6.100   3.516   0.711 -0.1908  0.0998 -0.2817
14831TIP3    H165908   6.122   3.537   0.620  0.5630 -1.7456 -0.5582
14831TIP3    H265909   6.038   3.444   0.705 -1.4625  1.0659  0.6714
14832TIP3   OH265910   4.700   1.045  10.880  0.8513 -0.0736  0.1063
14832TIP3    H165911   4.752   0.981  10.831 -0.2770  0.2932 -1.6675
14832TIP3    H265912   4.761   1.118  10.894  1.7867 -1.0073  1.0906
14833TIP3   OH265913   4.133   1.557  12.575 -0.5000  0.4315  0.4720
14833TIP3    H165914   4.138   1.582  12.668  0.2202 -0.9105  0.8191
14833TIP3    H265915   4.225   1.551  12.547 -0.6947 -0.1271 -0.0584
14834TIP3   OH265916   1.328   4.075   1.607 -0.3582 -0.3062 -0.4424
14834TIP3    H165917   1.300   3.989   1.638 -3.1844  0.9557  0.8481
14834TIP3    H265918   1.385   4.056   1.532 -1.4087 -3.2557 -0.6183
14835TIP3   OH265919   2.982   4.190   2.578  0.0972  0.4503  0.5838
14835TIP3    H165920   3.063   4.141   2.560 -0.5556 -0.2539 -0.5059
14835TIP3    H265921   3.012   4.278   2.601  1.2527 -0.1994  1.7392
14836TIP3   OH265922   3.061   1.981  13.705 -0.2979  0.1726 -0.6229
14836TIP3    H165923   3.058   2.013  13.795  0.4878  2.8951 -1.4700
14836TIP3    H265924   2.969   1.963  13.683 -0.5910  0.2848  0.4315
14837TIP3   OH265925   0.871   5.764   4.832  0.5432  0.3618  0.3365
14837TIP3    H165926   0.862   5.725   4.919 -0.3981  0.0936  0.1252
14837TIP3    H265927   0.787   5.748   4.790  0.5848  1.5337 -0.2065
14838TIP3   OH265928   3.437   1.680  14.726 -0.4461 -0.0555  0.2237
14838TIP3    H165929   3.468   1.604  14.776  0.1218 -0.1592 -0.2734
14838TIP3    H265930   3.387   1.732  14.789 -0.5963 -0.6951  0.6429
14839TIP3   OH265931   4.085   5.002   6.225 -0.2172 -0.1720  0.4219
14839TIP3    H165932   4.032   5.073   6.190  0.6264  0.1751 -0.1691
14839TIP3    H265933   4.144   5.044   6.288 -0.1802 -0.4550  0.5795
14840TIP3   OH265934   4.602   3.863  12.545  0.5878 -0.0001 -0.0809
14840TIP3    H165935   4.531   3.868  12.609  0.4195 -0.8021 -0.2065
14840TIP3    H265936   4.667   3.926  12.578  0.3261 -0.1086  0.6572
14841TIP3   OH265937   3.646   5.187   4.872  0.6141  0.6506  0.0558
14841TIP3    H165938   3.706   5.247   4.827 -1.4408  1.3961 -1.9257
14841TIP3    H265939   3.566   5.238   4.884 -0.2333 -0.8327  0.9791
14842TIP3   OH265940   5.350   1.755   4.277  0.0056 -0.3411  0.0179
14842TIP3    H165941   5.342   1.831   4.219  1.6977 -0.2305 -0.1292
14842TIP3    H265942   5.391   1.688   4.223 -1.9426 -1.5791 -0.0053
14843TIP3   OH265943   4.931   5.691   1.737 -0.0078  0.0428 -0.5123
14843TIP3    H165944   4.874   5.708   1.813  0.1438 -0.2853 -0.3234
14843TIP3    H265945   4.875   5.645   1.675  0.1086 -0.4960 -0.2281
14844TIP3   OH265946   4.568   3.280   1.238 -0.2071  0.1672  0.3667
14844TIP3    H165947   4.493   3.286   1.180  0.1349  1.1675 -0.0025
14844TIP3    H265948   4.553   3.348   1.305 -0.4034 -0.7041  1.2296
14845TIP3   OH265949   5.827   4.551  11.399  0.8126 -0.1467  0.6268
14845TIP3    H165950   5.768   4.477  11.381  1.0180 -0.6248  1.8461
14845TIP3    H265951   5.773   4.628  11.382  0.5836 -0.5530 -0.6286
14846TIP3   OH265952   5.804   5.822  15.651 -0.0216 -0.1895  0.4256
14846TIP3    H165953   5.773   5.908  15.680 -0.7732 -0.4525  0.4360
14846TIP3    H265954   5.854   5.839  15.571  0.0622  0.2873  0.5830
14847TIP3   OH265955   5.270   2.032  11.663 -0.5482  0.0092  0.3830
14847TIP3    H165956   5.318   2.027  11.746  0.1689 -1.0522 -0.0665
14847TIP3    H265957   5.336   2.054  11.598 -0.5579 -1.7085 -0.2869
14848TIP3   OH265958   4.250   1.538  10.659 -0.4322  0.2274 -0.7069
14848TIP3    H165959   4.208   1.587  10.588 -0.8825  1.5272  0.4202
14848TIP3    H265960   4.187   1.540  10.731 -1.1956 -3.4152 -1.0562
14849TIP3   OH265961   5.086   4.054   4.906 -0.2513  0.1018 -0.1355
14849TIP3    H165962   5.071   4.137   4.861  1.0009 -0.1309 -1.0276
14849TIP3    H265963   5.030   3.991   4.861  0.2542  0.0753 -0.7435
14850TIP3   OH265964   6.257   1.687   3.817 -0.5721  0.7892  0.7224
14850TIP3    H165965   6.271   1.670   3.724 -1.6368  2.2573  0.2450
14850TIP3    H265966   6.175   1.737   3.819 -1.0757 -0.0488  2.5441
14851TIP3   OH265967   1.187   2.224   0.745  1.1132 -0.4953  0.6118
14851TIP3    H165968   1.224   2.273   0.818 -1.0933  0.2964  1.2672
14851TIP3    H265969   1.096   2.207   0.771 -0.0581  0.6893 -2.3568
14852TIP3   OH265970   4.159   2.001   3.841  0.6418  0.1571 -0.1117
14852TIP3    H165971   4.122   2.074   3.890  1.3312  0.5920 -0.2276
14852TIP3    H265972   4.184   2.038   3.757 -2.4377 -1.0041 -1.6919
14853TIP3   OH265973   5.300   0.125   2.928 -0.0457 -0.0393  0.3894
14853TIP3    H165974   5.337   0.141   3.014  1.1675 -1.2429  0.1162
14853TIP3    H265975   5.352   0.054   2.891 -2.3817 -1.5707 -0.1868
14854TIP3   OH265976   3.510   2.870   5.190  0.5445  0.0545  0.4069
14854TIP3    H165977   3.592   2.890   5.144  1.5696  1.3800  2.6062
14854TIP3    H265978   3.475   2.956   5.213  1.4823 -0.4265  4.2601
14855TIP3   OH265979   1.761   2.949   3.710  0.4891 -0.0076  0.4444
14855TIP3    H165980   1.685   2.897   3.683  0.3593 -0.8091  2.1907
14855TIP3    H265981   1.744   2.969   3.802  2.2809  0.0093  0.8001
14856TIP3   OH265982   6.292   5.379  15.565 -0.2300  0.3819 -1.1629
14856TIP3    H165983   6.306   5.298  15.613  2.1978  1.9164  1.0717
14856TIP3    H265984   6.217   5.420  15.608  0.4748  0.6608 -0.1360
14857TIP3   OH265985   2.663   3.042   1.883  0.2502  0.1427 -0.2803
14857TIP3    H165986   2.733   3.106   1.894 -0.2551  0.9418 -1.4397
14857TIP3    H265987   2.584   3.096   1.869 -0.3724 -0.7365 -0.2457
14858TIP3   OH265988   2.177   4.068   4.998 -0.1979  0.0450  0.0541
14858TIP3    H165989   2.095   4.114   5.011 -0.1916 -0.2855  1.5560
14858TIP3    H265990   2.163   3.983   5.040  0.5752 -0.3983 -0.5636
14859TIP3   OH265991   2.435   1.878   5.929 -0.1675 -0.8100  0.1412
14859TIP3    H165992   2.412   1.933   6.004  1.8492 -0.6600  0.7084
14859TIP3    H265993   2.529   1.863   5.939  0.2737 -0.3424 -2.6752
14860TIP3   OH265994   5.740   1.873  13.588  0.3980  0.5863  0.1126
14860TIP3    H165995   5.697   1.905  13.667 -0.9917 -0.1084 -0.3362
14860TIP3    H265996   5.670   1.872  13.522  0.9214 -1.2631 -0.4513
14861TIP3   OH265997   3.159   3.784  11.682  0.3443  0.1150 -0.0928
14861TIP3    H165998   3.105   3.849  11.637  2.2719  0.2722 -2.4023
14861TIP3    H265999   3.235   3.833  11.714  1.0498 -0.6932 -0.4688
14862TIP3   OH266000   2.892   2.708   4.078 -0.1734  0.2571  0.3972
14862TIP3    H166001   2.824   2.739   4.137  1.0211  0.4591  1.7194
14862TIP3    H266002   2.957   2.666   4.136  1.1085  0.5942 -0.7392
14863TIP3   OH266003   3.907   1.861   1.116  0.7102 -0.0769  0.0209
14863TIP3    H166004   3.972   1.835   1.051  0.4059 -2.4482  0.5658
14863TIP3    H266005   3.833   1.893   1.064  1.6171  1.0027 -0.6548
14864TIP3   OH266006   2.903   2.844  14.744 -0.7139 -0.4045 -0.2482
14864TIP3    H166007   2.845   2.920  14.739 -2.3457 -1.6622 -1.0415
14864TIP3    H266008   2.986   2.880  14.776 -1.4374  1.7058 -0.5821
14865TIP3   OH266009   5.391   4.240  13.968  0.4821  0.6789  0.1318
14865TIP3    H166010   5.442   4.168  14.007 -1.8636 -0.4551  1.3125
14865TIP3    H266011   5.407   4.232  13.874  0.6287 -1.1686  0.2680
14866TIP3   OH266012   5.950   0.300  12.495  0.4485 -0.4636  0.1422
14866TIP3    H166013   5.998   0.381  12.512  0.0531  0.1084 -1.3238
14866TIP3    H266014   5.995   0.234  12.547  2.2466  0.2429 -0.4546
14867TIP3   OH266015   3.192   2.422   5.394  0.2745 -0.3820  0.0869
14867TIP3    H166016   3.229   2.484   5.457  1.5530 -0.8253 -0.1915
14867TIP3    H266017   3.101   2.451   5.383  0.6064  0.9491  0.5674
14868TIP3   OH266018   4.475   5.543   1.429  0.2211  0.0571 -0.0920
14868TIP3    H166019   4.388   5.529   1.466  0.4468  2.4973  1.5911
14868TIP3    H266020   4.463   5.527   1.335 -0.7992 -4.4923  0.5761
14869TIP3   OH266021   4.581   0.481  16.221  0.1566 -0.3477  0.0603
14869TIP3    H166022   4.523   0.492  16.147 -0.2439  1.2439  0.5745
14869TIP3    H266023   4.586   0.568  16.262 -0.4207 -1.3572  2.4701
14870TIP3   OH266024   0.276   2.504   5.711 -0.5725  0.1037 -0.6841
14870TIP3    H166025   0.217   2.563   5.757 -1.7332 -0.4094 -1.4737
14870TIP3    H266026   0.219   2.437   5.672  0.3694  0.2916 -2.5155
14871TIP3   OH266027   5.463   4.841  11.063 -0.6182  0.4006  0.2562
14871TIP3    H166028   5.416   4.860  11.145  0.1457 -2.3556  1.4597
14871TIP3    H266029   5.515   4.763  11.083 -0.0642 -0.1263 -2.7551
14872TIP3   OH266030   0.491   6.012  14.682 -0.4568 -0.3515 -0.2643
14872TIP3    H166031   0.531   5.947  14.625 -0.1848  1.1985 -1.9084
14872TIP3    H266032   0.406   5.973  14.707  0.1551 -1.7715 -0.2905
14873TIP3   OH266033   3.058   1.431  16.971  0.2843  0.1314 -0.0116
14873TIP3    H166034   3.022   1.395  17.052 -0.5100 -1.1476 -0.8910
14873TIP3    H266035   3.057   1.525  16.983  0.5301 -0.0448  1.6001
14874TIP3   OH266036   5.313   1.648   2.820  0.0514  0.0039  0.0948
14874TIP3    H166037   5.278   1.559   2.815  0.5724 -0.1467 -1.3348
14874TIP3    H266038   5.296   1.686   2.734  1.4529  0.6560  0.0625
14875TIP3   OH266039   0.865   3.884  14.478  0.6301 -0.3360  0.1856
14875TIP3    H166040   0.774   3.857  14.490  0.7122 -0.0086  1.7517
14875TIP3    H266041   0.912   3.844  14.551  1.3467  1.2328  0.6352
14876TIP3   OH266042   0.295   6.317   1.455  0.2345 -0.1773 -0.2132
14876TIP3    H166043   0.277   6.332   1.363 -0.7696 -0.5252 -0.0818
14876TIP3    H266044   0.381   6.274   1.456  0.4104  0.1421 -0.9499
14877TIP3   OH266045   5.402   4.994   1.308 -0.2014  0.1473  0.4215
14877TIP3    H166046   5.406   4.944   1.227  1.4077  0.7761  0.0577
14877TIP3    H266047   5.311   5.021   1.316 -0.5086 -0.4511 -0.8521
14878TIP3   OH266048   5.881   1.079  13.312 -0.1620  0.1760  0.3580
14878TIP3    H166049   5.916   0.994  13.339 -0.5437 -0.8593 -2.1007
14878TIP3    H266050   5.879   1.074  13.216 -0.0333  3.0490  0.1212
14879TIP3   OH266051   5.522   4.095   0.150 -0.3134 -0.0917 -0.4036
14879TIP3    H166052   5.605   4.142   0.143  1.0439 -2.5893 -2.8066
14879TIP3    H266053   5.523   4.057   0.238  2.4667 -2.2425 -1.2271
14880TIP3   OH266054   0.417   5.880   5.283  0.3234 -0.3691  0.1166
14880TIP3    H166055   0.354   5.881   5.211  0.8581  0.9128 -0.3583
14880TIP3    H266056   0.502   5.892   5.241  0.9231 -2.0511  0.7561
14881TIP3   OH266057   0.747   1.689  12.555 -0.5615  0.1372  0.4260
14881TIP3    H166058   0.717   1.757  12.495  1.6104  1.3026  0.5730
14881TIP3    H266059   0.833   1.663  12.521 -1.0073 -2.0660  0.7831
14882TIP3   OH266060   5.426   6.268   4.118 -0.1937  0.7900  0.0839
14882TIP3    H166061   5.347   6.280   4.066 -0.8202  2.6379  1.3502
14882TIP3    H266062   5.494   6.315   4.070  0.0084 -0.2284 -0.6603
14883TIP3   OH266063   2.617   2.399   1.905  0.0234  0.7396 -0.1885
14883TIP3    H166064   2.529   2.420   1.874 -0.6835 -0.0644  1.1650
14883TIP3    H266065   2.662   2.363   1.829 -1.2569 -0.1006 -0.5773
14884TIP3   OH266066   2.468   1.459   6.069  0.0417  0.2712 -0.2002
14884TIP3    H166067   2.377   1.482   6.089 -0.6147 -0.8602 -1.7550
14884TIP3    H266068   2.480   1.372   6.105  0.9606  0.9247  1.1725
14885TIP3   OH266069   2.212   4.820  13.431  0.8896  0.3826 -0.0468
14885TIP3    H166070   2.248   4.790  13.347 -0.5820  3.0419 -1.7651
14885TIP3    H266071   2.127   4.776  13.437  0.3342  1.3339 -0.7394
14886TIP3   OH266072   6.529   3.134  14.900  0.0083  0.2354 -0.0966
14886TIP3    H166073   6.586   3.080  14.954 -0.8263 -0.6534 -0.0746
14886TIP3    H266074   6.565   3.222  14.908  1.1820 -0.2507  0.1516
14887TIP3   OH266075   4.142   1.839   1.963 -0.0520 -0.0642  0.2873
14887TIP3    H166076   4.085   1.787   1.906  0.9853  1.2077 -2.0472
14887TIP3    H266077   4.203   1.775   2.000  0.1332 -0.7663 -1.1722
14888TIP3   OH266078   1.297   1.500  13.192  0.1820  0.6481  0.1442
14888TIP3    H166079   1.314   1.568  13.127 -0.1268  2.5680  1.9692
14888TIP3    H266080   1.210   1.467  13.169  0.6657  0.2914 -1.2316
14889TIP3   OH266081   3.122   1.643  14.951 -0.6331 -0.4777 -0.3306
14889TIP3    H166082   3.041   1.677  14.988 -0.9376 -1.6729  0.1557
14889TIP3    H266083   3.174   1.721  14.930 -1.6097  0.2807  0.0090
14890TIP3   OH266084   4.281   4.070   0.711  0.0493 -0.0277  0.0195
14890TIP3    H166085   4.274   3.976   0.695  0.5482  0.0187 -0.5010
14890TIP3    H266086   4.331   4.078   0.792  0.4126 -0.2076 -0.1839
14891TIP3   OH266087   0.964   5.402  14.374 -0.0730 -0.1487  0.0200
14891TIP3    H166088   1.008   5.440  14.298 -0.8456 -1.7794 -1.3058
14891TIP3    H266089   1.034   5.387  14.437  1.1754 -1.7812 -1.6562
14892TIP3   OH266090   5.697   2.192  13.217  0.1870  0.6081 -0.0488
14892TIP3    H166091   5.728   2.225  13.301  0.1829  2.0609 -0.5817
14892TIP3    H266092   5.602   2.190  13.225  0.1304  1.6031 -0.2887
14893TIP3   OH266093   2.811   2.668  14.255 -0.5253 -0.1053  0.1064
14893TIP3    H166094   2.864   2.667  14.175  0.1999  0.9592  0.5516
14893TIP3    H266095   2.763   2.751  14.251 -1.1673 -0.4588  0.3484
14894TIP3   OH266096   5.696   2.787  16.285  0.0437  0.0337 -0.2161
14894TIP3    H166097   5.725   2.872  16.252 -0.8197 -0.6118 -2.8711
14894TIP3    H266098   5.766   2.726  16.259 -1.0308 -0.6255 -1.6678
14895TIP3   OH266099   0.548   3.386   3.691 -0.0176 -0.0209  0.0371
14895TIP3    H166100   0.571   3.436   3.613  1.6904 -0.3026  0.3266
14895TIP3    H266101   0.629   3.379   3.741 -0.8317 -0.7476  1.3377
14896TIP3   OH266102   5.902   4.161  10.655  0.2494 -0.1283  0.1882
14896TIP3    H166103   5.872   4.236  10.604  1.7396 -0.9619 -2.0341
14896TIP3    H266104   5.823   4.112  10.676 -0.4467  0.5272 -0.8513
14897TIP3   OH266105   0.694   3.055   0.675  0.3471 -0.1789  0.0695
14897TIP3    H166106   0.687   3.038   0.769  0.5449 -1.6221 -0.1591
14897TIP3    H266107   0.643   3.135   0.662  0.4927  0.1718  1.4345
14898TIP3   OH266108   4.654   1.443   0.583  0.5249  0.6281 -0.2893
14898TIP3    H166109   4.609   1.512   0.633  2.3791  2.1457 -0.6194
14898TIP3    H266110   4.739   1.480   0.562  1.3664 -1.5748 -1.0227
14899TIP3   OH266111   4.625   4.588   5.151 -0.3622 -0.3940  0.0233
14899TIP3    H166112   4.666   4.542   5.225 -0.6344 -0.2386  0.2706
14899TIP3    H266113   4.679   4.667   5.140  0.2375 -0.8665 -0.5406
14900TIP3   OH266114   0.574   5.042  12.134  0.5270  0.2752 -0.2888
14900TIP3    H166115   0.639   5.101  12.097  1.5351 -1.5221 -1.5444
14900TIP3    H266116   0.624   4.971  12.173 -0.6214 -1.1669 -1.2973
14901TIP3   OH266117   0.173   1.033  16.994 -0.4239  0.1568 -0.1877
14901TIP3    H166118   0.078   1.021  16.988 -0.5849  0.6177  1.0626
14901TIP3    H266119   0.207   0.998  16.912 -1.5542 -1.3656 -0.0543
14902TIP3   OH266120   5.876   5.476   2.797 -0.4694  0.5164  0.5172
14902TIP3    H166121   5.867   5.553   2.853  0.8424 -0.0563  1.5661
14902TIP3    H266122   5.908   5.511   2.714  3.1187  0.9216  1.8960
14903TIP3   OH266123   5.320   5.558  12.000  0.5154  0.1652  0.4328
14903TIP3    H166124   5.386   5.616  11.962 -0.0688  1.4365  1.2810
14903TIP3    H266125   5.252   5.617  12.034 -0.2311 -1.0241  1.1062
14904TIP3   OH266126   1.684   5.261  11.234 -0.3105 -0.1725 -0.4311
14904TIP3    H166127   1.694   5.227  11.145  2.4575 -1.7837  0.3552
14904TIP3    H266128   1.593   5.290  11.238 -1.0100 -1.5178 -3.2747
14905TIP3   OH266129   5.189   1.649  11.948 -0.1065  0.0265  0.0514
14905TIP3    H166130   5.217   1.566  11.987  3.8755  0.8788 -0.5398
14905TIP3    H266131   5.207   1.639  11.854 -2.9743  0.4290 -0.6395
14906TIP3   OH266132   6.771   3.300   4.249  0.3711 -0.4283  0.6342
14906TIP3    H166133   6.693   3.320   4.197  1.7223 -0.9167 -1.7003
14906TIP3    H266134   6.802   3.216   4.215  2.2403  0.0251  1.1057
14907TIP3   OH266135   1.484   1.523   4.297 -0.1273 -0.0449 -0.0605
14907TIP3    H166136   1.501   1.540   4.205  0.3073  2.1457  0.3738
14907TIP3    H266137   1.510   1.432   4.310  1.8066  0.2196 -1.6584
14908TIP3   OH266138   4.197   1.676  13.278  0.0936  0.7804  0.5518
14908TIP3    H166139   4.163   1.764  13.264  2.0490  1.2575 -1.6783
14908TIP3    H266140   4.275   1.688  13.332 -0.4297  0.2175  1.4650
14909TIP3   OH266141   1.918   0.836  15.765 -0.0757 -0.1496 -0.7698
14909TIP3    H166142   1.916   0.850  15.671 -0.1733 -0.8169 -0.8752
14909TIP3    H266143   1.947   0.919  15.802  1.0052 -0.1984 -1.4628
14910TIP3   OH266144   5.591   5.360  14.576  0.2274  0.1622 -0.1536
14910TIP3    H166145   5.562   5.450  14.593  0.9517  0.2707  0.6018
14910TIP3    H266146   5.683   5.360  14.603  0.6823 -0.4015 -1.6090
14911TIP3   OH266147   5.163   1.736   3.703 -0.2974 -0.1374  0.8508
14911TIP3    H166148   5.106   1.675   3.657 -1.7128  0.9045  1.1618
14911TIP3    H266149   5.216   1.776   3.634 -0.4552 -0.5989  0.4627
14912TIP3   OH266150   4.182   5.418  13.334 -0.2496  0.4908 -0.1174
14912TIP3    H166151   4.158   5.410  13.426 -0.0349 -1.5150 -0.1891
14912TIP3    H266152   4.106   5.386  13.286  0.5095 -0.8281 -0.5126
14913TIP3   OH266153   0.443   0.728   5.283  0.7679  0.2030  0.8510
14913TIP3    H166154   0.458   0.633   5.289 -0.8117 -0.0742  0.8486
14913TIP3    H266155   0.360   0.736   5.237  0.4932  1.5721  1.5356
14914TIP3   OH266156   4.431   3.838   0.140 -0.6850  0.6829 -0.0349
14914TIP3    H166157   4.507   3.783   0.158 -0.4937  0.6118 -1.0229
14914TIP3    H266158   4.357   3.787   0.174 -0.4884 -0.0972 -0.7510
14915TIP3   OH266159   1.710   6.731  11.543 -0.1474 -0.0477  0.0112
14915TIP3    H166160   1.721   6.740  11.637  1.0269 -1.9680  0.1175
14915TIP3    H266161   1.800   6.731  11.508 -0.5655  0.8206 -1.1453
14916TIP3   OH266162   3.732   0.550   1.233 -0.0053  0.2937  0.1716
14916TIP3    H166163   3.703   0.481   1.174  0.0414  0.6204 -0.2361
14916TIP3    H266164   3.653   0.575   1.281 -0.5813  1.6371 -1.3916
14917TIP3   OH266165   1.765   2.593  15.138  0.3669  0.0946 -0.1161
14917TIP3    H166166   1.698   2.661  15.139 -1.0876 -1.2638  2.3453
14917TIP3    H266167   1.771   2.568  15.045 -1.1190  1.5681 -0.6704
14918TIP3   OH266168   0.879   0.813   3.120  0.5101 -0.3327 -0.9063
14918TIP3    H166169   0.895   0.894   3.169  1.5714 -0.9500 -0.1893
14918TIP3    H266170   0.833   0.841   3.042 -0.7662  0.7558  0.1889
14919TIP3   OH266171   3.298   1.050  12.466 -0.2683  0.4120 -0.0467
14919TIP3    H166172   3.293   1.125  12.407 -1.4360 -0.1771 -0.7097
14919TIP3    H266173   3.251   0.980  12.422 -1.7331  0.1251  1.8326
14920TIP3   OH266174   2.829   0.271   4.581  0.0102  0.1047  0.2772
14920TIP3    H166175   2.817   0.357   4.540 -0.2942 -0.3498 -0.6247
14920TIP3    H266176   2.773   0.273   4.658  0.6523  1.0134  0.7459
14921TIP3   OH266177   1.176   1.575  16.189  0.3531 -0.2646 -0.4209
14921TIP3    H166178   1.110   1.512  16.217 -0.7055  0.8695 -0.2929
14921TIP3    H266179   1.173   1.644  16.255  4.3592 -1.8567  1.8427
14922TIP3   OH266180   4.178   6.097  12.997 -0.3089 -0.0068 -0.9954
14922TIP3    H166181   4.122   6.148  13.056  0.5593  0.2951 -0.4123
14922TIP3    H266182   4.202   6.158  12.928  0.6221  0.3473 -0.3685
14923TIP3   OH266183   0.615   4.443   1.358  0.5154  0.6266  0.0010
14923TIP3    H166184   0.704   4.441   1.325  1.0434  1.7306  1.2407
14923TIP3    H266185   0.560   4.454   1.280  1.3416 -1.1893 -0.8860
14924TIP3   OH266186   5.718   4.773   5.576  0.3044 -0.5729  0.8083
14924TIP3    H166187   5.666   4.831   5.521  2.1190 -0.2446 -0.6391
14924TIP3    H266188   5.809   4.788   5.549  1.0935 -1.8678  2.5195
14925TIP3   OH266189   6.529   0.629  14.951  0.2012 -0.0439 -0.3191
14925TIP3    H166190   6.571   0.662  15.030  2.0614 -0.7971 -0.9547
14925TIP3    H266191   6.492   0.545  14.977 -0.0191  0.1382 -0.0322
14926TIP3   OH266192   2.410   5.895   1.037 -0.0684 -0.1708  1.0094
14926TIP3    H166193   2.437   5.885   1.128 -0.2613  0.8908  1.1948
14926TIP3    H266194   2.339   5.832   1.026  0.3922 -0.7702  1.3994
14927TIP3   OH266195   4.200   4.470  12.689 -0.9973  0.1495  0.6468
14927TIP3    H166196   4.260   4.538  12.659 -1.1212  0.1901  0.4877
14927TIP3    H266197   4.189   4.414  12.612  1.0419 -1.4726  1.4278
14928TIP3   OH266198   4.626   3.883   1.135  0.4658  0.8183  0.5460
14928TIP3    H166199   4.545   3.832   1.136  1.1609 -0.3091  1.1604
14928TIP3    H266200   4.665   3.864   1.050  1.4033 -0.8079  1.3140
14929TIP3   OH266201   2.915   0.347   2.706  0.7597 -0.1718  0.3057
14929TIP3    H166202   2.829   0.379   2.678  0.0583 -2.2322 -0.1016
14929TIP3    H266203   2.913   0.353   2.801 -0.2860 -1.2104  0.3693
14930TIP3   OH266204   0.966   6.692   4.757  0.6063 -0.2363  0.0157
14930TIP3    H166205   0.967   6.668   4.850 -2.2392 -0.1253  0.1730
14930TIP3    H266206   0.992   6.612   4.711 -0.0137 -0.9390  0.8585
14931TIP3   OH266207   1.555   0.189   3.013  0.0123  0.1261 -0.2364
14931TIP3    H166208   1.607   0.249   2.959 -2.1825  2.2186 -0.1802
14931TIP3    H266209   1.611   0.172   3.089  0.9044  1.7601 -0.4822
14932TIP3   OH266210   2.103   5.600   4.841  0.1344  0.2643  0.5801
14932TIP3    H166211   2.139   5.668   4.784  1.1062 -0.1387  0.6908
14932TIP3    H266212   2.019   5.636   4.871 -1.2103 -0.1865 -2.3409
14933TIP3   OH266213   3.084   1.976  17.091 -0.4503  1.1025 -0.0525
14933TIP3    H166214   3.153   1.959  17.027 -1.1630  0.5920 -0.7074
14933TIP3    H266215   3.130   1.986  17.174  0.2482 -1.7670  0.0048
14934TIP3   OH266216   6.550   6.723  14.745 -0.7898  0.2366  0.0644
14934TIP3    H166217   6.478   6.670  14.710  0.0541  0.2076 -1.7808
14934TIP3    H266218   6.595   6.665  14.807 -1.3148 -0.3656 -0.1071
14935TIP3   OH266219   1.280   5.870   2.108 -0.1985  0.1710 -0.1604
14935TIP3    H166220   1.311   5.877   2.198  0.8066 -1.9710 -0.2768
14935TIP3    H266221   1.289   5.777   2.087 -0.5763  0.5891 -2.4187
14936TIP3   OH266222   4.191   0.287  15.752 -0.4108  0.5842 -0.3284
14936TIP3    H166223   4.175   0.205  15.798 -0.9248 -0.0191 -1.5474
14936TIP3    H266224   4.103   0.322  15.734 -0.2136  0.9518 -0.5856
14937TIP3   OH266225   0.127   3.741  15.876 -0.1055  0.0734  0.3304
14937TIP3    H166226   0.173   3.813  15.919  2.0208 -0.2833 -1.1980
14937TIP3    H266227   0.182   3.717  15.801 -2.1720 -1.2602 -0.8964
14938TIP3   OH266228   3.425   3.066  11.276 -0.0937  0.6035  0.0556
14938TIP3    H166229   3.516   3.097  11.275  0.1154  0.0049 -0.7940
14938TIP3    H266230   3.378   3.130  11.329  0.3642  2.2163 -1.4104
14939TIP3   OH266231   2.833   0.434   5.049  0.0135 -0.1596 -0.4390
14939TIP3    H166232   2.771   0.395   5.110  1.4464 -0.0925  1.1374
14939TIP3    H266233   2.782   0.499   5.000 -1.1532 -0.1554  0.7430
14940TIP3   OH266234   4.561   0.153  15.044  0.2532  0.5159  0.5426
14940TIP3    H166235   4.526   0.142  15.132 -0.5389  0.4713  0.2336
14940TIP3    H266236   4.640   0.206  15.055  1.0512 -0.8127  1.4527
14941TIP3   OH266237   4.468   2.715   0.594  0.1771 -0.2914 -0.1384
14941TIP3    H166238   4.474   2.767   0.674  1.7184  0.3546 -0.6383
14941TIP3    H266239   4.424   2.635   0.621 -2.9949  1.4901  0.5114
14942TIP3   OH266240   6.336   5.974   0.492  0.2525  0.4812  0.1077
14942TIP3    H166241   6.372   6.061   0.474  1.0188  0.2735  0.5624
14942TIP3    H266242   6.287   5.984   0.573 -1.7200  1.0205 -1.0913
14943TIP3   OH266243   1.947   4.047  15.844  0.1296 -0.0508 -0.1477
14943TIP3    H166244   2.032   4.007  15.827 -0.4024 -1.4986  0.4455
14943TIP3    H266245   1.965   4.120  15.902  1.4294  2.2088 -3.1165
14944TIP3   OH266246   0.546   6.687  12.209 -0.0990  0.4466 -0.3575
14944TIP3    H166247   0.470   6.660  12.157  1.4101  0.8846 -2.9649
14944TIP3    H266248   0.520   6.770  12.248 -1.2305  0.1902 -0.5266
14945TIP3   OH266249   3.608   2.133  16.479 -0.3165  0.0194  0.2746
14945TIP3    H166250   3.535   2.186  16.511  0.0488  0.2216  0.7861
14945TIP3    H266251   3.602   2.139  16.384 -0.5510  0.6091  0.3231
14946TIP3   OH266252   6.685   1.378  16.106 -0.2777  0.4865 -0.3264
14946TIP3    H166253   6.774   1.345  16.111 -0.7845 -0.7297  1.4204
14946TIP3    H266254   6.659   1.393  16.197 -2.0469  0.2585 -0.7469
14947TIP3   OH266255   0.493   0.787   5.700 -0.0968 -0.9284 -0.7116
14947TIP3    H166256   0.448   0.803   5.617  1.8764 -2.4533 -2.1877
14947TIP3    H266257   0.548   0.864   5.714  0.1879 -1.0170 -1.3017
14948TIP3   OH266258   4.779   4.741  16.519  0.5062 -0.0329  0.3217
14948TIP3    H166259   4.737   4.672  16.468  1.8603 -1.1795  0.6781
14948TIP3    H266260   4.740   4.822  16.487 -1.2085 -0.9604 -0.0391
14949TIP3   OH266261   1.792   5.664  16.090 -0.1022  0.4727  0.6025
14949TIP3    H166262   1.717   5.630  16.040 -1.1350  0.5130  2.0421
14949TIP3    H266263   1.827   5.587  16.135  0.5848  0.5004  0.1257
14950TIP3   OH266264   1.411   6.340  12.670 -0.2642 -0.5693 -0.0682
14950TIP3    H166265   1.465   6.419  12.683  0.7143 -1.2245 -0.0685
14950TIP3    H266266   1.399   6.305  12.758 -0.6843 -0.4403 -0.0714
14951TIP3   OH266267   4.083   0.706  11.164  0.0435 -0.3851  0.2356
14951TIP3    H166268   4.026   0.707  11.087  0.5118  1.2918 -0.1326
14951TIP3    H266269   4.089   0.614  11.189  1.8749 -1.3695 -3.2228
14952TIP3   OH266270   1.621   6.544  14.608  0.2414  0.1298 -0.1203
14952TIP3    H166271   1.660   6.492  14.678  2.0152  1.6311  0.1118
14952TIP3    H266272   1.686   6.541  14.538 -0.1617  1.0218 -0.5432
14953TIP3   OH266273   3.959   2.370   3.253  0.0534 -0.2474  0.4589
14953TIP3    H166274   4.019   2.296   3.263  0.3650 -0.0194  0.3188
14953TIP3    H266275   3.872   2.333   3.263  0.2247 -0.5728  0.7240
14954TIP3   OH266276   1.124   6.738  14.843 -0.2017 -0.3341  0.0680
14954TIP3    H166277   1.071   6.730  14.764 -0.7033  0.9902  0.2526
14954TIP3    H266278   1.061   6.728  14.915 -0.1966  1.0885  0.2860
14955TIP3   OH266279   6.251   1.181  15.862 -0.1396 -0.1262 -0.0611
14955TIP3    H166280   6.304   1.227  15.927 -0.4319  1.8008 -1.1353
14955TIP3    H266281   6.269   1.088  15.879  2.1284  0.3970  0.8191
14956TIP3   OH266282   0.825   2.111  12.880  0.3503  0.2494 -0.0064
14956TIP3    H166283   0.739   2.088  12.914  0.5097 -1.4327 -0.6681
14956TIP3    H266284   0.818   2.205  12.860 -0.1967  0.9957  3.1361
14957TIP3   OH266285   0.056   1.084  10.785  0.3724  0.2072  0.2334
14957TIP3    H166286   0.015   1.002  10.815 -0.7211 -0.6749 -3.2351
14957TIP3    H266287  -0.017   1.138  10.755  1.1775  2.1462  1.5135
14958TIP3   OH266288   3.409   4.338  11.424  0.3462 -0.0397 -0.4719
14958TIP3    H166289   3.464   4.344  11.502 -0.9835  0.2549  0.4845
14958TIP3    H266290   3.376   4.248  11.425 -0.7762  0.3587  0.1141
14959TIP3   OH266291   4.784   6.463  16.619 -0.3105 -0.2818  0.2126
14959TIP3    H166292   4.864   6.459  16.671 -0.0624 -1.1268 -0.2149
14959TIP3    H266293   4.714   6.478  16.683  0.2437  1.1054  0.5202
14960TIP3   OH266294   6.187   3.594  15.432 -0.5902  0.3227 -0.0446
14960TIP3    H166295   6.225   3.556  15.353 -0.0068  0.2065  0.2782
14960TIP3    H266296   6.209   3.687  15.427 -0.9345  0.3919 -0.2343
14961TIP3   OH266297   1.952   5.478  16.348 -0.1920  0.0563  0.5161
14961TIP3    H166298   1.902   5.445  16.273 -0.9413  2.6023 -0.2160
14961TIP3    H266299   1.894   5.542  16.389  1.5385  1.3351  1.0971
14962TIP3   OH266300   2.407   0.392   5.390  0.2626  0.8481 -0.2642
14962TIP3    H166301   2.317   0.367   5.369  0.1603  1.0990 -0.1322
14962TIP3    H266302   2.448   0.312   5.422  0.2877  0.5628 -0.9915
14963TIP3   OH266303   2.297   3.024  11.919  0.1486  0.7206 -0.0638
14963TIP3    H166304   2.281   3.103  11.971 -0.5098  0.9071 -0.5368
14963TIP3    H266305   2.287   2.953  11.982 -1.3766  0.9021 -0.0681
14964TIP3   OH266306   0.570   3.578   5.487 -0.1180 -0.4102 -0.0761
14964TIP3    H166307   0.556   3.628   5.406 -0.9095 -0.3437  0.0952
14964TIP3    H266308   0.492   3.596   5.540  1.1931  1.0510  1.4956
14965TIP3   OH266309   1.939   3.813  16.126 -0.0635  0.1061  0.2913
14965TIP3    H166310   1.870   3.825  16.191 -0.5745  2.6656 -0.6152
14965TIP3    H266311   1.931   3.721  16.100 -2.3508  0.0135  1.0603
14966TIP3   OH266312   2.066   1.802  15.810 -0.6297  0.0972  0.4885
14966TIP3    H166313   2.019   1.804  15.727  0.8691 -2.1317 -0.5091
14966TIP3    H266314   2.004   1.765  15.873 -0.8613 -1.0584 -0.3819
14967TIP3   OH266315   1.522   3.198   4.723  0.3316  0.2530 -0.4546
14967TIP3    H166316   1.491   3.108   4.732 -0.2239  0.4884  0.0538
14967TIP3    H266317   1.447   3.246   4.688  0.2337  0.7453  0.3935
14968TIP3   OH266318   1.166   5.004  10.462 -0.6136  0.2771 -0.3647
14968TIP3    H166319   1.141   5.011  10.554 -1.0914  0.0341 -0.4714
14968TIP3    H266320   1.142   4.914  10.438 -1.5513  0.7010 -1.0403
14969TIP3   OH266321   0.475   6.652  11.444  0.1642  0.1083 -0.1250
14969TIP3    H166322   0.551   6.711  11.448  0.3646 -0.1350 -0.3119
14969TIP3    H266323   0.399   6.710  11.453  0.3799  0.3186  0.3643
14970TIP3   OH266324   2.947   4.722  13.531  0.5066  0.3396  0.2938
14970TIP3    H166325   3.022   4.772  13.499  2.3504 -2.0091  0.6680
14970TIP3    H266326   2.929   4.659  13.461 -0.6791  0.4171  0.5147
14971TIP3   OH266327   4.027   5.717   3.011 -0.5938 -0.0703 -0.5016
14971TIP3    H166328   4.097   5.700   3.074 -0.2136 -2.4648 -1.4783
14971TIP3    H266329   4.070   5.716   2.926 -1.7898 -1.8277 -1.1349
14972TIP3   OH266330   4.299   0.764  13.602 -0.1063 -0.0336 -0.4352
14972TIP3    H166331   4.307   0.839  13.543 -1.9075 -0.6265 -1.5160
14972TIP3    H266332   4.217   0.780  13.649 -0.6932 -1.4859 -0.9326
14973TIP3   OH266333   3.966   5.144   0.826 -0.3890 -0.5446 -0.7827
14973TIP3    H166334   3.907   5.156   0.752  0.1927 -0.5796 -1.2561
14973TIP3    H266335   3.923   5.191   0.898 -1.1163 -0.7832 -1.0474
14974TIP3   OH266336   1.339   0.308   4.811 -0.0630  0.0462  0.1606
14974TIP3    H166337   1.319   0.229   4.862  0.3138 -0.6360 -0.7181
14974TIP3    H266338   1.285   0.376   4.851  0.2208 -0.4652  1.4554
14975TIP3   OH266339   0.022   5.155   1.456  0.3077 -0.4687  0.1027
14975TIP3    H166340  -0.022   5.238   1.444  1.0870 -0.2041 -1.0587
14975TIP3    H266341   0.107   5.178   1.495  0.7922 -0.6319 -0.8168
14976TIP3   OH266342   4.610   2.159   2.475 -0.0265  0.8559  0.0409
14976TIP3    H166343   4.611   2.231   2.539 -0.0088  0.3479  0.6162
14976TIP3    H266344   4.552   2.190   2.406  0.9928  1.9690 -0.3513
14977TIP3   OH266345   1.490   5.194   2.606 -0.3870  0.1802  0.2009
14977TIP3    H166346   1.520   5.245   2.681  1.0976 -0.3675  0.0248
14977TIP3    H266347   1.455   5.114   2.644  0.9122 -0.3595  0.3101
14978TIP3   OH266348   6.121   1.674  10.782 -0.5522  0.2176 -0.1838
14978TIP3    H166349   6.188   1.642  10.842  0.1524 -1.2238 -1.6622
14978TIP3    H266350   6.040   1.631  10.812 -0.2289 -0.4094 -0.1887
14979TIP3   OH266351   3.970   1.487   5.128 -0.1679 -0.3833 -0.2982
14979TIP3    H166352   3.923   1.414   5.089  0.6735 -0.6480 -0.8451
14979TIP3    H266353   3.981   1.463   5.220  0.0484 -0.9180 -0.4620
14980TIP3   OH266354   1.779   4.873  11.151 -0.4135 -0.2284 -0.0905
14980TIP3    H166355   1.830   4.922  11.086  1.6231 -1.0967  0.7760
14980TIP3    H266356   1.708   4.933  11.175  0.0943  0.9840 -1.4388
14981TIP3   OH266357   2.234   1.771   2.553  0.0213 -0.1514 -0.3010
14981TIP3    H166358   2.181   1.798   2.629 -0.1411 -0.2466 -0.3784
14981TIP3    H266359   2.299   1.711   2.590  0.1969  0.1178 -0.1752
14982TIP3   OH266360   6.285   6.790  15.870  0.2267 -0.2663 -0.5056
14982TIP3    H166361   6.265   6.711  15.821  1.7320 -1.6557  0.9768
14982TIP3    H266362   6.203   6.839  15.872 -0.3179 -0.9680 -2.8414
14983TIP3   OH266363   1.908   0.759  11.651 -0.1822 -0.0178 -0.2700
14983TIP3    H166364   1.906   0.673  11.610  0.5700  0.2850 -0.9781
14983TIP3    H266365   1.991   0.762  11.697 -0.2983  0.2510 -0.0738
14984TIP3   OH266366   0.376   1.640  16.067 -0.4544  0.0267 -0.6644
14984TIP3    H166367   0.361   1.551  16.033 -2.0867  0.4532 -1.1533
14984TIP3    H266368   0.404   1.690  15.990 -1.3097  0.3264 -0.7947
14985TIP3   OH266369   0.159   2.597   1.189 -1.1307 -0.0737  0.5247
14985TIP3    H166370   0.085   2.655   1.176 -1.0543 -0.1823 -0.5395
14985TIP3    H266371   0.175   2.598   1.283 -0.7400  2.1073  0.4814
14986TIP3   OH266372   0.195   1.166   3.245  0.2516  0.1956  0.2640
14986TIP3    H166373   0.111   1.209   3.227  0.1890 -0.6421 -1.6624
14986TIP3    H266374   0.261   1.227   3.213  0.2282 -0.3903 -0.9536
14987TIP3   OH266375   3.254   4.532  16.953  0.1956  0.1346 -0.1636
14987TIP3    H166376   3.174   4.583  16.968 -1.2543 -1.8122 -0.8324
14987TIP3    H266377   3.309   4.550  17.029 -1.8876 -0.2688  1.5392
14988TIP3   OH266378   1.663   6.002  16.490  0.3089 -0.4776  0.1957
14988TIP3    H166379   1.609   6.071  16.528  1.3947 -0.2046  1.3188
14988TIP3    H266380   1.718   6.047  16.426 -1.2662 -0.8783 -1.5196
14989TIP3   OH266381   2.543   5.119   5.528 -0.2621  0.0867 -0.2712
14989TIP3    H166382   2.511   5.207   5.548 -0.3469  0.0241 -0.1252
14989TIP3    H266383   2.517   5.066   5.603 -0.7810 -0.2007 -0.6414
14990TIP3   OH266384   5.941   6.614   6.473  0.6231 -0.2401  0.2916
14990TIP3    H166385   5.852   6.591   6.445  0.7853 -0.5170  0.0087
14990TIP3    H266386   5.998   6.558   6.421  1.0004  0.4903 -0.0853
14991TIP3   OH266387   3.972   6.531  15.816 -0.0686 -0.2494  0.2265
14991TIP3    H166388   3.928   6.520  15.732 -0.9632  1.1045  0.4919
14991TIP3    H266389   4.012   6.446  15.833  0.2010 -0.5249 -1.5929
14992TIP3   OH266390   1.141   2.574  14.523  0.0397  0.0118 -0.1920
14992TIP3    H166391   1.118   2.615  14.439  1.3179 -1.0884 -1.1187
14992TIP3    H266392   1.183   2.644  14.573  1.0205  0.1995 -1.2409
14993TIP3   OH266393   4.619   6.522   2.916 -0.1953 -0.7677 -0.0227
14993TIP3    H166394   4.577   6.436   2.918 -1.1691 -0.2947  0.9858
14993TIP3    H266395   4.661   6.526   2.830 -3.6714 -0.6389 -1.9092
14994TIP3   OH266396   1.901   2.562   0.145 -0.3670  0.0310 -0.2172
14994TIP3    H166397   1.931   2.477   0.112  0.7059  0.1576  0.3907
14994TIP3    H266398   1.977   2.619   0.135  0.2445 -0.0499  2.9550
14995TIP3   OH266399   4.296   1.180  14.498 -0.2972  0.1473 -0.2837
14995TIP3    H166400   4.244   1.112  14.541 -0.6131 -0.1515 -1.1067
14995TIP3    H266401   4.382   1.140  14.486  0.6434  1.1558  2.4122
14996TIP3   OH266402   0.609   5.652   5.558 -0.6109  0.0026 -0.0463
14996TIP3    H166403   0.556   5.651   5.638  0.9560  0.5847  1.0531
14996TIP3    H266404   0.699   5.647   5.589  0.0258 -0.4112 -1.8281
14997TIP3   OH266405   4.585   1.396   0.981  0.4819  0.5472 -0.7987
14997TIP3    H166406   4.569   1.431   1.068  0.9665  1.0769 -0.9156
14997TIP3    H266407   4.535   1.453   0.922 -0.4425 -0.2572 -0.8094
14998TIP3   OH266408   2.965   0.716  10.303 -0.3489  0.7376 -0.2337
14998TIP3    H166409   2.988   0.809  10.307 -1.5684  1.0401  0.1192
14998TIP3    H266410   2.886   0.708  10.356 -0.6819 -0.3747 -0.8535
14999TIP3   OH266411   6.618   2.033   1.920 -0.1198 -0.1905  0.2063
14999TIP3    H166412   6.639   1.945   1.889  0.7603  0.5850 -1.5703
14999TIP3    H266413   6.550   2.064   1.860  0.8321  0.9660 -0.3110
15000TIP3   OH266414   6.758   1.989   0.487  0.6157  0.0917 -0.2586
15000TIP3    H166415   6.802   1.942   0.558 -0.0617  0.7360  0.6135
15000TIP3    H266416   6.810   2.069   0.476  0.6210  0.0735 -0.3589
15001TIP3   OH266417   3.924   5.086  10.270 -0.1584 -0.1682  0.4111
15001TIP3    H166418   3.916   5.164  10.215  1.9181  0.5808  1.0810
15001TIP3    H266419   3.932   5.120  10.359 -0.7107 -1.2469  0.9009
15002TIP3   OH266420   3.833   6.184  15.434  0.2372 -0.2315 -0.3781
15002TIP3    H166421   3.824   6.224  15.348  1.2141  1.2369  0.1775
15002TIP3    H266422   3.746   6.191  15.473  0.2845  0.9779 -0.4618
15003TIP3   OH266423   1.956   4.790   4.551  0.2041  0.5779 -0.5318
15003TIP3    H166424   1.921   4.855   4.612  1.3632  1.8612 -1.1784
15003TIP3    H266425   1.987   4.719   4.607  1.7184  1.9530  0.4665
15004TIP3   OH266426   1.054   1.439   6.329  0.3532 -0.1109  0.1082
15004TIP3    H166427   1.118   1.369   6.314  0.6360 -0.5852  2.9573
15004TIP3    H266428   1.021   1.422   6.417 -1.0633  2.2190  0.0933
15005TIP3   OH266429   5.345   4.993   4.059  0.3734  0.0531 -0.5980
15005TIP3    H166430   5.257   4.953   4.057 -0.4115  1.2165  3.0525
15005TIP3    H266431   5.360   5.021   3.969 -2.9391 -0.3681 -1.4391
15006TIP3   OH266432   4.157   4.338  16.463 -0.3626  0.1059 -0.2011
15006TIP3    H166433   4.231   4.340  16.523  0.1763 -0.7329 -0.8072
15006TIP3    H266434   4.183   4.275  16.396 -1.7746 -0.4888 -0.2251
15007TIP3   OH266435   1.131   2.650   3.722  0.5450 -0.8686 -0.3447
15007TIP3    H166436   1.084   2.718   3.769 -0.3262 -1.0709 -0.8888
15007TIP3    H266437   1.177   2.601   3.790  0.9244  0.0628  0.0777
15008TIP3   OH266438   2.821   2.183   2.212 -0.0286  0.0439 -0.1589
15008TIP3    H166439   2.802   2.116   2.278 -1.8493 -1.1687 -1.8336
15008TIP3    H266440   2.754   2.250   2.225  1.6283  1.5072  1.3366
15009TIP3   OH266441   0.546   6.748   0.354  0.2854 -0.2204  0.0305
15009TIP3    H166442   0.520   6.684   0.420 -0.7460  0.6411  0.4921
15009TIP3    H266443   0.482   6.738   0.283 -0.2694  0.6947  0.3790
15010TIP3   OH266444   5.272   5.360  12.463 -0.8986  0.1290  0.2120
15010TIP3    H166445   5.333   5.312  12.519 -1.1588 -2.2845 -1.4685
15010TIP3    H266446   5.191   5.363  12.514 -1.2362 -2.3305 -0.0680
15011TIP3   OH266447   5.254   2.371  15.995  0.1544 -1.1938 -0.5400
15011TIP3    H166448   5.311   2.294  15.994 -1.0148 -2.1321  0.8597
15011TIP3    H266449   5.258   2.403  16.085  0.6054  0.4115 -1.0947
15012TIP3   OH266450   5.846   5.732   1.536  0.2451 -0.1243  0.2874
15012TIP3    H166451   5.851   5.810   1.479  1.1443  0.0478  0.5769
15012TIP3    H266452   5.933   5.692   1.528 -0.6433 -1.9262 -0.9730
15013TIP3   OH266453   2.584   3.610   1.703  0.3204 -0.3505 -0.6006
15013TIP3    H166454   2.588   3.610   1.798  1.6798 -0.0199 -0.6467
15013TIP3    H266455   2.652   3.672   1.676  1.4237 -2.0232 -1.8372
15014TIP3   OH266456   1.582   3.770  15.875 -0.0990  0.2707  0.4031
15014TIP3    H166457   1.499   3.761  15.828  0.1763 -1.0809  0.1442
15014TIP3    H266458   1.559   3.816  15.956 -1.0011  0.3985  0.0817
15015TIP3   OH266459   4.510   6.379  13.833 -0.2024 -0.4679  0.4507
15015TIP3    H166460   4.567   6.393  13.758 -2.2732  0.8141 -0.9691
15015TIP3    H266461   4.461   6.299  13.811 -0.8209 -0.0829  0.3962
15016TIP3   OH266462   2.972   3.038  12.680 -0.4975  0.5045  0.7015
15016TIP3    H166463   2.886   3.000  12.663 -1.2873  1.7540  1.7303
15016TIP3    H266464   3.004   3.066  12.595  0.6749 -3.3679 -0.3786
15017TIP3   OH266465   2.155   2.252   0.139  0.2087 -0.3193  0.2466
15017TIP3    H166466   2.174   2.158   0.131 -0.0419 -0.3459 -0.0621
15017TIP3    H266467   2.060   2.258   0.131  0.2138 -0.0500  0.3853
15018TIP3   OH266468   4.787   0.420  13.447  0.2625 -0.2216  0.0407
15018TIP3    H166469   4.820   0.498  13.491  1.4012 -0.3408 -0.5679
15018TIP3    H266470   4.692   0.429  13.449  0.3710  0.8905  0.4807
15019TIP3   OH266471   0.838   6.634   0.747  0.2957 -0.2141  0.2218
15019TIP3    H166472   0.908   6.651   0.683 -1.4261  0.8871 -1.4727
15019TIP3    H266473   0.832   6.539   0.751 -0.6514 -0.3718 -2.6397
15020TIP3   OH266474   2.177   2.457  17.030  0.2989 -0.1054 -0.4257
15020TIP3    H166475   2.156   2.410  17.110 -0.6512  1.2200  0.1459
15020TIP3    H266476   2.132   2.541  17.039  0.1265  0.0586 -2.3750
15021TIP3   OH266477   1.783   2.739   4.853 -0.0646 -0.4879 -0.2102
15021TIP3    H166478   1.753   2.817   4.899 -0.7404 -0.6526 -0.3592
15021TIP3    H266479   1.818   2.682   4.921  1.7916  0.5186 -0.2430
15022TIP3   OH266480   4.814   2.939   3.079  0.2815 -0.0424 -0.0103
15022TIP3    H166481   4.871   2.870   3.043  0.2229 -0.4108  0.5908
15022TIP3    H266482   4.872   2.991   3.134  0.4293  0.6841 -0.8282
15023TIP3   OH266483   2.586   0.223   1.966 -0.1560  0.5192  0.4957
15023TIP3    H166484   2.552   0.236   2.054  0.5972  2.4506  0.5659
15023TIP3    H266485   2.570   0.307   1.921 -1.1437 -0.6319 -1.4428
15024TIP3   OH266486   3.041   3.318  16.037 -0.1944 -0.0785 -0.2622
15024TIP3    H166487   3.134   3.306  16.054 -0.3888 -2.3079 -0.4560
15024TIP3    H266488   3.036   3.393  15.978  1.5187 -0.2093 -0.6119
15025TIP3   OH266489   1.939   1.911  12.937  0.4402 -0.0485  0.0344
15025TIP3    H166490   1.872   1.858  12.893  0.3606 -1.1779  1.4192
15025TIP3    H266491   1.999   1.936  12.867 -0.0157 -1.2403 -0.8317
15026TIP3   OH266492   3.110   6.399   6.616  0.4315 -0.0259 -0.1933
15026TIP3    H166493   3.196   6.422   6.653  1.2511  0.4130 -2.2102
15026TIP3    H266494   3.108   6.445   6.532 -1.5097 -0.6076 -0.5034
15027TIP3   OH266495   2.877   2.042  15.502  0.4409 -0.4395  0.1605
15027TIP3    H166496   2.813   2.066  15.569 -0.3688  0.1074 -0.7854
15027TIP3    H266497   2.959   2.083  15.532 -0.9916  4.6698 -1.7845
15028TIP3   OH266498   0.769   4.541  16.450 -0.2472  0.0962  0.5507
15028TIP3    H166499   0.754   4.594  16.372  1.6151 -1.8532 -1.2567
15028TIP3    H266500   0.681   4.519  16.481 -1.0538  0.6140 -1.2244
15029TIP3   OH266501   1.775   6.560  11.139 -0.5776  0.1961  0.0474
15029TIP3    H166502   1.809   6.598  11.220 -0.5725 -0.9769  0.6267
15029TIP3    H266503   1.849   6.562  11.079  0.1208 -0.9362  0.8086
15030TIP3   OH266504   2.810   0.627  13.888  0.1687 -0.0567  0.1293
15030TIP3    H166505   2.802   0.719  13.862  1.2833 -0.2519 -1.0054
15030TIP3    H266506   2.882   0.593  13.835 -0.8902 -1.8758 -0.2161
15031TIP3   OH266507   6.489   2.222  13.574 -0.2258  0.4184  0.2540
15031TIP3    H166508   6.512   2.149  13.517 -0.0712  0.1974  0.5918
15031TIP3    H266509   6.544   2.294  13.544 -0.6935  0.5183 -0.3571
15032TIP3   OH266510   2.985   5.287  14.296 -0.3797  0.4973  0.1246
15032TIP3    H166511   2.915   5.350  14.282  0.1362  1.4405  1.5970
15032TIP3    H266512   3.046   5.303  14.223 -0.0905  1.9532  0.6564
15033TIP3   OH266513   3.593   4.558  14.074  0.2017 -0.3912  0.2340
15033TIP3    H166514   3.611   4.551  14.167 -3.1240 -0.0103  1.0408
15033TIP3    H266515   3.597   4.468  14.042  3.6640 -0.3232  0.0948
15034TIP3   OH266516   6.146   4.640   3.888 -0.1434 -0.0174  0.4778
15034TIP3    H166517   6.098   4.723   3.889 -0.8629 -0.3706 -1.0512
15034TIP3    H266518   6.145   4.610   3.979  0.1969  1.6708  1.0665
15035TIP3   OH266519   0.871   1.213  12.968 -0.2392  0.3861  0.6011
15035TIP3    H166520   0.779   1.190  12.957  0.1927 -0.3112 -2.7266
15035TIP3    H266521   0.898   1.168  13.049 -2.1880 -1.5712  0.2461
15036TIP3   OH266522   2.135   1.621  13.386 -0.3014  0.0877 -0.0350
15036TIP3    H166523   2.094   1.634  13.471  1.1508  0.8701  0.5816
15036TIP3    H266524   2.062   1.616  13.325 -1.3772 -0.6260  1.2539
15037TIP3   OH266525   1.873   4.191  16.800  0.4771 -0.0642 -0.1465
15037TIP3    H166526   1.797   4.189  16.859  0.5954  0.9887  0.0452
15037TIP3    H266527   1.885   4.099  16.775 -0.7494 -0.2740 -0.0383
15038TIP3   OH266528   6.020   4.103   0.318  0.3358  0.0598 -0.0162
15038TIP3    H166529   6.029   4.198   0.312  0.0958  0.1992  1.4694
15038TIP3    H266530   6.104   4.073   0.350  0.2643 -0.1870 -0.0563
15039TIP3   OH266531   4.771   3.273   1.736 -0.0241 -0.2397  0.5781
15039TIP3    H166532   4.712   3.257   1.809 -1.4100  0.4681 -0.3553
15039TIP3    H266533   4.855   3.294   1.778 -0.5397 -0.7393  1.9333
15040TIP3   OH266534   1.269   0.848  16.811 -0.0288  0.2638  0.4871
15040TIP3    H166535   1.275   0.938  16.779  1.2542  1.0215  2.6400
15040TIP3    H266536   1.358   0.815  16.806 -0.5679 -1.1124 -0.7351
15041TIP3   OH266537   2.970   0.685   3.091 -0.4820 -0.3572  0.2134
15041TIP3    H166538   3.001   0.747   3.157  0.4753 -0.0505 -0.5222
15041TIP3    H266539   3.031   0.693   3.018 -1.1458 -1.1714 -0.4585
15042TIP3   OH266540   1.880   2.568  16.794 -0.1779  0.3385 -0.6769
15042TIP3    H166541   1.923   2.650  16.769 -1.1529  0.0202 -3.8833
15042TIP3    H266542   1.812   2.593  16.856 -1.1574  2.1709 -2.4042
15043TIP3   OH266543   6.173   2.186  13.840 -0.1724  0.5297 -0.7420
15043TIP3    H166544   6.248   2.128  13.855 -0.0625  1.2018  1.9576
15043TIP3    H266545   6.103   2.128  13.812  0.6460 -0.5226 -0.6661
15044TIP3   OH266546   1.275   2.746  15.143 -0.4364  0.0762 -0.1318
15044TIP3    H166547   1.198   2.735  15.198  0.8452 -0.6430  1.5951
15044TIP3    H266548   1.264   2.833  15.104 -1.3695  0.6200  1.2890
15045TIP3   OH266549   5.521   6.479  16.675 -0.0583  0.7372 -0.0070
15045TIP3    H166550   5.453   6.412  16.682  0.0127  0.6838  0.1964
15045TIP3    H266551   5.514   6.527  16.758  0.4732  0.4237  0.2262
15046TIP3   OH266552   4.252   4.794   0.346 -0.2799 -0.5032 -0.1805
15046TIP3    H166553   4.246   4.701   0.367  1.3628 -0.3274  1.2464
15046TIP3    H266554   4.188   4.806   0.276  1.2913 -3.2769 -2.3528
15047TIP3   OH266555   5.928   4.565  13.149  0.1978 -0.2713  0.4021
15047TIP3    H166556   5.863   4.635  13.138  0.1633 -0.4879 -1.0163
15047TIP3    H266557   5.880   4.495  13.192 -0.2634 -0.0780  0.2171
15048TIP3   OH266558   2.383   2.644  12.220  0.3047  0.0643 -0.2112
15048TIP3    H166559   2.338   2.596  12.290  2.0573  1.4682  2.0232
15048TIP3    H266560   2.393   2.581  12.149 -0.6357 -1.7528  1.1980
15049TIP3   OH266561   0.104   5.511   0.008  0.0604  0.7563  0.2920
15049TIP3    H166562   0.074   5.592  -0.033  0.0252 -0.0623 -1.3722
15049TIP3    H266563   0.176   5.538   0.066  0.3505  1.9133 -0.5846
15050TIP3   OH266564   1.384   2.842  13.715 -0.0104  0.7235  0.0797
15050TIP3    H166565   1.297   2.879  13.728 -0.4963 -0.5368  0.6558
15050TIP3    H266566   1.377   2.791  13.635  1.1508  3.2053 -1.7135
15051TIP3   OH266567   6.532   3.223   4.433  0.0256  0.1088  0.2331
15051TIP3    H166568   6.627   3.219   4.431  0.0792  1.1965 -0.4323
15051TIP3    H266569   6.507   3.263   4.350 -1.0841 -0.9943 -0.0031
15052TIP3   OH266570   2.516   2.006   0.149 -0.1836 -0.0412 -0.3284
15052TIP3    H166571   2.515   2.101   0.139  0.5957  0.0559  0.3431
15052TIP3    H266572   2.445   1.988   0.210  1.5076  0.4774  1.9730
15053TIP3   OH266573   4.017   0.914   3.828  0.3418  0.3328 -0.2958
15053TIP3    H166574   4.111   0.923   3.842  0.7342 -1.9857 -0.9594
15053TIP3    H266575   4.001   0.951   3.741  1.0543 -1.1088 -1.0782
15054TIP3   OH266576   3.071   3.386   2.140  0.3240  0.2853  0.5578
15054TIP3    H166577   3.059   3.478   2.165  1.8000  0.7528 -0.3214
15054TIP3    H266578   3.094   3.389   2.048  1.6261 -0.8694  0.8163
15055TIP3   OH266579   2.214   2.603  13.075  0.0791 -0.5828 -0.2828
15055TIP3    H166580   2.203   2.609  12.980  0.6128  1.1078 -0.2702
15055TIP3    H266581   2.286   2.662  13.095 -1.5483  0.9698  1.4189
15056TIP3   OH266582   0.304   0.234  13.175  0.1219 -0.5424  0.6948
15056TIP3    H166583   0.261   0.278  13.249 -1.8550 -0.5253 -0.3662
15056TIP3    H266584   0.237   0.174  13.142 -0.3225  1.6775 -2.9507
15057TIP3   OH266585   3.952   4.117  16.658  0.1249 -0.4937 -0.1905
15057TIP3    H166586   3.885   4.157  16.714 -0.5687 -0.8218 -0.7682
15057TIP3    H266587   3.956   4.175  16.581 -1.4872 -1.9026 -1.4271
15058TIP3   OH266588   6.327   1.565   6.552  0.4601 -0.1642  0.3560
15058TIP3    H166589   6.291   1.500   6.491  0.0530  0.1647  0.2449
15058TIP3    H266590   6.270   1.641   6.542  1.9793  0.8762 -0.8236
15059TIP3   OH266591   1.917   1.656  11.358  0.0810 -0.4383 -0.7261
15059TIP3    H166592   1.959   1.605  11.427 -3.1282 -1.1290  0.9150
15059TIP3    H266593   1.932   1.747  11.383  0.0979 -0.6665  0.1186
15060TIP3   OH266594   0.570   1.945  14.905  0.1734  0.0182  0.3127
15060TIP3    H166595   0.646   1.950  14.848  0.5764 -0.3998  0.8007
15060TIP3    H266596   0.561   1.852  14.925 -0.2880  0.0993  0.4960
15061TIP3   OH266597   1.622   5.091  14.541  0.0170 -0.1416 -0.1004
15061TIP3    H166598   1.620   5.090  14.445  1.1011 -1.2706 -0.1326
15061TIP3    H266599   1.592   5.004  14.566 -2.2989  0.8052  0.6865
15062TIP3   OH266600   1.881   1.440   1.116 -0.4056 -0.0040 -0.1639
15062TIP3    H166601   1.860   1.429   1.209 -1.1398 -0.9198 -0.4172
15062TIP3    H266602   1.955   1.382   1.101  1.1644  1.7841  0.3025
15063TIP3   OH266603   1.198   4.553   2.812  0.0266 -0.3553 -0.0023
15063TIP3    H166604   1.260   4.575   2.882  1.3254 -0.7752 -0.9957
15063TIP3    H266605   1.127   4.617   2.823 -0.1872 -0.8781  2.1500
15064TIP3   OH266606   0.592   6.374  10.627 -0.8243 -0.3388 -0.4743
15064TIP3    H166607   0.678   6.406  10.598 -1.5141 -0.0087 -2.2997
15064TIP3    H266608   0.606   6.282  10.646  0.5284  0.2823  1.9682
15065TIP3   OH266609   4.115   0.261  11.727  0.2300 -0.2093  0.1585
15065TIP3    H166610   4.061   0.335  11.756  3.1187  1.7972  0.8192
15065TIP3    H266611   4.105   0.196  11.796 -0.5991  0.4901  0.7233
15066TIP3   OH266612   1.220   5.192   1.941  0.4649  1.3538 -0.5878
15066TIP3    H166613   1.137   5.221   1.902 -0.3803  0.8478  0.7698
15066TIP3    H266614   1.220   5.097   1.929  0.7265  1.3239 -0.3485
15067TIP3   OH266615   1.646   2.449   5.589 -0.3612 -0.5963  0.2539
15067TIP3    H166616   1.581   2.392   5.630 -0.9255 -0.7607 -0.8245
15067TIP3    H266617   1.615   2.460   5.499  1.4059 -1.1685 -0.4814
15068TIP3   OH266618   1.053   6.677  11.376 -0.0941 -0.5079 -0.1282
15068TIP3    H166619   1.097   6.755  11.408 -0.1287 -0.4834 -0.1395
15068TIP3    H266620   1.123   6.615  11.359 -0.1406 -0.8566  0.8952
15069TIP3   OH266621   3.549   0.092   4.102  0.1164 -0.6185  0.3467
15069TIP3    H166622   3.463   0.051   4.097 -1.2920  2.0540  0.3630
15069TIP3    H266623   3.559   0.113   4.195  0.0187  0.4671  0.1282
15070TIP3   OH266624   6.009   0.553   0.810 -0.4598  0.4810  0.4958
15070TIP3    H166625   5.932   0.503   0.839 -1.1239  0.8912 -0.5181
15070TIP3    H266626   5.989   0.644   0.834 -1.0201  0.8266 -1.1785
15071TIP3   OH266627   0.038   3.998   3.974 -0.1767 -0.2027 -0.1664
15071TIP3    H166628   0.085   3.920   4.002  1.5284  0.7438 -0.2796
15071TIP3    H266629   0.044   3.997   3.879  0.3720  0.3748 -0.1392
15072TIP3   OH266630   5.837   4.829  16.574  0.2905  0.3583  0.5355
15072TIP3    H166631   5.870   4.766  16.511  0.1681 -0.3066  1.1156
15072TIP3    H266632   5.802   4.901  16.521 -0.0800 -0.3214 -0.1531
15073TIP3   OH266633   2.929   1.313   5.083 -0.4022 -0.2187  0.3663
15073TIP3    H166634   3.015   1.310   5.125 -0.5748 -4.2199  0.8078
15073TIP3    H266635   2.925   1.400   5.041  3.5929  0.3055  0.7478
15074TIP3   OH266636   0.438   1.040   2.926  0.0354 -0.2753 -0.1114
15074TIP3    H166637   0.369   1.077   2.871  0.1743  0.7295  0.3760
15074TIP3    H266638   0.450   0.951   2.892 -1.7777 -0.6155  0.0534
15075TIP3   OH266639   6.795   3.440   5.939 -0.5526 -0.2787 -0.8548
15075TIP3    H166640   6.783   3.365   5.881 -0.9964 -1.4513  0.6835
15075TIP3    H266641   6.716   3.441   5.993  0.7367 -0.5308  1.1340
15076TIP3   OH266642   4.719   2.605   1.806  0.1530  0.5479  0.2315
15076TIP3    H166643   4.724   2.526   1.752 -2.1164  1.0675 -0.8275
15076TIP3    H266644   4.723   2.677   1.744  0.7706  1.2598  1.0686
15077TIP3   OH266645   5.011   3.898   1.894 -0.0826  0.0575  0.3877
15077TIP3    H166646   5.006   3.808   1.864 -0.4113 -0.1432  1.0340
15077TIP3    H266647   5.017   3.950   1.813  2.2092 -0.6413  0.0462
15078TIP3   OH266648   4.029   5.249  12.127  0.1364  0.4866 -0.7744
15078TIP3    H166649   3.946   5.295  12.115 -0.7758 -1.5485 -2.9612
15078TIP3    H266650   4.060   5.231  12.038  2.4313  0.2783 -0.0016
15079TIP3   OH266651   5.140   2.001   6.317 -0.3495 -0.5806  0.1302
15079TIP3    H166652   5.090   1.965   6.390 -0.4570 -0.1844  0.2539
15079TIP3    H266653   5.222   1.951   6.318  0.2939  0.4442  1.4724
15080TIP3   OH266654   1.703   2.862   1.723  0.0988 -0.5882 -0.3691
15080TIP3    H166655   1.609   2.847   1.730 -0.0175  0.5975  1.1867
15080TIP3    H266656   1.742   2.775   1.731 -0.7945 -0.8538  1.7396
15081TIP3   OH266657   2.982   6.464   3.973  0.0411 -0.0329  0.6041
15081TIP3    H166658   2.893   6.434   3.955  0.1674  0.7449 -1.7755
15081TIP3    H266659   3.032   6.436   3.896  1.1858  1.9823  0.5417
15082TIP3   OH266660   4.482   4.035   5.867  0.2756  0.4081 -0.5430
15082TIP3    H166661   4.388   4.021   5.857  0.3965  0.1029 -1.3442
15082TIP3    H266662   4.502   4.003   5.955 -0.5795  1.6411  0.1332
15083TIP3   OH266663   1.751   2.348   2.895 -0.3158 -0.4286 -0.0814
15083TIP3    H166664   1.808   2.370   2.821 -0.0553  0.8868  0.4826
15083TIP3    H266665   1.684   2.416   2.894  0.1280  0.0586  1.3412
15084TIP3   OH266666   4.117   5.613   1.779 -0.1293 -0.2935  1.1125
15084TIP3    H166667   4.075   5.687   1.824 -0.5176  0.6062 -0.6529
15084TIP3    H266668   4.211   5.626   1.795  0.1823  2.6173 -1.8741
15085TIP3   OH266669   0.824   5.306   2.543 -0.0948 -0.0246 -0.1722
15085TIP3    H166670   0.895   5.359   2.505 -0.7153 -0.2774 -1.7601
15085TIP3    H266671   0.849   5.215   2.525 -0.4681 -0.1469 -0.0887
15086TIP3   OH266672   2.849   4.409   5.887 -0.0544 -0.1162  0.6808
15086TIP3    H166673   2.919   4.373   5.941  1.6589  1.8686 -0.0975
15086TIP3    H266674   2.797   4.462   5.948  1.5052  1.6053  0.6005
15087TIP3   OH266675   3.905   5.783  13.982 -0.7097  0.0718  0.1230
15087TIP3    H166676   3.916   5.689  13.994 -1.0012 -0.2927 -2.0984
15087TIP3    H266677   3.994   5.816  13.964 -0.7211  0.1055  0.1280
15088TIP3   OH266678   1.915   1.198   4.288 -0.5079 -0.0848  0.1296
15088TIP3    H166679   1.992   1.157   4.249 -0.0425  1.9330 -1.2319
15088TIP3    H266680   1.844   1.136   4.273  0.5855 -1.3983  0.2288
15089TIP3   OH266681   1.538   2.523   3.223 -0.2189  0.0312 -0.2048
15089TIP3    H166682   1.484   2.450   3.193 -0.5326 -0.5582  1.6876
15089TIP3    H266683   1.475   2.590   3.248 -0.2234 -0.9377  2.7337
15090TIP3   OH266684   3.395   2.285   0.260  0.5796 -0.4167 -0.3686
15090TIP3    H166685   3.336   2.322   0.195  1.4446  1.1310 -0.3255
15090TIP3    H266686   3.446   2.360   0.292  1.0415 -1.3397  1.1814
15091TIP3   OH266687   4.252   6.238   0.576 -0.1000 -0.4584  0.1589
15091TIP3    H166688   4.275   6.264   0.665  2.2454 -2.2097  0.1508
15091TIP3    H266689   4.320   6.279   0.521 -1.7048  0.8855 -0.9360
15092TIP3   OH266690   4.456   0.700   3.790  0.1243 -0.1049  0.5245
15092TIP3    H166691   4.434   0.704   3.697 -0.4457  2.0369  0.6913
15092TIP3    H266692   4.443   0.608   3.814  0.4768 -0.7364 -1.5355
15093TIP3   OH266693   4.112   3.827   0.321 -0.1768  0.7866  0.4625
15093TIP3    H166694   4.183   3.765   0.338  0.2776  1.4042  0.8868
15093TIP3    H266695   4.042   3.799   0.379 -0.3917  0.0036 -0.1611
15094TIP3   OH266696   2.115   3.010  14.521 -0.8582  0.4548  0.0170
15094TIP3    H166697   2.026   3.031  14.550 -0.3522  2.8541  0.0648
15094TIP3    H266698   2.170   3.024  14.599 -0.4452 -1.6123  0.1696
15095TIP3   OH266699   5.018   2.902  12.019 -0.5043 -0.0564 -0.6353
15095TIP3    H166700   4.992   2.993  12.034 -1.9744 -0.2862 -1.5523
15095TIP3    H266701   4.937   2.852  12.030  0.2131 -1.2124 -0.4966
15096TIP3   OH266702   0.680   1.926  10.750  0.2210 -0.6474 -0.1473
15096TIP3    H166703   0.753   1.865  10.738  0.0343 -0.9050  0.0490
15096TIP3    H266704   0.602   1.877  10.727  0.2367  0.1056 -1.9597
15097TIP3   OH266705   0.419   6.208  15.224  0.1067  0.2376  0.5501
15097TIP3    H166706   0.351   6.213  15.157  1.5078 -2.0659 -1.2118
15097TIP3    H266707   0.470   6.288  15.213 -0.7027  0.6985  0.0502
15098TIP3   OH266708   4.580   3.751   3.805  0.3915 -0.0311 -0.0568
15098TIP3    H166709   4.565   3.701   3.886  0.8666 -1.9405 -1.0700
15098TIP3    H266710   4.578   3.684   3.736  1.9851  1.2520 -1.4106
15099TIP3   OH266711   2.548   3.243  16.449 -0.1587  0.0852 -0.5176
15099TIP3    H166712   2.460   3.214  16.424 -0.5841  0.3330  0.6674
15099TIP3    H266713   2.539   3.276  16.538  1.2036 -0.1695 -0.2636
15100TIP3   OH266714   5.123   0.311  12.453 -0.1367  0.3120  0.0189
15100TIP3    H166715   5.202   0.365  12.451  0.4549 -0.5273  0.2327
15100TIP3    H266716   5.058   0.361  12.404  0.5342  1.0107 -0.1646
15101TIP3   OH266717   2.687   1.521  12.912 -0.2583 -0.0082 -0.3683
15101TIP3    H166718   2.770   1.488  12.880 -0.4119  0.7804 -1.6464
15101TIP3    H266719   2.693   1.616  12.901 -0.9127  0.1577  0.5615
15102TIP3   OH266720   3.951   2.336  16.456  0.3706 -0.3393  0.1826
15102TIP3    H166721   3.896   2.414  16.467  0.1821 -0.3444 -0.6698
15102TIP3    H266722   3.941   2.288  16.538  0.8313  0.7423  0.8936
15103TIP3   OH266723   4.855   3.318  16.350 -0.1746 -0.2373 -0.2171
15103TIP3    H166724   4.890   3.407  16.346  0.4183 -0.4031  0.9765
15103TIP3    H266725   4.932   3.262  16.359 -0.5725 -0.8365 -0.4737
15104TIP3   OH266726   3.949   6.414   1.532 -0.1213  1.2589 -0.1289
15104TIP3    H166727   3.907   6.336   1.495 -0.8145  2.1067 -1.1778
15104TIP3    H266728   3.971   6.388   1.622 -0.8748  0.0511 -0.2617
15105TIP3   OH266729   3.231   0.735  14.427  0.0681 -0.0153 -0.1495
15105TIP3    H166730   3.206   0.827  14.432  1.2907  0.3010  0.6012
15105TIP3    H266731   3.326   0.735  14.438 -0.0921 -1.4961  1.7140
15106TIP3   OH266732   2.125   0.927   0.130  0.0864 -0.4082  0.1729
15106TIP3    H166733   2.158   0.982   0.059  1.0294 -0.5207  0.5167
15106TIP3    H266734   2.049   0.882   0.092  0.3219 -0.1439 -0.6216
15107TIP3   OH266735   0.713   3.632   4.809  0.2940  0.1036 -0.0774
15107TIP3    H166736   0.656   3.658   4.737  1.3689  0.3286 -0.8627
15107TIP3    H266737   0.782   3.698   4.810  1.2865 -0.9223 -0.0164
15108TIP3   OH266738   1.620   1.983  11.641  0.6103  0.6600  0.5092
15108TIP3    H166739   1.700   2.035  11.633  0.5042  0.5945 -1.5290
15108TIP3    H266740   1.550   2.047  11.649  0.7219  0.7389  0.9172
15109TIP3   OH266741   2.974   2.648  16.509  0.7841  0.2880  0.1507
15109TIP3    H166742   2.997   2.735  16.475 -0.5315  0.8689  0.6859
15109TIP3    H266743   2.889   2.629  16.468  0.1122  0.1404  1.5756
15110TIP3   OH266744   0.437   0.038   4.314 -0.0357  0.0408 -0.4782
15110TIP3    H166745   0.353   0.003   4.344 -0.3852  1.4452  0.3003
15110TIP3    H266746   0.460   0.103   4.381  1.6121 -0.2264 -0.7552
15111TIP3   OH266747   4.848   5.967  17.087 -0.4334  1.1538  0.7478
15111TIP3    H166748   4.846   5.904  17.014  2.1310  1.4629  0.3196
15111TIP3    H266749   4.791   5.928  17.153 -0.8616 -0.3989 -0.4649
15112TIP3   OH266750   6.451   0.068   1.798 -0.0189 -0.4373 -0.0853
15112TIP3    H166751   6.530   0.060   1.851 -0.2944 -0.3590  0.3367
15112TIP3    H266752   6.379   0.064   1.860 -0.2974  2.0978 -0.1072
15113TIP3   OH266753   3.501   0.252  16.100  0.0317  0.5276  0.5401
15113TIP3    H166754   3.518   0.183  16.165  0.6790 -0.2280 -0.4016
15113TIP3    H266755   3.574   0.244  16.038 -0.9053  0.8222 -0.6210
15114TIP3   OH266756   0.433   4.817  15.175  0.9929 -0.1527  0.4583
15114TIP3    H166757   0.400   4.740  15.221  0.6502  0.0362  0.5284
15114TIP3    H266758   0.356   4.855  15.133  0.5355  1.8806  2.8802
15115TIP3   OH266759   6.589   1.141  14.085 -0.0457  0.7677 -0.6156
15115TIP3    H166760   6.572   1.219  14.138  1.4834  2.1290 -1.9947
15115TIP3    H266761   6.532   1.151  14.009 -0.5065  0.0454 -0.3750
15116TIP3   OH266762   3.792   5.695   1.209  0.2290 -0.4435  0.3169
15116TIP3    H166763   3.753   5.782   1.216 -1.8507 -1.3556  0.6496
15116TIP3    H266764   3.859   5.704   1.141 -1.1981  0.9916 -0.9789
15117TIP3   OH266765   2.555   4.542  12.228 -0.2014 -0.1339 -0.2170
15117TIP3    H166766   2.491   4.613  12.225 -0.6291 -0.4812  0.5390
15117TIP3    H266767   2.636   4.581  12.194 -0.3749  0.7708  0.3884
15118TIP3   OH266768   1.770   0.283   1.134 -0.0923  0.1550  0.0470
15118TIP3    H166769   1.782   0.240   1.049 -0.6802  1.0038 -0.4717
15118TIP3    H266770   1.855   0.322   1.153 -0.1127  0.4262 -0.4105
15119TIP3   OH266771   0.068   3.422   3.240 -0.1888  0.3579 -0.2774
15119TIP3    H166772   0.089   3.331   3.220  0.1235  0.6228 -1.2470
15119TIP3    H266773  -0.009   3.418   3.296 -0.5416 -0.4890 -0.8044
15120TIP3   OH266774   0.798   6.129  16.574 -0.1730  0.0829 -0.1714
15120TIP3    H166775   0.769   6.104  16.661 -1.2833  0.4055 -0.4375
15120TIP3    H266776   0.720   6.121  16.518  0.3188  0.6416 -0.9723
15121TIP3   OH266777   6.414   3.131   2.671  0.5563 -0.0196 -0.1009
15121TIP3    H166778   6.399   3.210   2.724 -0.7408  0.6104 -1.3365
15121TIP3    H266779   6.341   3.130   2.609  3.1587  0.6184 -3.4783
15122TIP3   OH266780   2.991   3.530  15.555  0.0631 -0.0495 -0.0849
15122TIP3    H166781   2.968   3.438  15.566  0.9367 -0.8010 -3.5283
15122TIP3    H266782   2.910   3.572  15.526 -0.4063  0.4165  1.7449
15123TIP3   OH266783   4.659   4.789   0.964  0.0751 -0.1833 -0.0213
15123TIP3    H166784   4.641   4.859   0.900 -1.4550 -0.2432  0.3014
15123TIP3    H266785   4.614   4.817   1.043 -0.1930 -1.3327  0.2437
15124TIP3   OH266786   6.382   5.252  11.539  0.3729 -0.0078  0.4652
15124TIP3    H166787   6.375   5.269  11.445  0.7647 -0.9035  0.2650
15124TIP3    H266788   6.330   5.174  11.554  0.0915  0.2820  1.0504
15125TIP3   OH266789   1.488   0.085  11.819  0.0354 -0.1802 -0.2252
15125TIP3    H166790   1.523   0.087  11.731 -0.0868  0.2312 -0.2674
15125TIP3    H266791   1.462  -0.006  11.833 -1.9703  0.1607 -1.4228
15126TIP3   OH266792   5.485   1.023   0.974 -0.2068 -0.5316 -0.5945
15126TIP3    H166793   5.399   1.011   0.933 -0.9615 -0.1959  0.8300
15126TIP3    H266794   5.470   1.089   1.042  0.4172 -2.6682  1.7797
15127TIP3   OH266795   5.784   3.778  12.992 -0.3296 -0.4230  0.5689
15127TIP3    H166796   5.707   3.830  13.016 -0.5615 -0.6732  0.3814
15127TIP3    H266797   5.822   3.752  13.075  0.5091  1.0754  0.6977
15128TIP3   OH266798   2.409   2.822  11.449 -0.4736 -0.2532 -0.4102
15128TIP3    H166799   2.388   2.851  11.538  0.3626  1.3958 -0.7106
15128TIP3    H266800   2.497   2.784  11.456 -0.4138 -0.1378 -0.5282
15129TIP3   OH266801   1.429   1.836  15.673  0.2936  0.2510 -0.1828
15129TIP3    H166802   1.411   1.800  15.759  1.5728 -1.9775 -0.7704
15129TIP3    H266803   1.395   1.771  15.611 -0.7182  1.8540 -1.3923
15130TIP3   OH266804   1.623   1.745  12.503 -0.1454 -0.1702 -0.6081
15130TIP3    H166805   1.600   1.689  12.429 -0.6479  0.1945 -0.7319
15130TIP3    H266806   1.556   1.728  12.568 -0.9005  1.0342 -1.0396
15131TIP3   OH266807   2.293   0.268  16.023 -0.1559 -0.3603 -0.1737
15131TIP3    H166808   2.323   0.242  16.111 -0.9885  1.7395  0.8037
15131TIP3    H266809   2.319   0.359  16.016 -2.9553  0.4696 -0.7714
15132TIP3   OH266810   0.660   2.860  12.057  0.0805  0.5993  0.0931
15132TIP3    H166811   0.678   2.867  11.963 -0.7381  1.9915  0.0129
15132TIP3    H266812   0.725   2.798  12.090  0.7324  0.5212 -1.2919
15133TIP3   OH266813   4.577   0.673   6.040  0.1427 -0.3118  0.5065
15133TIP3    H166814   4.514   0.650   6.108 -0.3583  1.9605  0.8789
15133TIP3    H266815   4.588   0.768   6.048  2.5025 -0.4202 -0.5095
15134TIP3   OH266816   5.117   5.965  12.116  0.0057 -0.6070  0.4151
15134TIP3    H166817   5.097   5.871  12.113  1.0575 -0.8021 -1.2486
15134TIP3    H266818   5.187   5.977  12.052  0.5774  1.1628  1.3108
15135TIP3   OH266819   0.546   0.207   2.541  0.5937 -0.0582  0.0272
15135TIP3    H166820   0.626   0.239   2.499  0.0809 -0.1044 -1.0143
15135TIP3    H266821   0.476   0.258   2.500  0.1289  0.3854  1.3356
15136TIP3   OH266822   0.581   4.695   4.974 -0.1975  0.4879 -0.3255
15136TIP3    H166823   0.512   4.630   4.984 -0.2189  0.3918 -1.0427
15136TIP3    H266824   0.659   4.645   4.952 -0.4037  0.7382 -1.7474
15137TIP3   OH266825   4.220   0.968  14.663  0.0701 -0.0496  0.8209
15137TIP3    H166826   4.179   0.967  14.750  3.3858 -1.3468  2.5203
15137TIP3    H266827   4.200   0.882  14.626 -1.4688  0.5563  0.1535
15138TIP3   OH266828   5.272   0.510  14.741 -0.3577  0.2251  0.0808
15138TIP3    H166829   5.272   0.511  14.837 -0.5003 -0.4921  0.0917
15138TIP3    H266830   5.357   0.473  14.717  0.1175  1.3881 -0.0941
15139TIP3   OH266831   3.379   1.618   0.659 -0.3529 -0.1337 -0.0043
15139TIP3    H166832   3.402   1.531   0.693 -1.4002 -0.0945  0.8635
15139TIP3    H266833   3.448   1.638   0.596 -0.2352 -1.7178 -0.4290
15140TIP3   OH266834   4.302   3.058  10.487  0.5139  0.9906 -0.0805
15140TIP3    H166835   4.319   3.104  10.405  0.1485  0.6085 -0.3768
15140TIP3    H266836   4.227   3.001  10.467 -0.7147  2.1704  1.0083
15141TIP3   OH266837   0.556   3.311   0.692 -0.6056  0.3677 -0.2039
15141TIP3    H166838   0.495   3.345   0.627 -1.1526 -0.6092 -0.2196
15141TIP3    H266839   0.507   3.316   0.775  0.0344  1.4725  0.1332
15142TIP3   OH266840   1.216   3.493   5.652 -0.4319  0.5313 -0.6066
15142TIP3    H166841   1.180   3.464   5.736  1.3911 -1.1571 -0.3060
15142TIP3    H266842   1.182   3.581   5.640 -2.4685  0.0281  0.8424
15143TIP3   OH266843   5.649   1.379  11.982  0.0834  0.3376  0.6955
15143TIP3    H166844   5.598   1.453  11.950  0.8263  0.7148  0.3693
15143TIP3    H266845   5.707   1.356  11.909 -0.2789 -0.7023  0.7168
15144TIP3   OH266846   0.996   0.066   5.154 -0.4391 -0.1793 -0.1686
15144TIP3    H166847   1.089   0.065   5.176 -0.3158  0.0383 -0.6638
15144TIP3    H266848   0.962   0.146   5.195 -0.9562 -1.4774  2.1278
15145TIP3   OH266849   1.249   4.132   6.482 -0.1626 -0.3132  0.1593
15145TIP3    H166850   1.334   4.090   6.468 -0.2366 -0.0595 -1.1902
15145TIP3    H266851   1.227   4.111   6.573  1.6748  0.2488  0.7809
15146TIP3   OH266852   3.257   2.948  10.715 -0.9444  0.5735 -0.2342
15146TIP3    H166853   3.184   2.910  10.666 -0.2897  0.5801 -1.2721
15146TIP3    H266854   3.313   2.873  10.736 -1.1218  0.5978  0.3381
15147TIP3   OH266855   6.215   1.085  12.039 -0.3962 -0.1378  0.2609
15147TIP3    H166856   6.304   1.093  12.004 -1.0559  0.7899 -1.2835
15147TIP3    H266857   6.190   0.995  12.021  0.3699 -0.5439  1.1140
15148TIP3   OH266858   3.055   3.236  10.594  0.4784  0.4316 -0.4308
15148TIP3    H166859   3.064   3.327  10.620  2.6995  0.0473  0.3807
15148TIP3    H266860   2.978   3.204  10.642  0.3824  1.5558  0.1866
15149TIP3   OH266861   0.041   0.128  13.719  0.2756  0.1406 -0.0810
15149TIP3    H166862  -0.044   0.166  13.696 -0.5554 -0.6224  1.5435
15149TIP3    H266863   0.065   0.171  13.801  0.8474 -0.5458  0.1221
15150TIP3   OH266864   6.660   3.946   1.711  0.2502 -0.2182  0.4687
15150TIP3    H166865   6.690   3.988   1.792  0.4942 -0.3592  0.4536
15150TIP3    H266866   6.598   4.008   1.673  0.6313  0.1484  0.4311
15151TIP3   OH266867   1.853   2.811  13.499  0.4364 -0.2621 -0.1778
15151TIP3    H166868   1.918   2.782  13.564  0.7027  0.4855 -0.1026
15151TIP3    H266869   1.783   2.849  13.552  1.0672  1.1908 -0.3386
15152TIP3   OH266870   5.008   2.457  14.961  0.2418 -0.2265 -0.0514
15152TIP3    H166871   5.051   2.391  14.907 -0.1005 -0.6103  0.1338
15152TIP3    H266872   5.076   2.520  14.981  0.4294 -0.2073 -0.7337
15153TIP3   OH266873   3.427   6.374  12.869 -0.1169  0.0317 -0.1954
15153TIP3    H166874   3.352   6.408  12.822  0.2192  0.7473 -0.2315
15153TIP3    H266875   3.501   6.385  12.808 -0.1238 -1.5009 -0.5155
15154TIP3   OH266876   0.830   2.133   1.972 -0.3202  0.2624  0.3478
15154TIP3    H166877   0.903   2.102   2.027  0.8083 -1.1737 -1.8212
15154TIP3    H266878   0.858   2.219   1.941 -0.3256  0.4537  0.8633
15155TIP3   OH266879   3.004   5.993  12.677  0.7142 -0.1146  0.2744
15155TIP3    H166880   2.985   6.081  12.710 -2.5640 -1.1450  1.4994
15155TIP3    H266881   2.998   6.001  12.582 -0.8852  0.7936  0.4128
15156TIP3   OH266882   4.320   3.825   2.984 -0.6512  0.4083  0.1328
15156TIP3    H166883   4.366   3.743   2.970 -0.1433  0.7071  0.0312
15156TIP3    H266884   4.286   3.819   3.074 -1.3210 -0.2468 -0.1528
15157TIP3   OH266885   2.259   1.026   2.718  0.3577 -0.3248 -0.3667
15157TIP3    H166886   2.177   1.075   2.715  1.3649  1.5679  0.8926
15157TIP3    H266887   2.232   0.935   2.724 -1.6284  0.1478 -1.1940
15158TIP3   OH266888   5.484   5.844  14.416 -0.0262  0.2891  0.0522
15158TIP3    H166889   5.451   5.885  14.496 -1.4637 -1.4813  0.4358
15158TIP3    H266890   5.436   5.887  14.345  1.3054  1.9147  0.0888
15159TIP3   OH266891   3.268   1.409  15.344  0.0517  0.2387 -0.5520
15159TIP3    H166892   3.195   1.453  15.386  0.5526 -0.0289  0.6641
15159TIP3    H266893   3.271   1.445  15.256 -0.7012  1.2412 -0.1883
15160TIP3   OH266894   3.777   2.523   2.694  0.3069 -0.5451 -0.0715
15160TIP3    H166895   3.841   2.478   2.639  1.7572 -1.6310  2.3012
15160TIP3    H266896   3.744   2.594   2.640  2.5153 -0.7823 -1.8994
15161TIP3   OH266897   1.690   4.319   0.406  0.2177  0.1030 -0.2217
15161TIP3    H166898   1.678   4.227   0.381 -0.4726  0.6786 -2.2019
15161TIP3    H266899   1.675   4.368   0.325 -0.1345  2.0238  0.9402
15162TIP3   OH266900   5.273   2.476  16.281  0.1850 -0.7128 -0.2690
15162TIP3    H166901   5.290   2.560  16.325  2.1129 -1.0759 -0.2267
15162TIP3    H266902   5.245   2.417  16.352  1.4002 -0.7798  0.1769
15163TIP3   OH266903   3.666   2.088  17.056  0.5525 -0.8512  0.7644
15163TIP3    H166904   3.631   2.005  17.022 -1.3568  0.6622 -1.3450
15163TIP3    H266905   3.724   2.119  16.986 -0.9648  0.8616  0.2048
15164TIP3   OH266906   2.476   6.642  14.969  0.2319 -0.2899  0.6419
15164TIP3    H166907   2.391   6.678  14.995 -1.1266 -1.8889 -1.3694
15164TIP3    H266908   2.491   6.570  15.030 -0.8974 -1.3250 -0.2580
15165TIP3   OH266909   2.532   6.513  16.917 -0.6555  0.1066 -0.1129
15165TIP3    H166910   2.586   6.581  16.878 -1.8648  0.6226 -0.9393
15165TIP3    H266911   2.531   6.443  16.851  2.5434 -1.8934  1.6414
15166TIP3   OH266912   0.784   0.453  11.935  0.4407 -0.3608  0.0780
15166TIP3    H166913   0.780   0.546  11.959 -0.3670 -0.4245  0.2406
15166TIP3    H266914   0.726   0.445  11.859 -1.2102 -1.0720  1.3257
15167TIP3   OH266915   4.476   1.547  13.061 -0.1103  0.8921 -1.2754
15167TIP3    H166916   4.543   1.611  13.083 -0.7484  1.0813  0.3129
15167TIP3    H266917   4.395   1.599  13.053 -0.7077  0.2954  0.4185
15168TIP3   OH266918   0.215   5.456   4.826  0.0497 -0.3500  0.0196
15168TIP3    H166919   0.292   5.407   4.854  0.3756 -0.8503 -1.6422
15168TIP3    H266920   0.183   5.499   4.906  2.0998 -0.0448  0.7252
15169TIP3   OH266921   4.081   2.155   1.572 -0.3204  0.6174  0.1921
15169TIP3    H166922   4.024   2.103   1.515 -0.9818  0.9723  0.5183
15169TIP3    H266923   4.068   2.116   1.659 -0.0971  0.7270  0.2729
15170TIP3   OH266924   1.115   5.720  15.754 -0.1277 -0.3809  0.2515
15170TIP3    H166925   1.058   5.780  15.705  0.5702 -0.6389 -0.9258
15170TIP3    H266926   1.056   5.673  15.812 -0.9920 -0.0134 -0.3060
15171TIP3   OH266927   1.027   0.605   3.715 -0.3744 -0.2041  0.9020
15171TIP3    H166928   0.984   0.663   3.777 -1.7544  0.2491 -0.4116
15171TIP3    H266929   0.968   0.604   3.639  2.0015  0.5697 -1.0728
15172TIP3   OH266930   6.791   3.639  14.878 -0.1323 -0.0674  0.3846
15172TIP3    H166931   6.793   3.578  14.805 -0.3208 -0.9071  1.0656
15172TIP3    H266932   6.700   3.668  14.884 -0.1272 -0.0389  0.3223
15173TIP3   OH266933   5.594   0.225  15.710 -0.0570  0.5265  0.1340
15173TIP3    H166934   5.519   0.217  15.768  0.7769 -0.5401  1.1158
15173TIP3    H266935   5.643   0.301  15.743 -0.1206  0.5436  0.1875
15174TIP3   OH266936   0.810   0.064   2.931 -0.2032  0.4342  0.2021
15174TIP3    H166937   0.758   0.066   2.851 -1.0828 -1.1090  0.6839
15174TIP3    H266938   0.856  -0.020   2.928  1.6297  1.3959  0.2048
15175TIP3   OH266939   3.807   3.361  17.004 -0.2975 -0.3332  0.5037
15175TIP3    H166940   3.722   3.328  17.033 -0.3087  0.9558  2.0929
15175TIP3    H266941   3.822   3.439  17.058  1.4305  0.0502 -0.4624
15176TIP3   OH266942   1.900   0.382  10.147 -0.3684 -0.1794  0.5394
15176TIP3    H166943   1.954   0.458  10.167  0.8135 -1.1039  1.0068
15176TIP3    H266944   1.919   0.320  10.218 -1.2180 -0.9521  0.1157
15177TIP3   OH266945   3.872   3.190  16.399 -0.3214  0.1945 -0.2573
15177TIP3    H166946   3.793   3.219  16.444  0.0746 -0.8176  1.1231
15177TIP3    H266947   3.855   3.099  16.375  0.5345 -0.1506  0.3768
15178TIP3   OH266948   5.607   3.898   5.860 -0.3884  0.2371 -0.5733
15178TIP3    H166949   5.702   3.888   5.862 -0.3241  0.9037  1.2376
15178TIP3    H266950   5.580   3.857   5.777  1.3663 -0.7969 -0.6677
15179TIP3   OH266951   0.565   4.779   6.426 -0.2268 -0.2514 -0.4806
15179TIP3    H166952   0.517   4.756   6.346 -0.3246 -0.6416 -0.3173
15179TIP3    H266953   0.517   4.853   6.462 -1.6526 -1.5952  0.4870
15180TIP3   OH266954   1.331   3.540   2.551  0.2451 -0.2647  0.7554
15180TIP3    H166955   1.397   3.609   2.553  1.0020 -0.9834  1.7192
15180TIP3    H266956   1.377   3.462   2.583 -1.0746 -0.7928  1.4390
15181TIP3   OH266957   3.779   0.668  12.893  0.0831  0.5745  0.1938
15181TIP3    H166958   3.694   0.697  12.927 -0.1859  0.2373 -0.1757
15181TIP3    H266959   3.841   0.733  12.925 -0.2199  0.4854  0.9854
15182TIP3   OH266960   1.988   1.886   3.600 -0.2332  0.0745 -0.3182
15182TIP3    H166961   1.908   1.845   3.568 -0.2222 -0.5568  0.4436
15182TIP3    H266962   2.009   1.953   3.534  0.6394 -2.1810 -2.4906
15183TIP3   OH266963   0.096   5.737  14.867  0.0850  0.4929 -0.0783
15183TIP3    H166964   0.030   5.681  14.825  0.4623  0.2108 -0.3108
15183TIP3    H266965   0.159   5.756  14.797 -0.9519  2.6965 -0.4855
15184TIP3   OH266966   5.021   3.182   5.012 -0.5815 -0.0908  0.4460
15184TIP3    H166967   5.054   3.267   4.984 -1.6786  0.5884  1.1113
15184TIP3    H266968   4.935   3.201   5.049 -0.5330 -1.3869  1.2964
15185TIP3   OH266969   3.967   5.898  12.074  0.6359 -0.1393  0.3823
15185TIP3    H166970   4.008   5.947  12.004  1.7043  0.0348  1.1037
15185TIP3    H266971   4.015   5.815  12.077 -0.3142 -0.7233  0.0124
15186TIP3   OH266972   2.504   2.466  16.090 -0.2064  1.0259 -0.0932
15186TIP3    H166973   2.527   2.399  16.155 -0.5551 -0.2081 -1.2051
15186TIP3    H266974   2.409   2.466  16.087 -0.2621  2.3591  0.6493
15187TIP3   OH266975   0.164   1.007  12.630  0.4405 -0.1208 -0.0375
15187TIP3    H166976   0.223   0.932  12.633  0.2252 -0.3296 -0.7948
15187TIP3    H266977   0.079   0.970  12.606  0.1867  0.2843  0.2279
15188TIP3   OH266978   3.950   4.983  15.434  0.0494  0.0263 -0.2435
15188TIP3    H166979   3.858   4.957  15.436 -0.8300  2.8241  1.1321
15188TIP3    H266980   3.989   4.939  15.509 -0.1301 -1.1173 -0.7918
15189TIP3   OH266981   0.283   5.611   0.829  0.2135 -0.3127  0.6692
15189TIP3    H166982   0.245   5.523   0.837  1.4795 -0.8081  1.4845
15189TIP3    H266983   0.207   5.669   0.817 -0.5997 -1.5777 -0.5293
15190TIP3   OH266984   5.316   0.844   0.713  0.2673  0.3763  0.0837
15190TIP3    H166985   5.340   0.803   0.796 -0.9495 -2.0156 -0.6644
15190TIP3    H266986   5.279   0.929   0.737  3.4352  1.4618  1.6635
15191TIP3   OH266987   2.182   3.518   3.980  0.6043  0.1054  0.3096
15191TIP3    H166988   2.093   3.553   3.971  1.0843  1.2058 -0.3469
15191TIP3    H266989   2.207   3.537   4.070 -0.7108 -2.4522  1.3204
15192TIP3   OH266990   2.251   4.795   0.540  0.1362  0.3849 -0.5587
15192TIP3    H166991   2.216   4.812   0.627  0.8056  1.4931 -0.4764
15192TIP3    H266992   2.176   4.807   0.481 -0.5063 -1.1705 -0.0912
15193TIP3   OH266993   5.607   0.178   2.137  0.0146 -0.2907  0.2774
15193TIP3    H166994   5.538   0.113   2.130  0.8032 -1.0314 -0.9637
15193TIP3    H266995   5.653   0.174   2.053  3.0876 -1.5817  1.8480
15194TIP3   OH266996   0.469   0.460  12.166  0.2140 -0.2929  0.2694
15194TIP3    H166997   0.464   0.449  12.261  1.9117 -0.2431  0.3937
15194TIP3    H266998   0.461   0.371  12.132 -2.0227 -0.1715  0.3175
15195TIP3   OH266999   6.706   2.721   5.743 -0.1368  0.1595 -0.4798
15195TIP3    H167000   6.783   2.678   5.781 -0.5737  0.1762  0.4733
15195TIP3    H267001   6.665   2.654   5.689 -0.2923 -0.3312  0.2392
15196TIP3   OH267002   1.597   2.628   0.462 -0.0748  0.1605 -0.3601
15196TIP3    H167003   1.558   2.561   0.518 -0.2068 -0.4049 -1.1169
15196TIP3    H267004   1.568   2.711   0.500  0.7309 -0.1785  1.0555
15197TIP3   OH267005   1.399   3.514   4.763  0.0734  0.0218  0.1946
15197TIP3    H167006   1.435   3.599   4.737 -0.2878 -0.4994 -2.3209
15197TIP3    H267007   1.448   3.490   4.841  3.2228  0.6591 -1.4057
15198TIP3   OH267008   6.599   3.154   0.779 -0.2324  0.9627 -0.0114
15198TIP3    H167009   6.630   3.199   0.857  0.3392  0.2091  0.2043
15198TIP3    H267010   6.504   3.162   0.783 -0.3055 -0.1853  1.4703
15199TIP3   OH267011   1.235   1.673  10.998  0.5524  0.1918 -0.6361
15199TIP3    H167012   1.316   1.644  11.038  0.7906 -0.9173 -1.8553
15199TIP3    H267013   1.190   1.592  10.972 -1.2087  0.7476  0.5027
15200TIP3   OH267014   0.003   5.733   0.882 -0.3505  0.2016 -0.5457
15200TIP3    H167015  -0.001   5.650   0.930  0.6931 -1.1304 -2.6250
15200TIP3    H267016   0.004   5.800   0.951 -1.2191 -1.4684  1.2040
15201TIP3   OH267017   4.129   4.334   2.464 -0.1948  0.2443 -0.2268
15201TIP3    H167018   4.136   4.312   2.372 -0.0618 -3.0106  0.4405
15201TIP3    H267019   4.220   4.349   2.492 -0.0503 -0.5069 -0.2768
15202TIP3   OH267020   1.918   1.162   4.554 -0.1118 -0.3236  0.2295
15202TIP3    H167021   1.905   1.067   4.555 -1.6832 -0.1199  1.5751
15202TIP3    H267022   1.949   1.180   4.465  0.0216 -2.0641 -0.1177
15203TIP3   OH267023   3.386   3.374   5.175 -0.5383  0.0147 -0.0600
15203TIP3    H167024   3.471   3.348   5.141 -0.6682 -1.0166  0.3690
15203TIP3    H267025   3.333   3.391   5.097  0.1786  1.1098 -0.3241
15204TIP3   OH267026   5.314   0.656   1.286 -0.0125  0.2772 -0.3260
15204TIP3    H167027   5.395   0.644   1.336  1.6691  2.2305 -2.4101
15204TIP3    H267028   5.316   0.747   1.258 -3.6594  0.8134  0.6456
15205TIP3   OH267029   3.248   6.404  16.936  0.4077 -0.5734 -0.3901
15205TIP3    H167030   3.208   6.383  17.020 -0.9539  0.8762 -0.6169
15205TIP3    H267031   3.324   6.345  16.929  0.6026 -0.6614  1.8651
15206TIP3   OH267032   0.185   4.605  15.147 -0.1085  0.9543  0.1092
15206TIP3    H167033   0.128   4.679  15.131 -0.7006  0.3254 -0.8139
15206TIP3    H267034   0.245   4.604  15.072 -0.0949  0.5128  0.1195
15207TIP3   OH267035   0.833   3.599  13.385 -0.0456 -0.2244 -0.4540
15207TIP3    H167036   0.744   3.574  13.360 -0.0695 -0.7087  0.1089
15207TIP3    H267037   0.838   3.582  13.479  0.3961  0.5427 -0.3301
15208TIP3   OH267038   0.763   0.620  15.029  0.5188 -0.2186  0.2883
15208TIP3    H167039   0.706   0.638  14.954  0.6890 -0.2843  0.1426
15208TIP3    H267040   0.770   0.703  15.074 -0.7432 -0.4862  1.0380
15209TIP3   OH267041   5.103   5.534  11.393 -0.1298 -0.1122  0.2124
15209TIP3    H167042   5.196   5.521  11.415 -0.5717 -1.5553  1.4886
15209TIP3    H267043   5.091   5.487  11.311  0.1599 -0.4540  0.3601
15210TIP3   OH267044   3.368   0.180   4.306 -0.4370 -0.4302  0.0566
15210TIP3    H167045   3.306   0.197   4.377 -1.1824 -0.4276 -0.5871
15210TIP3    H267046   3.318   0.194   4.226  0.8379  1.1771 -0.4951
15211TIP3   OH267047   2.343   6.397  12.291  0.3229  0.0470 -0.6473
15211TIP3    H167048   2.433   6.423  12.275  0.6854 -0.5367  0.3895
15211TIP3    H267049   2.345   6.350  12.374 -0.7216 -1.1465 -1.2637
15212TIP3   OH267050   3.534   2.048   0.662  0.7589  0.0825 -0.4575
15212TIP3    H167051   3.473   2.026   0.592  1.2377 -1.9405 -0.2809
15212TIP3    H267052   3.611   1.993   0.646  1.3257  0.3791  1.0376
15213TIP3   OH267053   2.681   0.641  15.550 -0.3962 -0.0214 -0.4360
15213TIP3    H167054   2.703   0.624  15.641 -1.6257  0.4184 -0.0375
15213TIP3    H267055   2.665   0.735  15.546 -0.2593 -0.0200 -1.1259
15214TIP3   OH267056   1.298   0.905   0.435  0.5414 -0.1036 -0.0457
15214TIP3    H167057   1.305   0.974   0.370 -1.6810  1.0847  0.8584
15214TIP3    H267058   1.268   0.828   0.385 -1.1416  0.7880 -0.4984
15215TIP3   OH267059   2.377   4.796   4.183 -0.1352  0.1379  0.3969
15215TIP3    H167060   2.300   4.839   4.146  0.3123 -0.0889 -0.8503
15215TIP3    H267061   2.355   4.781   4.275 -1.5986  0.0365  0.0510
15216TIP3   OH267062   0.454   5.569  13.309  0.2920 -0.6134 -0.1312
15216TIP3    H167063   0.548   5.549  13.305  0.5195  0.4603 -0.6612
15216TIP3    H267064   0.437   5.587  13.402  0.6056 -0.8270 -0.0302
15217TIP3   OH267065   5.780   1.081  16.261 -0.6751 -0.1267 -0.5429
15217TIP3    H167066   5.816   1.133  16.190 -0.4616  0.4507 -0.0254
15217TIP3    H267067   5.791   1.136  16.339 -1.4631 -0.4881 -0.1623
15218TIP3   OH267068   5.661   5.083  12.498  0.4093  0.3350 -0.2947
15218TIP3    H167069   5.642   5.079  12.404  0.7178 -1.4295 -0.3001
15218TIP3    H267070   5.756   5.081  12.503  0.3796 -0.9343  0.0836
15219TIP3   OH267071   6.646   0.022  13.141 -0.0424  0.2945  0.3625
15219TIP3    H167072   6.573   0.011  13.080 -0.4557 -0.1667  0.9251
15219TIP3    H267073   6.608   0.068  13.216  0.3319  0.3915  0.4939
15220TIP3   OH267074   5.189   3.357  12.056  0.1197  0.4881  0.4491
15220TIP3    H167075   5.119   3.291  12.060  0.3700  0.2418  0.8645
15220TIP3    H267076   5.215   3.370  12.148  1.5748 -0.4686  0.2175
15221TIP3   OH267077   6.128   0.207  15.573 -0.9518 -0.1562 -0.0317
15221TIP3    H167078   6.033   0.206  15.580 -1.1564  1.2894 -1.6711
15221TIP3    H267079   6.148   0.140  15.507 -0.7250 -1.0728  0.9418
15222TIP3   OH267080   6.659   1.004  12.673  0.3728  0.5536  0.0475
15222TIP3    H167081   6.639   0.970  12.760 -0.6144  0.4830 -0.1953
15222TIP3    H267082   6.713   1.082  12.690  2.2800 -0.8093  0.6241
15223TIP3   OH267083   5.332   5.524  15.460  0.0425 -0.9484 -0.2232
15223TIP3    H167084   5.269   5.528  15.531  0.8146  2.4277  0.4010
15223TIP3    H267085   5.295   5.580  15.392  1.2525 -0.8596 -0.8265
15224TIP3   OH267086   0.358   5.271  15.673  0.6690 -0.6268  0.4443
15224TIP3    H167087   0.272   5.285  15.634  0.3576  0.6404  1.5158
15224TIP3    H267088   0.409   5.348  15.648  1.9384 -1.9390 -1.2296
15225TIP3   OH267089   5.214   4.754  13.588  0.1924  0.2177 -0.2953
15225TIP3    H167090   5.225   4.739  13.494  1.4574  1.8461 -0.4539
15225TIP3    H267091   5.286   4.812  13.612 -1.5186  1.8547  1.1802
15226TIP3   OH267092   5.916   0.240   4.019  0.8815 -0.9194  0.2095
15226TIP3    H167093   5.887   0.213   3.931 -0.8605 -1.3673  0.8716
15226TIP3    H267094   5.844   0.213   4.077 -0.8196  4.4393  1.1310
15227TIP3   OH267095   0.939   4.309  14.302 -0.3385 -0.3632  0.3407
15227TIP3    H167096   1.015   4.361  14.326 -0.5330  0.5110 -0.8375
15227TIP3    H267097   0.948   4.295  14.208 -0.0179 -2.9708  0.6848
15228TIP3   OH267098   5.966   3.603   5.837  0.3261 -0.2434  0.0345
15228TIP3    H167099   6.012   3.568   5.914 -1.6913 -0.7856  1.0718
15228TIP3    H267100   5.953   3.696   5.856  2.3056  0.2993 -0.9907
15229TIP3   OH267101   6.445   1.952   6.514 -0.2349 -0.3490 -0.3278
15229TIP3    H167102   6.499   1.881   6.552  0.0918 -0.3589 -0.7995
15229TIP3    H267103   6.436   1.928   6.422 -0.6789 -0.1131 -0.3463
15230TIP3   OH267104   2.013   3.131   6.425 -0.0533  0.3218 -0.2212
15230TIP3    H167105   2.085   3.069   6.430 -0.4612 -0.1758 -0.4439
15230TIP3    H267106   1.942   3.090   6.474 -1.0465 -0.3983 -2.1544
15231TIP3   OH267107   1.137   0.801  12.691  0.0674  0.0268 -0.4296
15231TIP3    H167108   1.063   0.840  12.738 -1.8203 -3.8596  0.2459
15231TIP3    H267109   1.134   0.708  12.715  3.4956 -0.8210 -2.6373
15232TIP3   OH267110   2.037   2.156   0.937  0.2465 -0.6352  0.5604
15232TIP3    H167111   2.049   2.130   0.845 -1.4671 -0.9627  0.4127
15232TIP3    H267112   1.993   2.241   0.932 -0.4036 -0.9384  1.0855
15233TIP3   OH267113   3.039   0.556   5.166  0.5809 -0.5102 -0.4278
15233TIP3    H167114   2.969   0.506   5.124  0.9072 -1.2743 -0.0904
15233TIP3    H267115   3.107   0.562   5.098 -1.0542  3.1611 -1.9807
15234TIP3   OH267116   4.056   2.441  11.937  0.2705 -0.1962  0.2201
15234TIP3    H167117   4.074   2.532  11.914 -0.9343 -0.1106 -0.4570
15234TIP3    H267118   4.078   2.392  11.858  0.3746 -0.4290  0.3930
15235TIP3   OH267119   3.638   5.677   6.182 -0.1074 -0.4805 -0.5483
15235TIP3    H167120   3.550   5.712   6.192 -0.3926 -1.3905  0.3088
15235TIP3    H267121   3.694   5.739   6.229 -0.1807  0.4695 -1.6802
15236TIP3   OH267122   5.163   1.582  10.595  0.2230  0.1085 -0.1925
15236TIP3    H167123   5.250   1.560  10.560 -0.0154 -0.5277 -0.4036
15236TIP3    H267124   5.135   1.658  10.544 -0.5285 -1.3794 -2.1189
15237TIP3   OH267125   6.737   1.963  14.627  0.1859 -0.1132 -0.1919
15237TIP3    H167126   6.774   2.030  14.569 -2.5422 -0.0700 -2.0304
15237TIP3    H267127   6.733   1.884  14.573 -0.3342 -0.7037  0.6781
15238TIP3   OH267128   5.012   2.345   2.763 -0.1803 -0.5407 -0.0723
15238TIP3    H167129   4.960   2.270   2.734  0.2968 -1.4503  1.3450
15238TIP3    H267130   5.044   2.320   2.850 -1.6593  2.0793  1.3629
15239TIP3   OH267131   5.523   2.516  16.987  0.6118 -0.0890  0.0781
15239TIP3    H167132   5.459   2.445  16.990  0.6271 -0.1183 -0.3381
15239TIP3    H267133   5.605   2.474  16.961  0.2274  0.3523 -2.0253
15240TIP3   OH267134   2.550   2.519  12.522  0.2625 -0.0423  0.8556
15240TIP3    H167135   2.548   2.473  12.606  1.7034  1.7596  1.9258
15240TIP3    H267136   2.522   2.452  12.458 -0.5968 -1.5344  2.6832
15241TIP3   OH267137   3.908   1.989  11.305 -0.0869 -0.0215  0.2311
15241TIP3    H167138   3.869   2.072  11.332 -1.7478 -0.6789 -0.0264
15241TIP3    H267139   3.958   1.961  11.382 -0.8019  0.4665  0.8916
15242TIP3   OH267140   3.283   4.267   5.431 -0.0126  0.1540  0.1616
15242TIP3    H167141   3.314   4.242   5.345 -3.0658 -0.1059 -0.9878
15242TIP3    H267142   3.255   4.185   5.472 -2.5278  0.6273 -0.4036
15243TIP3   OH267143   3.327   5.397  11.693 -0.0313 -0.3105 -0.4741
15243TIP3    H167144   3.386   5.357  11.628 -0.1306  0.6356 -1.1797
15243TIP3    H267145   3.240   5.369  11.667 -0.0559 -0.0693 -0.6603
15244TIP3   OH267146   5.729   4.013   4.817 -0.2875 -0.3524  0.1189
15244TIP3    H167147   5.773   3.936   4.781 -0.4342  0.1432 -1.1664
15244TIP3    H267148   5.636   3.991   4.815 -0.2655 -0.4918  0.6093
15245TIP3   OH267149   4.680   4.167   4.867  0.2641  0.3481  0.4648
15245TIP3    H167150   4.680   4.256   4.900  1.3501  0.7563 -0.5534
15245TIP3    H267151   4.604   4.125   4.909  1.6948  0.6965  3.7015
15246TIP3   OH267152   3.888   4.386   1.913  0.3456 -0.9186  0.6227
15246TIP3    H167153   3.902   4.292   1.912  3.3232 -0.5944 -1.0542
15246TIP3    H267154   3.946   4.419   1.982  2.0499 -0.1333 -1.0702
15247TIP3   OH267155   3.735   6.694  15.913 -0.0701 -0.1814 -0.0258
15247TIP3    H167156   3.641   6.676  15.908 -0.5281  2.2917 -2.6290
15247TIP3    H267157   3.776   6.609  15.895 -1.7697 -1.2366  0.8034
15248TIP3   OH267158   5.771   4.894   1.162  0.1695 -0.2265 -0.1374
15248TIP3    H167159   5.808   4.851   1.085  0.4996 -0.3899  0.1100
15248TIP3    H267160   5.766   4.825   1.229 -1.2375 -0.3831 -0.3736
15249TIP3   OH267161   4.565   3.853  14.760 -0.5701  0.4886 -0.3306
15249TIP3    H167162   4.626   3.911  14.806  1.3705 -1.9842  0.4373
15249TIP3    H267163   4.505   3.913  14.715  1.6682  3.0782 -0.1496
15250TIP3   OH267164   6.498   1.950   5.129  0.1274 -0.0482 -0.1200
15250TIP3    H167165   6.582   1.979   5.094  1.3049 -0.5531  2.0946
15250TIP3    H267166   6.468   2.023   5.183  0.0126 -0.5271  0.4718
15251TIP3   OH267167   3.303   4.937  15.589 -0.2914 -0.4306 -0.1907
15251TIP3    H167168   3.292   4.848  15.622 -2.0258 -0.2533 -0.1984
15251TIP3    H267169   3.314   4.990  15.667 -0.5399 -0.4949 -0.1115
15252TIP3   OH267170   0.112   3.322   6.181 -0.0856 -0.1578  0.3828
15252TIP3    H167171   0.047   3.351   6.116 -1.0043  0.3442  1.5027
15252TIP3    H267172   0.117   3.227   6.168 -0.1104 -0.0434 -0.5485
15253TIP3   OH267173   6.434   4.356  13.048 -0.0026 -0.3519  0.0492
15253TIP3    H167174   6.475   4.442  13.033 -0.6530  0.1512  0.9881
15253TIP3    H267175   6.342   4.377  13.068 -0.9458 -1.4791 -2.6099
15254TIP3   OH267176   1.536   1.012   1.849 -0.3079  0.4583 -0.5773
15254TIP3    H167177   1.486   0.959   1.787 -0.6433 -0.2866  0.2950
15254TIP3    H267178   1.584   1.075   1.795  0.8615 -1.3489 -1.7134
15255TIP3   OH267179   1.569   4.903   2.174 -0.4539  0.1922 -0.1041
15255TIP3    H167180   1.585   4.987   2.132 -0.1722 -0.3863 -1.1963
15255TIP3    H267181   1.502   4.922   2.241 -0.1775  1.3225 -0.1272
15256TIP3   OH267182   6.625   0.129  13.409 -0.6427 -0.1666  0.4479
15256TIP3    H167183   6.630   0.094  13.498 -1.0838 -0.3303  0.4135
15256TIP3    H267184   6.637   0.223  13.420 -2.6438  0.0785  0.9280
15257TIP3   OH267185   6.691   1.824  10.599  0.3975 -0.3348 -0.6652
15257TIP3    H167186   6.682   1.884  10.525 -0.6710  0.2090 -0.1248
15257TIP3    H267187   6.608   1.832  10.646  1.3043 -0.1277  0.9761
15258TIP3   OH267188   0.240   4.376  11.940 -0.0753 -0.3745 -0.3188
15258TIP3    H167189   0.199   4.342  12.020 -0.6488 -2.2299 -1.3478
15258TIP3    H267190   0.177   4.440  11.906  0.2889  0.6231  0.8140
15259TIP3   OH267191   5.241   4.980  16.189 -0.0160 -0.0713 -0.3513
15259TIP3    H167192   5.268   4.894  16.221  1.0791  0.4349  0.1296
15259TIP3    H267193   5.277   4.985  16.100 -0.4900 -0.2993 -0.5567
15260TIP3   OH267194   6.552   3.622  16.296 -0.2781  0.1834 -0.4041
15260TIP3    H167195   6.531   3.581  16.212  0.1106  2.8026 -1.8810
15260TIP3    H267196   6.491   3.696  16.303  2.0803  2.2665 -0.2738
15261TIP3   OH267197   2.783   3.069  14.358 -0.1588  0.2712  0.2847
15261TIP3    H167198   2.862   3.023  14.384 -1.9411 -1.6822  2.6917
15261TIP3    H267199   2.738   3.009  14.299 -1.2476  0.0052  1.3451
15262TIP3   OH267200   3.754   6.640  15.234 -0.5766 -0.5166 -0.3541
15262TIP3    H167201   3.796   6.692  15.302 -0.1266 -0.6493 -0.5274
15262TIP3    H267202   3.720   6.705  15.172  1.3761 -0.4351 -1.4026
15263TIP3   OH267203   2.944   1.435  12.937 -0.2097  0.0565 -0.2082
15263TIP3    H167204   2.997   1.360  12.965 -1.5157 -0.6394  0.4896
15263TIP3    H267205   2.957   1.500  13.006 -2.1274 -1.0377  1.2671
15264TIP3   OH267206   3.530   4.711   2.196 -0.3644  0.4363 -0.3114
15264TIP3    H167207   3.545   4.780   2.261 -0.2806  1.2428 -1.1630
15264TIP3    H267208   3.519   4.758   2.114  3.2434 -0.7102 -1.5980
15265TIP3   OH267209   4.395   2.455  16.461 -0.7747 -0.1926 -0.1062
15265TIP3    H167210   4.360   2.543  16.446 -1.4772 -0.3636  0.4802
15265TIP3    H267211   4.462   2.467  16.528 -2.4395 -0.3881  1.6848
15266TIP3   OH267212   2.137   2.707  11.582 -0.2348  0.4528  0.0546
15266TIP3    H167213   2.222   2.750  11.581 -0.1667  0.3781  1.2315
15266TIP3    H267214   2.113   2.702  11.675 -1.0165 -0.5171 -0.1756
15267TIP3   OH267215   2.709   5.496  11.300 -0.3211  0.5924 -0.4465
15267TIP3    H167216   2.647   5.474  11.231 -0.2589  1.3446 -0.7455
15267TIP3    H267217   2.779   5.543  11.256 -0.2037  0.9412  0.1042
15268TIP3   OH267218   1.636   5.325   3.471 -0.0830  0.7246  0.7000
15268TIP3    H167219   1.588   5.362   3.397 -1.2277  0.9190  1.5196
15268TIP3    H267220   1.651   5.399   3.529  0.5404  0.5142  0.8122
15269TIP3   OH267221   2.414   3.302  16.705  0.1122  0.6484 -0.0532
15269TIP3    H167222   2.472   3.350  16.764  1.3841 -0.0833 -0.6735
15269TIP3    H267223   2.366   3.242  16.762  0.7751  0.4895  0.3551
15270TIP3   OH267224   2.173   4.128   0.270 -0.0481 -0.2034  0.3828
15270TIP3    H167225   2.082   4.155   0.258 -0.0807 -0.1498  0.7546
15270TIP3    H267226   2.190   4.068   0.197  0.6288  2.3160 -1.6695
15271TIP3   OH267227   6.200   6.699   2.031  0.2854  0.6361 -0.1897
15271TIP3    H167228   6.177   6.666   1.944 -3.6297 -1.7384  1.4791
15271TIP3    H267229   6.258   6.631   2.067  0.9123  1.0055 -0.4923
15272TIP3   OH267230   6.360   4.230   2.960  0.1854 -0.0952  0.4810
15272TIP3    H167231   6.345   4.163   3.027  1.4654  0.9157  1.8086
15272TIP3    H267232   6.352   4.182   2.877 -1.1562 -1.4206  1.3252
15273TIP3   OH267233   6.092   2.024   4.336  0.2815  0.4970  0.0286
15273TIP3    H167234   6.127   2.109   4.362 -0.7367  1.3961 -1.3802
15273TIP3    H267235   6.165   1.978   4.296  0.3097  1.6737 -1.3482
15274TIP3   OH267236   6.680   6.346   4.572  0.0114  0.1058  0.4449
15274TIP3    H167237   6.773   6.328   4.562 -0.4003 -0.9974 -1.9722
15274TIP3    H267238   6.658   6.309   4.658  1.8584  0.9554  1.3571
15275TIP3   OH267239   2.264   4.734  16.752  0.0731 -0.3034 -0.4382
15275TIP3    H167240   2.175   4.701  16.735 -0.1109  0.0092 -0.0840
15275TIP3    H267241   2.319   4.686  16.689 -0.2263 -1.1005 -0.1144
15276TIP3   OH267242   0.044   0.998   4.305  0.1980 -0.2735 -0.4031
15276TIP3    H167243  -0.012   0.983   4.382 -0.0350 -0.2159 -0.5606
15276TIP3    H267244   0.102   1.070   4.331  1.8468 -1.8792  0.6364
15277TIP3   OH267245   4.760   2.499   5.075  0.3396  0.7257  0.0499
15277TIP3    H167246   4.763   2.573   5.135  0.8833  0.3218  0.5374
15277TIP3    H267247   4.667   2.482   5.061  0.1471 -0.2364  2.1482
15278TIP3   OH267248   3.311   5.361   0.823 -0.0983  0.4512 -0.6277
15278TIP3    H167249   3.399   5.345   0.789  0.1219 -1.1648  0.5645
15278TIP3    H267250   3.326   5.391   0.913 -0.7613  0.5155 -0.5354
15279TIP3   OH267251   4.378   0.021  16.745  0.0378  0.4924 -0.0138
15279TIP3    H167252   4.396  -0.072  16.761  2.2071  0.9854  0.7173
15279TIP3    H267253   4.457   0.066  16.776 -0.6321  2.5232 -1.1293
15280TIP3   OH267254   5.363   1.330  13.709 -0.1075  0.1306 -0.0711
15280TIP3    H167255   5.421   1.383  13.764  0.8413 -1.2653  0.3496
15280TIP3    H267256   5.415   1.251  13.690 -2.2941 -1.7556  1.3609
15281TIP3   OH267257   2.998   2.075  13.955  0.5046  0.2895  0.1209
15281TIP3    H167258   2.935   2.050  14.022  0.2408 -2.1874 -0.9521
15281TIP3    H267259   2.988   2.170  13.947 -2.7895  0.0713  0.2983
15282TIP3   OH267260   1.985   4.664   6.237 -0.0113  0.6148 -0.6211
15282TIP3    H167261   1.893   4.651   6.263  0.0151  2.1542  0.4732
15282TIP3    H267262   2.033   4.595   6.282 -0.3266  1.5917  1.3689
15283TIP3   OH267263   1.220   5.994  11.293  0.0248 -0.4633  1.0971
15283TIP3    H167264   1.261   6.079  11.303 -0.2171 -0.1619 -0.1988
15283TIP3    H267265   1.151   6.008  11.228  1.1540 -1.9981 -0.5535
15284TIP3   OH267266   3.112   0.506   2.210  0.3225 -0.0995 -0.2241
15284TIP3    H167267   3.060   0.557   2.148  2.0892  1.8318 -0.2240
15284TIP3    H267268   3.067   0.517   2.294 -0.5322 -0.4021 -0.6312
15285TIP3   OH267269   6.344   0.312  16.708  0.5174  0.2461  0.9436
15285TIP3    H167270   6.277   0.368  16.669  1.1043 -1.0463 -2.1804
15285TIP3    H267271   6.307   0.224  16.704  2.0504 -0.3853 -0.1076
15286TIP3   OH267272   1.077   6.183   6.494 -0.0447 -0.3135 -0.4735
15286TIP3    H167273   1.122   6.263   6.466  2.7001 -1.9820 -1.2081
15286TIP3    H267274   1.144   6.132   6.539 -1.7194 -2.1811  0.0484
15287TIP3   OH267275   2.550   0.104  16.773  0.3141 -0.3075 -0.0237
15287TIP3    H167276   2.517   0.164  16.840 -0.1642  0.1911 -0.6976
15287TIP3    H267277   2.488   0.031  16.772 -0.4812  0.3514 -0.8816
15288TIP3   OH267278   6.277   6.598   5.176 -0.1834  0.5372 -0.0803
15288TIP3    H167279   6.241   6.593   5.087  0.4058 -0.3683 -0.2754
15288TIP3    H267280   6.232   6.529   5.224 -1.4401  1.8313  0.6982
15289TIP3   OH267281   3.443   6.113  13.484  0.4342  0.0004  0.7947
15289TIP3    H167282   3.377   6.121  13.415  0.9501  0.1260  0.3143
15289TIP3    H267283   3.436   6.196  13.532 -2.6511 -1.5370  3.3924
15290TIP3   OH267284   5.454   3.603   3.003 -0.1454  0.4468  0.1326
15290TIP3    H167285   5.546   3.613   2.978  0.2825 -0.5237  1.2453
15290TIP3    H267286   5.453   3.623   3.096 -0.9025 -0.4481  0.3257
15291TIP3   OH267287   2.502   3.395  12.181  0.1466  0.1115 -0.9245
15291TIP3    H167288   2.541   3.439  12.256  1.3444 -1.2221 -0.7166
15291TIP3    H267289   2.536   3.442  12.104 -1.4207  1.7515 -0.6836
15292TIP3   OH267290   1.514   6.304   4.831  0.4936  0.1078 -0.0545
15292TIP3    H167291   1.477   6.387   4.863 -0.0549 -0.7801  1.7708
15292TIP3    H267292   1.609   6.316   4.836  0.4786  1.3002 -1.7558
15293TIP3   OH267293   4.313   4.489  13.810  0.1103  0.1862  0.5466
15293TIP3    H167294   4.387   4.456  13.758 -0.5410 -1.0086  0.3348
15293TIP3    H267295   4.337   4.469  13.900  0.0471 -0.2276  0.4760
15294TIP3   OH267296   4.086   5.523  15.860 -0.1343 -0.3813 -0.1262
15294TIP3    H167297   4.124   5.599  15.905 -0.9965  1.7609 -2.7800
15294TIP3    H267298   4.118   5.448  15.910  0.8870  1.6741  2.5592
15295TIP3   OH267299   4.890   1.943  13.421 -0.4888  0.2465  0.2787
15295TIP3    H167300   4.866   1.935  13.513  2.4312  0.0332  1.1081
15295TIP3    H267301   4.911   2.035  13.409  2.3673 -0.2593  0.7974
15296TIP3   OH267302   4.769   5.303   3.749 -0.0781  0.3644  0.4388
15296TIP3    H167303   4.809   5.219   3.771  0.5814  1.0629  2.0216
15296TIP3    H267304   4.682   5.300   3.789 -0.9246 -0.3724 -1.3349
15297TIP3   OH267305   6.015   0.070  15.961  0.1761 -0.2999 -0.0772
15297TIP3    H167306   5.939   0.104  16.007 -0.3961  0.9109 -1.8073
15297TIP3    H267307   6.006  -0.025  15.965 -1.3785 -0.1730 -0.1462
15298TIP3   OH267308   3.021   6.209   1.162  0.0239  0.1123 -0.8743
15298TIP3    H167309   3.038   6.200   1.256  1.0006  0.2925 -1.0258
15298TIP3    H267310   2.929   6.186   1.153 -0.5405  1.6703  0.3492
15299TIP3   OH267311   1.958   2.264   1.994  0.0258  0.4908 -0.4251
15299TIP3    H167312   1.988   2.298   2.078 -0.7382  1.4979 -0.5435
15299TIP3    H267313   1.982   2.171   1.996 -0.9714  0.2336  1.3712
15300TIP3   OH267314   1.893   0.699   5.715 -0.5611  0.1347  0.1011
15300TIP3    H167315   1.905   0.742   5.630 -2.0818 -1.8540 -1.2289
15300TIP3    H267316   1.981   0.672   5.741  0.2547  2.8177  0.3855
15301TIP3   OH267317   1.437   0.510  13.343  0.7229  0.3491 -0.0231
15301TIP3    H167318   1.430   0.475  13.254 -1.8105  0.1083  0.2160
15301TIP3    H267319   1.380   0.586  13.344 -1.9447 -1.4894  2.1749
15302TIP3   OH267320   3.778   3.939  15.577  0.4797  0.2026 -0.7141
15302TIP3    H167321   3.846   3.966  15.640  0.6744 -2.6471  0.4560
15302TIP3    H267322   3.827   3.905  15.502  0.3175 -0.3160 -0.5844
15303TIP3   OH267323   3.882   2.566  12.302  0.0054  0.1975 -0.3544
15303TIP3    H167324   3.789   2.548  12.283 -0.0468  0.5615 -0.4472
15303TIP3    H267325   3.888   2.563  12.397 -0.0631 -0.0216 -0.3562
15304TIP3   OH267326   0.633   2.956   1.311  0.1613  0.1381 -0.4217
15304TIP3    H167327   0.668   2.973   1.398 -1.1049  0.4344  0.0474
15304TIP3    H267328   0.676   2.875   1.283 -1.2306 -1.3537  1.5278
15305TIP3   OH267329   3.981   3.519   4.909 -0.0591  0.0684 -0.2234
15305TIP3    H167330   4.057   3.484   4.956  0.0625 -1.1696 -1.2815
15305TIP3    H267331   3.983   3.476   4.824 -0.6412  1.7553 -1.1524
15306TIP3   OH267332   1.036   4.455   3.245 -0.2624 -0.3495 -0.3004
15306TIP3    H167333   0.989   4.385   3.199  0.1695  0.3483 -1.8630
15306TIP3    H267334   0.981   4.532   3.234  0.5994  0.1789 -1.0383
15307TIP3   OH267335   0.267   2.480   3.884 -0.6813 -0.5735 -0.1885
15307TIP3    H167336   0.360   2.486   3.906 -1.0985  1.5402  1.2846
15307TIP3    H267337   0.231   2.420   3.950 -0.5875 -0.3584  0.0600
15308TIP3   OH267338   5.569   2.777   4.305 -0.2670 -0.5950 -0.1944
15308TIP3    H167339   5.488   2.793   4.352 -0.3274  0.5421 -0.6587
15308TIP3    H267340   5.638   2.812   4.361 -0.3819  1.2204 -1.1224
15309TIP3   OH267341   0.501   0.891  11.974 -0.3379 -0.3605  0.1765
15309TIP3    H167342   0.531   0.958  12.035 -0.4418 -0.1368 -0.0178
15309TIP3    H267343   0.407   0.883  11.992 -0.0122 -1.8081  1.5230
15310TIP3   OH267344   5.489   1.255  16.995 -0.4641  0.2050 -0.0255
15310TIP3    H167345   5.411   1.250  16.940  1.1300 -0.1225 -2.4325
15310TIP3    H267346   5.517   1.164  17.006  0.0157  0.3665  0.1436
15311TIP3   OH267347   0.714   5.273  12.079 -0.6526  0.2042 -0.2793
15311TIP3    H167348   0.652   5.345  12.094 -0.7831  0.2061 -0.8145
15311TIP3    H267349   0.772   5.306  12.010 -1.4701 -0.6543 -1.4275
15312TIP3   OH267350   2.718   6.017   1.931  0.0109  0.2920 -0.4087
15312TIP3    H167351   2.686   6.091   1.880  0.0252  0.6883  0.1466
15312TIP3    H267352   2.642   5.958   1.938  0.7552 -1.1907 -3.3268
15313TIP3   OH267353   3.746   6.351  13.586  0.2951 -0.3084 -0.5024
15313TIP3    H167354   3.753   6.264  13.623  1.8650  0.2665  0.6374
15313TIP3    H267355   3.742   6.409  13.662 -1.7653  0.5987 -1.2095
15314TIP3   OH267356   1.821   5.028  16.160  0.0064 -0.3661 -0.2964
15314TIP3    H167357   1.816   4.944  16.206 -1.8313  0.3194  0.8435
15314TIP3    H267358   1.820   5.094  16.229 -0.9299  0.6446 -1.2423
15315TIP3   OH267359   1.197   4.123  11.994  0.2016  0.2751  0.4789
15315TIP3    H167360   1.233   4.059  12.056  1.8642 -0.0806 -0.7774
15315TIP3    H267361   1.274   4.160  11.951 -0.8762  1.0477 -0.8584
15316TIP3   OH267362   1.456   2.193  12.903 -0.1598  0.2447 -0.2846
15316TIP3    H167363   1.446   2.119  12.963 -1.2568 -0.6817 -1.5405
15316TIP3    H267364   1.378   2.247  12.919 -1.0473 -0.6004 -1.6316
15317TIP3   OH267365   6.803   2.347   3.736 -0.0908  0.3589  0.1735
15317TIP3    H167366   6.801   2.309   3.824  0.0008  1.1882  0.5524
15317TIP3    H267367   6.716   2.330   3.701  0.8757 -2.9838 -0.9514
15318TIP3   OH267368   5.351   5.071   0.653 -0.1467 -0.3461 -0.1788
15318TIP3    H167369   5.386   5.043   0.568 -0.6176 -0.8581 -0.2042
15318TIP3    H267370   5.262   5.100   0.634  0.0838  0.4984 -0.0277
15319TIP3   OH267371   6.774   3.605   2.328 -0.0409 -0.1818 -0.3522
15319TIP3    H167372   6.681   3.620   2.310  0.0508  4.0135  1.5296
15319TIP3    H267373   6.775   3.552   2.407 -0.8581  0.4461  0.0931
15320TIP3   OH267374   2.480   0.611   3.088  0.2976  0.3707 -0.2700
15320TIP3    H167375   2.482   0.705   3.068  0.5178  0.2783 -0.7211
15320TIP3    H267376   2.431   0.604   3.169  1.6411  1.0334  0.6406
15321TIP3   OH267377   3.584   5.824   2.154 -0.0306  0.3766 -0.5541
15321TIP3    H167378   3.588   5.857   2.064  0.1662  1.2000 -0.2542
15321TIP3    H267379   3.499   5.853   2.186 -0.3747 -0.4807 -0.6815
15322TIP3   OH267380   0.255   3.296   4.388 -0.0983  0.3826  0.4503
15322TIP3    H167381   0.210   3.376   4.361 -0.8838  0.4258  1.8073
15322TIP3    H267382   0.324   3.284   4.322 -1.3151  0.9890 -0.9817
15323TIP3   OH267383   3.282   6.077  12.824  0.5245  0.3645  0.4152
15323TIP3    H167384   3.308   6.163  12.791  0.3330  0.8340  1.4570
15323TIP3    H267385   3.208   6.051  12.769  0.4634  0.9491  0.2236
15324TIP3   OH267386   0.500   3.259   1.640  0.1297  0.1232  0.5327
15324TIP3    H167387   0.499   3.316   1.562 -0.1395 -0.5967 -0.0001
15324TIP3    H267388   0.591   3.263   1.671  0.2335  0.4380  0.2006
15325TIP3   OH267389   5.877   4.394   2.174  0.3410  0.0811  0.3917
15325TIP3    H167390   5.794   4.439   2.158  0.6019  0.6972  0.7244
15325TIP3    H267391   5.861   4.304   2.147  0.5981  0.9077 -2.8349
15326TIP3   OH267392   3.324   3.515   0.599 -0.6406 -0.3479 -0.0550
15326TIP3    H167393   3.413   3.538   0.624  0.9797 -3.5428 -2.2213
15326TIP3    H267394   3.306   3.569   0.522  0.6600 -1.7174 -1.3756
15327TIP3   OH267395   6.622   6.203  12.619 -0.1525 -0.6364  0.3792
15327TIP3    H167396   6.716   6.189  12.603 -0.0434  0.9518 -0.5108
15327TIP3    H267397   6.617   6.293  12.653 -1.3202 -0.8446  0.7893
15328TIP3   OH267398   5.039   4.610   2.930 -0.7208 -0.1959 -0.3256
15328TIP3    H167399   5.119   4.659   2.948 -1.4068  1.9178 -2.5159
15328TIP3    H267400   4.980   4.633   3.002 -0.9459  2.1336 -1.1779
15329TIP3   OH267401   0.205   3.229  14.651 -0.1086 -0.3704  0.5256
15329TIP3    H167402   0.262   3.224  14.574  2.0641  0.6219  1.9463
15329TIP3    H267403   0.147   3.154  14.644  2.6286 -2.5806 -0.1306
15330TIP3   OH267404   2.562   2.221  11.673  0.1036 -0.1979  0.9508
15330TIP3    H167405   2.642   2.175  11.647  0.7966  1.5427 -0.1953
15330TIP3    H267406   2.593   2.299  11.718 -1.0411 -0.7767  2.8294
15331TIP3   OH267407   2.479   4.381   5.938 -0.3768  0.1249  0.3716
15331TIP3    H167408   2.473   4.299   5.986  0.8712  0.3493  0.9345
15331TIP3    H267409   2.567   4.413   5.955  0.2953  0.0250 -2.3831
15332TIP3   OH267410   6.609   0.247   4.385  0.6774 -0.1995  0.1712
15332TIP3    H167411   6.623   0.213   4.474 -1.0866 -0.3438  0.4173
15332TIP3    H267412   6.542   0.315   4.395  1.3772  0.7000 -0.8906
15333TIP3   OH267413   2.746   3.291   0.982 -0.0277  0.0605  0.2297
15333TIP3    H167414   2.722   3.198   0.994  0.2092  0.0514  0.6786
15333TIP3    H267415   2.707   3.335   1.058  2.1798 -0.1022  1.5629
15334TIP3   OH267416   4.663   2.574   2.360 -0.3553 -0.1905 -0.3785
15334TIP3    H167417   4.697   2.662   2.343 -1.0057  0.1495  0.0411
15334TIP3    H267418   4.627   2.579   2.448 -1.6974 -0.4699 -0.8861
15335TIP3   OH267419   4.441   5.640  13.433 -0.0394  0.9617 -0.3047
15335TIP3    H167420   4.458   5.549  13.457 -0.8880  0.7977 -0.3096
15335TIP3    H267421   4.472   5.647  13.342 -0.8359  0.4223 -0.6294
15336TIP3   OH267422   3.755   5.726  11.662 -0.1595 -0.2357  0.3823
15336TIP3    H167423   3.725   5.635  11.666 -0.4916 -0.1394  0.1094
15336TIP3    H267424   3.767   5.743  11.569 -0.3770  0.0894  0.4120
15337TIP3   OH267425   4.418   1.588   3.522 -0.1972  0.0820 -0.2413
15337TIP3    H167426   4.411   1.538   3.441  2.2609 -0.2682 -0.3220
15337TIP3    H267427   4.378   1.531   3.589 -0.9474 -0.2519 -0.9591
15338TIP3   OH267428   3.801   1.344  13.647  0.1180  0.5471  0.0761
15338TIP3    H167429   3.789   1.260  13.691  0.0105 -0.6266 -2.0630
15338TIP3    H267430   3.771   1.409  13.711 -3.0788 -1.2440  0.6317
15339TIP3   OH267431   0.351   2.415  14.888 -0.4894  0.0573  0.2458
15339TIP3    H167432   0.330   2.401  14.981 -1.4377 -1.5814 -0.1708
15339TIP3    H267433   0.281   2.472  14.857 -1.9591 -1.8476 -0.1178
15340TIP3   OH267434   2.380   5.642   2.131  0.6970  0.5096  0.4394
15340TIP3    H167435   2.288   5.654   2.153  0.9595  2.1931  0.7949
15340TIP3    H267436   2.404   5.723   2.085  1.1784 -1.2466 -2.7059
15341TIP3   OH267437   3.408   6.143   6.152 -0.3554  0.3688  0.2991
15341TIP3    H167438   3.348   6.214   6.175  0.5478  1.6448 -1.1337
15341TIP3    H267439   3.413   6.146   6.057  0.9476 -0.5924  0.3208
15342TIP3   OH267440   6.151   2.918   6.104  0.2503 -0.4037 -0.1651
15342TIP3    H167441   6.243   2.932   6.128  0.6489 -1.5314 -0.9858
15342TIP3    H267442   6.106   2.912   6.188  0.6534  1.7027  0.2641
15343TIP3   OH267443   1.985   3.997  11.943 -0.4018 -0.1965  0.6443
15343TIP3    H167444   2.076   3.980  11.919  0.0253  0.0598  2.0154
15343TIP3    H267445   1.939   4.004  11.859  1.1772  1.5203 -0.1462
15344TIP3   OH267446   2.175   2.070   3.169  0.1444 -0.8118 -0.0303
15344TIP3    H167447   2.248   2.033   3.218  0.3834 -1.4320 -0.8375
15344TIP3    H267448   2.123   1.995   3.141 -1.0296 -0.3563  0.8602
15345TIP3   OH267449   2.604   3.686   6.654 -0.0934 -0.2555  0.3962
15345TIP3    H167450   2.697   3.666   6.652 -0.1330 -0.4480 -1.3006
15345TIP3    H267451   2.563   3.606   6.687  0.2557 -0.6561 -0.1190
15346TIP3   OH267452   1.563   5.457   1.777 -0.1111 -0.4024 -1.0055
15346TIP3    H167453   1.589   5.365   1.768  0.4997 -0.2370 -0.9880
15346TIP3    H267454   1.517   5.477   1.696 -1.0582 -0.9777 -0.6279
15347TIP3   OH267455   2.644   3.065   5.698 -0.5233  0.2763  0.7334
15347TIP3    H167456   2.709   3.056   5.768  1.8787  0.8857 -1.2963
15347TIP3    H267457   2.599   3.147   5.717  0.8503  0.9938  1.0266
15348TIP3   OH267458   1.247   1.027   2.168 -0.2792  0.4192  0.2567
15348TIP3    H167459   1.228   0.963   2.100  1.0962  0.4463 -0.1755
15348TIP3    H267460   1.338   1.053   2.152 -0.2980  1.2679  1.4156
15349TIP3   OH267461   0.528   5.388  15.437 -0.4448  0.2796 -0.1675
15349TIP3    H167462   0.465   5.399  15.366 -2.2217 -2.0440  0.9279
15349TIP3    H267463   0.574   5.307  15.416  1.4537  1.3139 -0.3129
15350TIP3   OH267464   3.261   1.051  13.428 -0.2415 -0.4274  0.4050
15350TIP3    H167465   3.249   0.960  13.401  2.0044 -0.7002  0.1367
15350TIP3    H267466   3.258   1.100  13.346 -2.0144 -0.1338  0.5996
15351TIP3   OH267467   6.463   5.791  14.323 -0.4063 -0.5632 -0.9716
15351TIP3    H167468   6.501   5.744  14.398  4.0899 -0.5389 -2.9022
15351TIP3    H267469   6.486   5.737  14.247  1.2245  2.5154 -2.8757
15352TIP3   OH267470   6.037   0.239   0.004 -0.0507 -0.3824 -0.5518
15352TIP3    H167471   6.102   0.310   0.003  0.5034 -0.8855 -0.7083
15352TIP3    H267472   6.001   0.239  -0.085 -0.5731  0.1714 -0.3458
15353TIP3   OH267473   2.465   4.189   6.134  0.1144 -0.5412 -0.1796
15353TIP3    H167474   2.483   4.102   6.097 -1.4757 -1.3823  0.8728
15353TIP3    H267475   2.374   4.184   6.162  0.2849  1.1665  0.8168
15354TIP3   OH267476   4.750   0.034   6.048  0.4056 -0.2481 -0.3936
15354TIP3    H167477   4.804   0.108   6.075  0.5184 -0.7906  0.9253
15354TIP3    H267478   4.806  -0.017   5.989  1.3870 -0.8110  0.9648
15355TIP3   OH267479   2.212   3.157   4.111 -0.6490 -0.4874  0.2626
15355TIP3    H167480   2.132   3.105   4.109 -0.7961 -0.2524 -1.2929
15355TIP3    H267481   2.220   3.193   4.023 -0.1934  1.5859  1.0754
15356TIP3   OH267482   0.745   4.117  14.311 -0.1345  0.3343 -0.3110
15356TIP3    H167483   0.751   4.104  14.406  0.6686 -0.7252 -0.4957
15356TIP3    H267484   0.819   4.174  14.290  0.4325 -0.4414 -0.4616
15357TIP3   OH267485   0.141   6.501   5.607  0.4192 -0.1129  0.0449
15357TIP3    H167486   0.121   6.506   5.701 -1.3356 -3.8492  0.0759
15357TIP3    H267487   0.059   6.525   5.564  0.6127 -0.3090 -0.4378
15358TIP3   OH267488   0.895   4.442  14.699  0.1272  0.1017 -0.1486
15358TIP3    H167489   0.915   4.470  14.788 -1.3264  0.4491  0.0878
15358TIP3    H267490   0.812   4.395  14.706 -0.2439  0.5307 -1.3732
15359TIP3   OH267491   1.942   2.812   1.473 -0.3462 -0.3782  0.1735
15359TIP3    H167492   1.973   2.888   1.522 -0.4694 -0.5057  0.4504
15359TIP3    H267493   1.923   2.746   1.540 -2.2358  0.0518  0.1153
15360TIP3   OH267494   6.308   1.144   0.784  0.2852 -0.0504  0.3197
15360TIP3    H167495   6.270   1.076   0.728  4.2851 -2.2115 -0.1403
15360TIP3    H267496   6.322   1.219   0.725 -0.3155 -0.3720 -0.2399
15361TIP3   OH267497   1.078   5.133  11.345 -0.2590 -0.1130  0.3656
15361TIP3    H167498   1.028   5.213  11.329  0.1392 -0.0924 -0.9161
15361TIP3    H267499   1.034   5.066  11.293  0.5253 -0.2762 -0.1092
15362TIP3   OH267500   5.230   0.477   2.601  0.3785  0.0597  0.6584
15362TIP3    H167501   5.215   0.485   2.507 -1.5739  1.4828  1.0345
15362TIP3    H267502   5.265   0.388   2.612  0.3411 -0.2489 -1.3523
15363TIP3   OH267503   3.945   4.121   1.937 -0.1140 -0.1656  0.0816
15363TIP3    H167504   3.993   4.039   1.926 -0.4358 -0.9036  3.2842
15363TIP3    H267505   3.857   4.095   1.964 -0.9456  1.2449 -1.1347
15364TIP3   OH267506   4.674   1.028   2.918  0.3239  0.2103  0.0516
15364TIP3    H167507   4.647   1.069   3.000  0.1452 -0.4072  0.3071
15364TIP3    H267508   4.702   1.101   2.862  1.7231  0.5212  1.1257
15365TIP3   OH267509   6.572   1.149   3.039  0.8018  0.0651 -0.4687
15365TIP3    H167510   6.480   1.164   3.018  0.3485  0.1294  1.3925
15365TIP3    H267511   6.577   1.056   3.058  1.0650  0.0956 -0.3883
15366TIP3   OH267512   2.988   1.218  11.962 -0.1396 -0.0961  0.1211
15366TIP3    H167513   3.065   1.202  12.017  0.2179  0.1718 -0.2941
15366TIP3    H267514   2.971   1.134  11.920 -0.1514 -0.1899  0.3141
15367TIP3   OH267515   0.978   4.368  16.395  0.1199 -0.0836 -0.0697
15367TIP3    H167516   0.908   4.421  16.434  0.5285  2.7692 -2.8419
15367TIP3    H267517   0.939   4.329  16.317  0.2529 -2.9390  1.1430
15368TIP3   OH267518   5.275   1.022  13.282 -0.0218  0.2951  0.1580
15368TIP3    H167519   5.274   0.953  13.349  1.0212  1.5462  1.5397
15368TIP3    H267520   5.304   1.100  13.329 -0.2427  1.4678 -1.5660
15369TIP3   OH267521   1.170   0.349  12.176 -0.1100  0.6727 -0.0226
15369TIP3    H167522   1.159   0.279  12.111 -0.8338  0.4078  0.3770
15369TIP3    H267523   1.264   0.370  12.172 -0.0663  0.3725 -0.8491
15370TIP3   OH267524   0.076   1.387  13.695 -0.1313  0.0026 -0.7066
15370TIP3    H167525  -0.009   1.429  13.684 -0.6548 -0.7300  0.4007
15370TIP3    H267526   0.131   1.454  13.735 -0.6253  0.0074 -0.0276
15371TIP3   OH267527   0.206   5.217  10.939  0.1690 -0.2885 -0.1355
15371TIP3    H167528   0.277   5.160  10.912 -1.1699 -1.8756 -0.4684
15371TIP3    H267529   0.192   5.195  11.032  1.2843  1.3563  0.4694
15372TIP3   OH267530   5.585   5.155  14.774 -0.1903 -0.2275 -0.0700
15372TIP3    H167531   5.579   5.175  14.867 -1.0946 -0.6567 -0.0215
15372TIP3    H267532   5.560   5.237  14.731  1.1057  0.2485  0.0291
15373TIP3   OH267533   0.714   0.045  11.926  0.7972 -0.7352  0.0731
15373TIP3    H167534   0.746   0.099  11.998 -1.6122 -0.1427  0.8086
15373TIP3    H267535   0.685  -0.036  11.967 -0.6949 -0.3491 -0.1360
15374TIP3   OH267536   4.899   6.055  13.437  0.1436  0.0327  0.5694
15374TIP3    H167537   4.852   6.133  13.468  2.0415  1.5113 -0.1019
15374TIP3    H267538   4.990   6.069  13.463  0.7140 -1.5101 -0.4262
15375TIP3   OH267539   5.478   3.827   6.151  0.4696 -0.0922 -0.0390
15375TIP3    H167540   5.522   3.865   6.227  2.5244 -2.5247  0.1300
15375TIP3    H267541   5.527   3.860   6.076 -0.0884  0.4515 -0.1770
15376TIP3   OH267542   3.712   6.052   5.203  0.0660 -0.2291 -0.2041
15376TIP3    H167543   3.722   5.995   5.279 -1.3062 -1.4101 -0.8622
15376TIP3    H267544   3.618   6.057   5.189  0.2778  0.3390 -1.5497
15377TIP3   OH267545   0.074   3.983   5.728  0.1422  0.8879  0.3815
15377TIP3    H167546   0.161   3.954   5.754  0.5923  2.3336  0.5719
15377TIP3    H267547   0.014   3.933   5.784  0.7089 -1.4464 -0.9680
15378TIP3   OH267548   5.419   4.279  14.962 -0.7051 -0.0451 -0.2108
15378TIP3    H167549   5.406   4.210  14.897  0.8429 -0.3684 -0.2207
15378TIP3    H267550   5.420   4.233  15.046 -0.3570  0.0530 -0.1600
15379TIP3   OH267551   2.195   4.796   2.203 -0.5222 -0.8087 -0.1734
15379TIP3    H167552   2.211   4.875   2.151 -0.2143 -0.2649  0.7247
15379TIP3    H267553   2.282   4.772   2.236 -0.9113 -0.2959  1.2707
15380TIP3   OH267554   2.660   2.425  13.767 -0.1023  0.5424  0.3070
15380TIP3    H167555   2.709   2.362  13.820 -0.4429 -0.3315 -0.3782
15380TIP3    H267556   2.656   2.385  13.680 -1.1215  1.0902  0.0854
15381TIP3   OH267557   4.223   5.009  13.478  0.2027  0.1662  0.4628
15381TIP3    H167558   4.231   4.944  13.548  0.7110  0.5234  0.7420
15381TIP3    H267559   4.152   4.975  13.422 -0.9545  0.4064  1.7202
15382TIP3   OH267560   3.969   0.920   2.131  0.2639  0.3991 -0.6871
15382TIP3    H167561   3.917   0.962   2.063  1.2138  2.0416 -0.4695
15382TIP3    H267562   3.907   0.905   2.203 -0.0410  1.9623 -0.5755
15383TIP3   OH267563   3.419   0.472  14.025 -1.1484 -0.2250  0.1360
15383TIP3    H167564   3.402   0.378  14.026 -0.3785 -0.3691  0.1233
15383TIP3    H267565   3.341   0.511  14.065 -1.4833 -0.8605  0.1142
15384TIP3   OH267566   4.517   3.397  14.283 -0.4754  0.6220 -0.1599
15384TIP3    H167567   4.601   3.394  14.328 -0.1718  0.9576 -0.7018
15384TIP3    H267568   4.454   3.362  14.347  0.0797  0.3154  0.2236
15385TIP3   OH267569   0.871   4.330  11.607 -0.6228  0.1296  0.1236
15385TIP3    H167570   0.801   4.267  11.622 -0.2825 -0.1133  0.7323
15385TIP3    H267571   0.870   4.346  11.513 -0.2235 -1.3560 -0.1461
15386TIP3   OH267572   4.930   0.887   1.343 -0.2739  0.3298  0.7942
15386TIP3    H167573   4.983   0.965   1.355 -0.0542  0.7019 -1.9591
15386TIP3    H267574   4.842   0.920   1.323  0.1760  0.0503 -2.0642
15387TIP3   OH267575   3.972   0.211  12.909 -0.7149 -0.0556 -0.3128
15387TIP3    H167576   4.041   0.236  12.970 -0.7143  0.4659 -0.5225
15387TIP3    H267577   4.019   0.177  12.833 -0.6854  0.2133 -0.4183
15388TIP3   OH267578   0.774   2.905  15.029 -0.0372  0.2698 -0.3457
15388TIP3    H167579   0.784   2.812  15.009 -0.3964  0.1808 -0.1166
15388TIP3    H267580   0.752   2.945  14.945 -1.1823 -0.0504 -0.2130
15389TIP3   OH267581   0.567   2.482  16.512  0.1265 -0.5526  0.3045
15389TIP3    H167582   0.561   2.542  16.438  0.6038 -0.9490 -0.0648
15389TIP3    H267583   0.560   2.395  16.473 -1.4151 -0.7310  0.9307
15390TIP3   OH267584   5.537   2.906  12.300  0.3182 -0.0168 -0.0857
15390TIP3    H167585   5.489   2.831  12.265  0.6345  0.6941 -2.2278
15390TIP3    H267586   5.484   2.982  12.274  0.5080  0.5686  1.1682
15391TIP3   OH267587   5.605   1.640   4.667 -0.1652 -0.3785  0.9384
15391TIP3    H167588   5.583   1.548   4.656  1.5440 -0.8047  0.6705
15391TIP3    H267589   5.609   1.674   4.578  0.4205 -0.3687  0.9654
15392TIP3   OH267590   2.345   0.601   4.324 -0.2728  0.0450 -0.1434
15392TIP3    H167591   2.283   0.585   4.394  0.4523 -0.7322  0.3433
15392TIP3    H267592   2.335   0.527   4.265  0.4890 -0.3129  0.1671
15393TIP3   OH267593   4.027   1.774  15.325 -0.4823 -0.3018 -0.2858
15393TIP3    H167594   4.067   1.859  15.304 -0.4328 -0.3133 -0.2376
15393TIP3    H267595   4.100   1.712  15.325 -0.4886 -0.3099 -0.1221
15394TIP3   OH267596   6.047   4.470  14.410 -0.2223 -0.3409  0.3342
15394TIP3    H167597   6.139   4.472  14.437  0.0195  0.0630 -0.4968
15394TIP3    H267598   6.038   4.544  14.350 -2.1664  2.4787  3.7080
15395TIP3   OH267599   4.952   5.727  14.285  0.3990  0.2748  0.4702
15395TIP3    H167600   4.874   5.673  14.289 -1.0187  1.5107 -4.2053
15395TIP3    H267601   4.923   5.813  14.316 -0.9473  1.2702 -3.0387
15396TIP3   OH267602   5.154   5.503  15.773  0.2154 -1.0780  0.3763
15396TIP3    H167603   5.097   5.561  15.824 -0.0202  0.4911 -1.5560
15396TIP3    H267604   5.098   5.472  15.702  1.5597 -0.0375 -1.1792
15397TIP3   OH267605   5.681   1.599  11.662 -0.1933  0.2420 -0.2156
15397TIP3    H167606   5.651   1.597  11.753  1.4767 -1.5904  0.3812
15397TIP3    H267607   5.694   1.692  11.643  1.9698  0.5994  2.3887
15398TIP3   OH267608   1.811   2.713   3.379 -0.1060 -0.2419 -0.0544
15398TIP3    H167609   1.768   2.756   3.305 -0.5489  1.6481  1.2342
15398TIP3    H267610   1.864   2.644   3.339 -3.1437 -1.7603 -1.8362
15399TIP3   OH267611   0.879   3.185   5.679  0.2346 -0.0965 -0.5156
15399TIP3    H167612   0.789   3.158   5.698  0.7436 -0.8225  0.9867
15399TIP3    H267613   0.882   3.277   5.705 -0.2331  0.1194 -1.1899
15400TIP3   OH267614   6.132   5.647  13.899 -0.9368  0.1554 -0.0392
15400TIP3    H167615   6.154   5.720  13.842 -1.4069 -0.3737 -0.9209
15400TIP3    H267616   6.072   5.684  13.963 -1.4813  0.4693 -0.7166
15401TIP3   OH267617   3.140   5.478  17.057 -0.2847 -0.2962  0.2149
15401TIP3    H167618   3.141   5.403  16.998 -1.3255  1.4752 -2.2158
15401TIP3    H267619   3.056   5.472  17.102  0.6144 -1.7862  1.8250
15402TIP3   OH267620   4.721   5.584   0.675 -0.0838  0.5447 -0.4899
15402TIP3    H167621   4.708   5.502   0.627  1.0983  0.4335 -0.6622
15402TIP3    H267622   4.652   5.585   0.741  0.6776 -1.2565  0.4082
15403TIP3   OH267623   6.210   5.721   5.517  0.5391  0.1776  0.0195
15403TIP3    H167624   6.120   5.724   5.550  0.8402 -1.2962  1.0996
15403TIP3    H267625   6.230   5.628   5.512  1.7878  0.4762 -0.8458
15404TIP3   OH267626   6.547   1.582   0.153  0.3977 -0.1093 -0.0347
15404TIP3    H167627   6.622   1.610   0.205  1.7532 -2.3831 -0.6316
15404TIP3    H267628   6.585   1.546   0.073 -1.4503  0.0895 -1.0699
15405TIP3   OH267629   1.946   2.575  12.254  0.1436 -0.5604 -0.2038
15405TIP3    H167630   2.023   2.592  12.309  0.0193 -1.5862  0.3065
15405TIP3    H267631   1.874   2.565  12.316 -0.0690 -1.3868 -0.5704
15406TIP3   OH267632   3.910   4.527  14.082 -0.0474 -0.3977  0.8468
15406TIP3    H167633   3.993   4.485  14.060 -1.1943 -3.0968  1.2178
15406TIP3    H267634   3.900   4.512  14.176 -0.6967  0.3659  0.9068
15407TIP3   OH267635   3.216   3.771   3.027 -0.5448 -0.1682 -0.2332
15407TIP3    H167636   3.186   3.764   3.117  0.5405  0.2236  0.1852
15407TIP3    H267637   3.138   3.756   2.974 -1.5449  1.1869  0.7757
15408TIP3   OH267638   1.903   5.712  15.416 -0.3838  0.1366  0.5815
15408TIP3    H167639   1.966   5.659  15.366  0.2309 -0.3425  1.8165
15408TIP3    H267640   1.835   5.650  15.443  1.5304 -0.7010  4.0648
15409TIP3   OH267641   5.373   1.996   0.134 -0.3290  0.4983  0.3907
15409TIP3    H167642   5.441   2.011   0.200 -0.1110 -0.2888  0.3613
15409TIP3    H267643   5.409   1.926   0.079 -1.1591  0.0670  0.3736
15410TIP3   OH267644   4.350   5.536   1.106  0.5515 -0.2325 -0.0180
15410TIP3    H167645   4.310   5.468   1.052 -0.5183  0.7613 -0.5215
15410TIP3    H267646   4.276   5.581   1.146  1.1971  1.1390 -0.3263
15411TIP3   OH267647   0.100   3.118   1.601  0.0004 -0.1524 -0.6303
15411TIP3    H167648   0.010   3.144   1.582 -0.2079 -0.7531 -0.5090
15411TIP3    H267649   0.107   3.123   1.696  1.0616  2.9132 -0.7605
15412TIP3   OH267650   2.036   1.201   2.448  0.3421  0.1951  0.0296
15412TIP3    H167651   2.105   1.263   2.424  0.3527  0.6097  1.0736
15412TIP3    H267652   2.049   1.127   2.390  1.4528  0.4210 -0.0296
15413TIP3   OH267653   0.999   6.276   5.628 -0.2655 -1.1057 -0.2949
15413TIP3    H167654   1.038   6.255   5.543  0.5821 -2.1002  0.3107
15413TIP3    H267655   1.073   6.280   5.688 -0.7894  0.1501  0.3134
15414TIP3   OH267656   0.152   6.602   0.221 -0.3459  0.6842 -0.0900
15414TIP3    H167657   0.182   6.528   0.168  0.1712  1.6330 -1.1631
15414TIP3    H267658   0.132   6.564   0.306  1.0712 -0.4949 -0.2418
15415TIP3   OH267659   1.529   3.607  14.770  0.1941  0.3681  0.0526
15415TIP3    H167660   1.530   3.681  14.830 -3.0707  0.7068 -0.1156
15415TIP3    H267661   1.449   3.618  14.719  1.0491 -1.7927 -1.9652
15416TIP3   OH267662   3.370   6.470   2.530 -0.6387 -0.4732 -0.3995
15416TIP3    H167663   3.319   6.548   2.551 -0.6740 -0.8461  1.0091
15416TIP3    H267664   3.344   6.447   2.441 -2.0469  0.0313 -0.1386
15417TIP3   OH267665   1.043   4.642  14.150  0.1538  0.1924  0.1933
15417TIP3    H167666   0.990   4.608  14.078  1.7725 -2.5654  0.1688
15417TIP3    H267667   0.980   4.658  14.221 -1.1122  0.4206 -0.9468
15418TIP3   OH267668   6.542   4.374   0.993 -0.0619  0.9075  0.0974
15418TIP3    H167669   6.513   4.344   0.907  0.5507  2.1906 -0.5784
15418TIP3    H267670   6.595   4.302   1.027 -1.6545 -0.3042  0.1499
15419TIP3   OH267671   6.804   4.855   4.823 -0.6675  0.1078 -0.3501
15419TIP3    H167672   6.840   4.897   4.902 -0.6141 -0.9309  0.1915
15419TIP3    H267673   6.711   4.877   4.825 -0.5095  0.8459 -0.5023
15420TIP3   OH267674   5.386   2.900   2.651 -0.7187 -0.5533 -0.2228
15420TIP3    H167675   5.413   2.847   2.575  4.4101  1.9153 -0.6028
15420TIP3    H267676   5.367   2.986   2.614  1.9769  0.7260  1.0382
15421TIP3   OH267677   1.126   0.621   2.514  0.6445 -0.3221  0.4938
15421TIP3    H167678   1.071   0.693   2.544  0.0868 -1.6833  3.0370
15421TIP3    H267679   1.087   0.592   2.432  0.3659  1.6621 -0.1106
15422TIP3   OH267680   5.541   0.974  10.827 -0.3132  0.3954 -0.0861
15422TIP3    H167681   5.480   0.923  10.880  0.3634  0.0852  0.4060
15422TIP3    H267682   5.557   1.054  10.878 -0.6924  0.7085 -0.4494
15423TIP3   OH267683   1.362   0.016  15.907 -0.2775  0.1945 -0.1943
15423TIP3    H167684   1.351  -0.056  15.969 -1.9826  1.0474  0.5622
15423TIP3    H267685   1.297  -0.001  15.839 -0.0462  0.5218 -0.5001
15424TIP3   OH267686   1.846   0.917  13.705  0.1320  0.4398 -0.0791
15424TIP3    H167687   1.771   0.976  13.700 -2.1053 -2.2343 -0.8253
15424TIP3    H267688   1.838   0.874  13.790  1.1277  0.4422  0.0305
15425TIP3   OH267689   2.122   5.658   2.199 -0.0066  0.2214 -0.2434
15425TIP3    H167690   2.150   5.672   2.290  0.0544 -0.9850 -0.0673
15425TIP3    H267691   2.026   5.656   2.203 -0.0292  0.8217 -0.3179
15426TIP3   OH267692   0.507   3.451  14.133 -0.1065 -0.8340 -0.5208
15426TIP3    H167693   0.564   3.527  14.146 -0.2271 -0.1049 -3.5837
15426TIP3    H267694   0.542   3.385  14.193  0.6512  1.2462  1.4854
15427TIP3   OH267695   5.056   1.571  14.988  0.0558 -0.4738  0.2513
15427TIP3    H167696   4.984   1.514  15.014  0.8440 -1.6511 -0.0450
15427TIP3    H267697   5.099   1.595  15.070 -2.2065  2.4789  0.7281
15428TIP3   OH267698   3.806   2.241   5.919  0.1204  0.2404 -0.2083
15428TIP3    H167699   3.901   2.253   5.930  0.1447 -0.5096  0.4567
15428TIP3    H267700   3.768   2.320   5.958  0.5190  1.4826 -2.2137
15429TIP3   OH267701   5.565   0.308   0.984 -0.1655 -0.3060  0.0290
15429TIP3    H167702   5.502   0.348   1.043 -0.3032 -0.5814  0.0704
15429TIP3    H267703   5.528   0.223   0.963  1.1904 -1.4292  1.8015
15430TIP3   OH267704   6.664   2.424  14.378 -0.4535  0.2674  0.1337
15430TIP3    H167705   6.676   2.490  14.310  1.0019 -0.5712 -0.4673
15430TIP3    H267706   6.591   2.371  14.347  0.5420 -0.4468 -1.1091
15431TIP3   OH267707   6.314   3.985   4.437  0.5567 -0.6321 -0.0670
15431TIP3    H167708   6.273   3.900   4.455  2.1751 -1.4764 -0.1393
15431TIP3    H267709   6.296   4.038   4.515 -1.2434 -0.6967 -0.3931
15432TIP3   OH267710   0.656   3.316  14.901 -0.0065 -0.6161  0.8172
15432TIP3    H167711   0.688   3.232  14.867  0.7658 -0.9092  2.2136
15432TIP3    H267712   0.567   3.323  14.866  0.2795 -1.5133 -0.1648
15433TIP3   OH267713   4.975   2.805   2.336 -0.7902  0.0380 -0.6952
15433TIP3    H167714   5.026   2.878   2.301 -1.5395  1.5011  1.1290
15433TIP3    H267715   4.884   2.835   2.332 -1.0290 -0.3738  0.9884
15434TIP3   OH267716   1.557   4.746   0.255  0.0413 -0.4843  0.3043
15434TIP3    H167717   1.472   4.755   0.297 -0.0958 -0.8815  0.1295
15434TIP3    H267718   1.619   4.732   0.326  0.4563  2.6899  0.6915
15435TIP3   OH267719   4.676   1.434   3.559  0.1323  0.5650  0.4351
15435TIP3    H167720   4.619   1.511   3.552  1.1589  1.4246  1.1597
15435TIP3    H267721   4.720   1.445   3.642  1.5214  0.0361 -0.2090
15436TIP3   OH267722   4.719   0.827   3.862  0.3558 -0.2210  0.3288
15436TIP3    H167723   4.721   0.844   3.957  2.4876 -1.6346  0.6041
15436TIP3    H267724   4.639   0.775   3.849 -0.7673  1.2547  1.0661
15437TIP3   OH267725   1.076   5.793  15.132  0.2337  0.8447 -0.6187
15437TIP3    H167726   1.058   5.726  15.197 -1.0124  2.0543  0.3485
15437TIP3    H267727   1.024   5.869  15.160  1.1067  2.0187 -1.9971
15438TIP3   OH267728   0.937   5.437  12.325 -0.1964 -0.6674 -0.6293
15438TIP3    H167729   1.011   5.434  12.386  0.8150  0.2382 -1.7853
15438TIP3    H267730   0.885   5.359  12.348 -0.2989  0.0387  1.9018
15439TIP3   OH267731   6.263   6.157   2.828  0.2291  0.1031 -0.1187
15439TIP3    H167732   6.275   6.095   2.756 -1.5164 -1.9370  1.2337
15439TIP3    H267733   6.269   6.243   2.787 -0.1818 -0.9797 -2.6155
15440TIP3   OH267734   6.694   0.215  16.189 -0.4403 -0.0893  0.4853
15440TIP3    H167735   6.771   0.159  16.199 -0.5281 -0.1070  1.1297
15440TIP3    H267736   6.726   0.303  16.209  0.1662  0.4511 -2.4903
15441TIP3   OH267737   5.335   2.385   3.021  0.1848 -0.5497 -0.1722
15441TIP3    H167738   5.249   2.349   3.001  0.4303 -0.1911 -2.0220
15441TIP3    H267739   5.328   2.416   3.111 -2.0890  0.8258 -0.7495
15442TIP3   OH267740   5.002   2.916   0.068  0.8886  0.4413  0.1040
15442TIP3    H167741   5.010   2.903  -0.027  1.2805  0.6900  0.1018
15442TIP3    H267742   5.071   2.862   0.106 -0.9176 -1.8107  0.4353
15443TIP3   OH267743   3.345   0.051  15.295 -0.1870 -0.1263  0.8215
15443TIP3    H167744   3.426   0.093  15.269 -0.1591  0.6400  2.0347
15443TIP3    H267745   3.370  -0.039  15.316  0.4268  0.1987  1.5298
15444TIP3   OH267746   3.682   0.356   2.709  0.5057  1.0226  0.7086
15444TIP3    H167747   3.613   0.369   2.645  0.4365 -0.6648  0.3840
15444TIP3    H267748   3.747   0.424   2.689 -0.8081  2.3355  0.7291
15445TIP3   OH267749   0.286   4.507   1.811 -0.5150 -0.1248 -0.3827
15445TIP3    H167750   0.206   4.531   1.765 -0.9063 -0.5050  0.0912
15445TIP3    H267751   0.336   4.589   1.818 -0.1881 -0.1594 -1.9641
15446TIP3   OH267752   1.955   1.716  11.887  0.4779  0.1865 -0.1147
15446TIP3    H167753   1.975   1.758  11.971 -0.0274  0.1582  0.0233
15446TIP3    H267754   1.874   1.758  11.858  0.7996  0.3949 -0.7265
15447TIP3   OH267755   2.341   2.482   2.047  0.6910  0.1657 -0.0773
15447TIP3    H167756   2.334   2.462   1.953 -1.8218 -0.3658  0.1563
15447TIP3    H267757   2.293   2.563   2.058 -1.1798 -1.0353  1.0742
15448TIP3   OH267758   3.498   6.396   3.196  0.1381  0.3949 -0.3155
15448TIP3    H167759   3.425   6.377   3.255  0.8633  0.2502  0.5491
15448TIP3    H267760   3.573   6.351   3.235  0.5418 -0.1159 -1.6026
15449TIP3   OH267761   0.527   2.706   3.125 -0.2921 -1.1942 -0.3871
15449TIP3    H167762   0.441   2.728   3.088 -1.3518 -3.2741  0.7115
15449TIP3    H267763   0.553   2.626   3.079  0.3402 -1.4311  0.3813
15450TIP3   OH267764   5.867   5.527   0.198  0.4334 -0.0962 -0.0309
15450TIP3    H167765   5.797   5.586   0.171  1.2535  0.6606 -0.5599
15450TIP3    H267766   5.829   5.440   0.190  0.0116  0.2091 -1.8347
15451TIP3   OH267767   3.436   6.242  11.003  0.3892 -0.1713 -0.0661
15451TIP3    H167768   3.442   6.178  10.932 -0.8669 -0.1435 -0.2276
15451TIP3    H267769   3.424   6.189  11.082 -4.4946 -0.2690 -0.5807
15452TIP3   OH267770   5.633   3.517   0.255  0.4334 -0.0214  0.1902
15452TIP3    H167771   5.658   3.441   0.308  3.1241  0.7102  0.1482
15452TIP3    H267772   5.684   3.507   0.174 -0.5426  0.9348 -0.5647
15453TIP3   OH267773   0.206   4.153   1.850  0.2622  0.2899  0.3115
15453TIP3    H167774   0.120   4.138   1.810  1.3016  0.0541 -2.0020
15453TIP3    H267775   0.200   4.242   1.886 -0.5179  0.8751 -1.1381
15454TIP3   OH267776   3.705   6.740  11.242 -0.3234  0.2155 -0.0049
15454TIP3    H167777   3.782   6.751  11.298  0.1916  0.6452 -0.7830
15454TIP3    H267778   3.732   6.775  11.157 -1.9015  1.8967  0.1419
15455TIP3   OH267779   6.392   5.473   2.711 -0.5265 -0.6240 -0.4255
15455TIP3    H167780   6.402   5.552   2.765 -1.1079 -0.0423 -1.1490
15455TIP3    H267781   6.354   5.408   2.770  0.2756 -0.4731  0.2712
15456TIP3   OH267782   0.142   1.812  12.439 -0.5853  0.1155 -0.3962
15456TIP3    H167783   0.124   1.752  12.511  3.5696 -0.6256  0.2541
15456TIP3    H267784   0.108   1.767  12.362 -2.5443 -0.4052  0.7103
15457TIP3   OH267785   0.009   0.569   4.443  0.2986 -0.0774 -0.4335
15457TIP3    H167786   0.017   0.617   4.525 -0.1802  1.2502 -1.1339
15457TIP3    H267787   0.013   0.477   4.468  2.1235  0.3207  0.8480
15458TIP3   OH267788   5.635   2.788  11.721 -0.1574 -0.8184 -0.0817
15458TIP3    H167789   5.661   2.879  11.729  0.5295 -1.1599  2.7373
15458TIP3    H267790   5.541   2.791  11.705 -0.0758  0.3723 -0.4166
15459TIP3   OH267791   0.005   6.386  16.441  0.5376 -0.1093  0.1936
15459TIP3    H167792  -0.070   6.357  16.390  0.7574 -0.0468 -0.1699
15459TIP3    H267793   0.006   6.328  16.517 -0.8120  0.8961  1.0293
15460TIP3   OH267794   1.177   6.693  11.817  0.5582  0.2120 -0.0344
15460TIP3    H167795   1.193   6.757  11.887  0.9341 -1.7258  1.7716
15460TIP3    H267796   1.257   6.641  11.814  0.5364  0.2163 -1.9464
15461TIP3   OH267797   3.596   4.132   4.346 -0.4197 -0.3060  0.4558
15461TIP3    H167798   3.562   4.107   4.433 -2.3944  2.8601  0.7582
15461TIP3    H267799   3.519   4.128   4.289  0.5099 -0.7361 -0.8011
15462TIP3   OH267800   1.523   2.742  15.970 -0.3659  0.1510  0.1069
15462TIP3    H167801   1.509   2.672  15.906  1.3140  0.8344 -1.0726
15462TIP3    H267802   1.525   2.822  15.917 -4.5319  1.5183  1.6212
15463TIP3   OH267803   4.287   4.223  14.620  0.2980  0.1087  0.2108
15463TIP3    H167804   4.281   4.255  14.530  1.4093  0.1104  0.1229
15463TIP3    H267805   4.334   4.292  14.667  0.0077 -0.0373  0.7205
15464TIP3   OH267806   5.680   6.033   5.201 -0.4975 -0.2158 -0.1606
15464TIP3    H167807   5.623   6.107   5.219  0.9578  1.0200 -0.4618
15464TIP3    H267808   5.643   5.993   5.122 -1.6579 -0.2277  0.3593
15465TIP3   OH267809   0.751   5.935  16.988 -0.2969  0.1725 -0.3145
15465TIP3    H167810   0.658   5.937  16.965  0.0417  1.6642 -1.7717
15465TIP3    H267811   0.764   6.014  17.040  0.1934  0.1187 -0.3541
15466TIP3   OH267812   4.562   6.646  13.544 -0.2649  0.1876 -0.3141
15466TIP3    H167813   4.569   6.557  13.580  0.0763  0.2306 -0.2714
15466TIP3    H267814   4.652   6.677  13.540 -0.3035  0.2137 -1.1319
15467TIP3   OH267815   5.938   0.479  13.156  0.0736  0.0940  0.1650
15467TIP3    H167816   5.997   0.407  13.132 -0.6946 -0.2501 -0.7517
15467TIP3    H267817   5.852   0.451  13.125 -0.4101  1.0034  0.6412
15468TIP3   OH267818   3.718   0.251   3.929  0.0323 -0.2873  0.4103
15468TIP3    H167819   3.735   0.342   3.952  0.7870 -0.0973 -0.8211
15468TIP3    H267820   3.669   0.216   4.003  0.5760  0.8529  1.3292
15469TIP3   OH267821   5.020   4.847  15.169  0.2813  0.1302 -0.5510
15469TIP3    H167822   5.010   4.861  15.264  1.0118 -0.7541 -0.3258
15469TIP3    H267823   5.114   4.841  15.156  0.1616 -0.2076 -1.2678
15470TIP3   OH267824   4.147   6.672  12.776 -0.1134 -0.6042  0.4449
15470TIP3    H167825   4.163   6.750  12.722  0.6833  0.0633  1.6023
15470TIP3    H267826   4.229   6.624  12.775  0.5935  0.4406  2.6280
15471TIP3   OH267827   3.218   1.554  12.671 -0.2335  0.6348 -0.0798
15471TIP3    H167828   3.222   1.587  12.761  0.7549 -1.1320  0.5560
15471TIP3    H267829   3.125   1.533  12.657 -0.4394  1.1890  0.3975
15472TIP3   OH267830   2.645   6.127  12.107  1.0485  0.5778  0.0802
15472TIP3    H167831   2.573   6.123  12.170  1.9753 -3.2426  1.1906
15472TIP3    H267832   2.692   6.207  12.129 -0.4886  1.0063  2.1323
15473TIP3   OH267833   3.563   6.631   2.721 -0.1871 -0.4173  0.0188
15473TIP3    H167834   3.510   6.617   2.643  1.8621  0.5496 -1.6611
15473TIP3    H267835   3.522   6.577   2.789 -3.2237  0.2637 -1.1322
15474TIP3   OH267836   2.626   5.879   6.504  0.4290  0.0973  0.5581
15474TIP3    H167837   2.638   5.899   6.411  0.6019 -1.3430  0.2506
15474TIP3    H267838   2.669   5.952   6.550  2.5724 -0.4190 -0.5080
15475TIP3   OH267839   4.563   2.529  16.690 -0.3065  0.3192 -0.1446
15475TIP3    H167840   4.481   2.490  16.721 -0.0910 -0.8824 -1.0306
15475TIP3    H267841   4.548   2.623  16.696 -2.2011  0.1419 -1.3678
15476TIP3   OH267842   3.276   3.669  15.967  0.5137  0.2637 -0.0688
15476TIP3    H167843   3.336   3.717  16.025 -0.1711 -0.0570  0.9265
15476TIP3    H267844   3.298   3.701  15.879  2.2180  0.0604  0.2487
15477TIP3   OH267845   3.265   3.938  14.914 -0.4004 -0.6367 -0.2546
15477TIP3    H167846   3.193   3.981  14.960 -0.2860 -0.4782 -0.2245
15477TIP3    H267847   3.222   3.875  14.857 -0.8284  1.8157 -2.8522
15478TIP3   OH267848   0.211   3.205  16.846 -0.7640  0.6741 -0.3258
15478TIP3    H167849   0.230   3.170  16.933 -0.1762  2.6214  0.3761
15478TIP3    H267850   0.198   3.127  16.792 -1.0426 -0.5857  1.4606
15479TIP3   OH267851   1.288   4.204  14.276  0.6965  0.3090 -0.6919
15479TIP3    H167852   1.267   4.273  14.213 -0.3201  0.9969  0.3567
15479TIP3    H267853   1.357   4.242  14.331 -0.2973  0.7690  0.2800
15480TIP3   OH267854   5.939   2.511  11.817 -0.2684 -0.4585 -0.6853
15480TIP3    H167855   5.904   2.531  11.730 -1.0253  0.0506 -0.2866
15480TIP3    H267856   5.896   2.576  11.874  0.4676 -0.5747  0.0081
15481TIP3   OH267857   3.625   1.674   5.346  0.0645 -0.1977  0.3734
15481TIP3    H167858   3.624   1.585   5.382  0.0802  0.4610  2.1141
15481TIP3    H267859   3.692   1.671   5.278 -0.5511 -1.7293 -0.2238
15482TIP3   OH267860   1.292   2.684   5.130 -0.3999  0.9589  0.1012
15482TIP3    H167861   1.301   2.724   5.216  0.7327 -0.5654  0.7287
15482TIP3    H267862   1.373   2.635   5.118 -1.4869 -0.6606 -0.8698
15483TIP3   OH267863   1.440   2.579  14.442 -0.1668  0.6549 -0.0678
15483TIP3    H167864   1.359   2.629  14.434 -1.2688 -0.7940  1.2863
15483TIP3    H267865   1.411   2.489  14.454  1.5323  0.3678  2.6884
15484TIP3   OH267866   0.953   6.714  16.583 -0.2600 -0.0781  0.0178
15484TIP3    H167867   0.901   6.635  16.596  0.0908 -0.2564  0.3604
15484TIP3    H267868   0.982   6.738  16.671  0.3831 -0.0873 -0.1844
15485TIP3   OH267869   3.999   0.361  14.554 -0.0247  0.2130  0.1705
15485TIP3    H167870   4.065   0.375  14.622 -0.2876 -0.6875  0.6165
15485TIP3    H267871   3.915   0.376  14.599 -0.1393  2.2860 -0.6094
15486TIP3   OH267872   1.406   6.680  11.591  0.5208  0.0388  0.1626
15486TIP3    H167873   1.331   6.734  11.617  0.6371 -0.4444  1.5437
15486TIP3    H267874   1.432   6.716  11.506 -2.4027 -0.9208 -1.2905
15487TIP3   OH267875   3.228   1.638  12.952  0.0868  0.0886 -0.1134
15487TIP3    H167876   3.139   1.646  12.986 -0.4653 -1.7719 -0.9352
15487TIP3    H267877   3.256   1.551  12.981  3.0486  1.8825  3.1275
15488TIP3   OH267878   1.562   6.076  12.214 -0.3417 -0.0417 -0.0391
15488TIP3    H167879   1.637   6.136  12.217  0.1920 -0.7148  0.4208
15488TIP3    H267880   1.512   6.095  12.293 -0.0051 -0.4051  0.2654
15489TIP3   OH267881   3.586   2.880  10.353  0.3081  0.2709  0.3035
15489TIP3    H167882   3.495   2.849  10.354  0.0556  0.9160 -0.6653
15489TIP3    H267883   3.587   2.948  10.285  1.4899  0.3612  0.3922
15490TIP3   OH267884   4.004   2.091   0.572  0.7579  0.1549 -0.2039
15490TIP3    H167885   3.981   2.005   0.608  1.2894  0.2892  0.4783
15490TIP3    H267886   3.975   2.088   0.481  1.0202 -0.8514 -0.2627
15491TIP3   OH267887   5.759   6.398  13.539 -0.7465 -0.4732  0.1566
15491TIP3    H167888   5.673   6.365  13.513 -0.7611 -0.6549  0.4367
15491TIP3    H267889   5.805   6.322  13.573 -0.7809 -0.2075  0.8057
15492TIP3   OH267890   2.092   2.200  14.474 -0.2255 -0.1175  0.3671
15492TIP3    H167891   2.174   2.229  14.512  0.2962 -0.7573 -0.2343
15492TIP3    H267892   2.025   2.254  14.515  0.5128  0.5182  0.7443
15493TIP3   OH267893   1.678   3.981  12.968  1.2131  0.0868 -0.3421
15493TIP3    H167894   1.627   4.062  12.974  1.4904  0.1939  1.0887
15493TIP3    H267895   1.614   3.911  12.986  1.2844  0.1211  0.0641
15494TIP3   OH267896   4.719   1.257  16.721  0.0525  0.3531 -0.4781
15494TIP3    H167897   4.769   1.185  16.759 -0.1992  0.6226  0.3773
15494TIP3    H267898   4.755   1.267  16.633  1.2417  0.2851 -0.0169
15495TIP3   OH267899   1.222   4.295   4.247  0.0502  0.6616 -0.6693
15495TIP3    H167900   1.210   4.238   4.171  0.7298  0.8507 -0.9229
15495TIP3    H267901   1.303   4.265   4.287 -1.0373 -0.4004  0.8470
15496TIP3   OH267902   2.496   5.917   3.195 -0.2190 -0.0375 -0.4334
15496TIP3    H167903   2.490   5.839   3.139 -1.8830 -0.1668 -0.1203
15496TIP3    H267904   2.526   5.883   3.279  0.8771 -0.0460 -0.8052
15497TIP3   OH267905   1.448   6.762   4.111 -0.1486 -0.0648 -0.1210
15497TIP3    H167906   1.529   6.791   4.069  0.0984 -1.5837 -0.7538
15497TIP3    H267907   1.464   6.671   4.135 -0.9346  0.2153  1.6746
15498TIP3   OH267908   3.949   5.997   1.172 -0.1887  0.3616  0.0536
15498TIP3    H167909   3.961   6.006   1.267 -1.2141 -0.1989  0.2452
15498TIP3    H267910   3.954   6.087   1.139  0.8082  0.5037  0.5513
15499TIP3   OH267911   1.529   0.281   3.578 -0.6553  0.5209 -0.0617
15499TIP3    H167912   1.488   0.368   3.572 -3.7892 -0.6203  2.2455
15499TIP3    H267913   1.466   0.222   3.538 -0.4884 -1.1267  1.9286
15500TIP3   OH267914   3.473   5.976  14.455  0.2398 -0.4721 -0.1118
15500TIP3    H167915   3.537   5.924  14.505 -0.0595  0.3046  1.1266
15500TIP3    H267916   3.404   5.996  14.518  0.0991  0.9858 -0.6930
15501TIP3   OH267917   4.462   3.426   6.369  0.6181 -0.6531 -0.6099
15501TIP3    H167918   4.478   3.332   6.365  0.2038 -0.7148 -0.8285
15501TIP3    H267919   4.443   3.443   6.461  0.4919 -0.8133 -0.6077
15502TIP3   OH267920   4.858   4.984   4.545  0.0295 -0.2082 -0.1595
15502TIP3    H167921   4.864   4.906   4.599  2.7650 -0.3805 -0.5381
15502TIP3    H267922   4.913   5.048   4.591 -2.9164  1.9232  0.6763
15503TIP3   OH267923   1.999   4.449  13.711 -0.4368  0.1474 -0.1742
15503TIP3    H167924   2.082   4.456  13.663  0.0319 -1.0112  0.4147
15503TIP3    H267925   1.942   4.399  13.653  0.3703 -1.9073  0.6848
15504TIP3   OH267926   0.234   2.842   1.810  0.5885 -0.2211 -0.0396
15504TIP3    H167927   0.286   2.841   1.890  0.9478 -0.7355 -0.2753
15504TIP3    H267928   0.292   2.884   1.745  0.1566  0.5472  0.0589
15505TIP3   OH267929   6.443   3.129  13.466  0.6555 -0.9531  0.1361
15505TIP3    H167930   6.531   3.100  13.442  1.6111  0.9139  1.1493
15505TIP3    H267931   6.435   3.109  13.559 -0.0692 -1.2624  0.0139
15506TIP3   OH267932   3.479   4.732  13.135  0.4164  0.0362 -0.4086
15506TIP3    H167933   3.393   4.766  13.158 -0.2979  0.0313 -2.8523
15506TIP3    H267934   3.524   4.807  13.094  1.4040 -0.1037  0.3780
15507TIP3   OH267935   3.776   3.592  15.252 -0.4972 -0.6809  0.1285
15507TIP3    H167936   3.808   3.677  15.279 -2.4150  0.1796 -0.1332
15507TIP3    H267937   3.765   3.599  15.158 -0.4925 -1.2845  0.0785
15508TIP3   OH267938   1.943   0.916  12.769 -0.2167 -0.5011  0.5757
15508TIP3    H167939   1.966   0.934  12.860 -1.6854 -0.3634  0.9493
15508TIP3    H267940   1.908   0.827  12.770 -2.0886  0.1813  0.5473
15509TIP3   OH267941   3.520   0.699  13.488 -0.5173  0.0162 -0.5148
15509TIP3    H167942   3.476   0.636  13.545 -0.8720 -0.2828 -1.1237
15509TIP3    H267943   3.450   0.751  13.450 -0.1675  3.1355  2.6053
15510TIP3   OH267944   1.780   4.710   4.120  0.3554  0.2204 -0.0034
15510TIP3    H167945   1.696   4.691   4.160  0.1080  1.4480  0.0946
15510TIP3    H267946   1.835   4.739   4.192  1.0143 -1.0083  0.0089
15511TIP3   OH267947   2.498   4.235  11.499  0.0874  0.1290  0.0344
15511TIP3    H167948   2.473   4.261  11.411  2.5310  1.7284 -0.3021
15511TIP3    H267949   2.432   4.276  11.556 -0.5982  0.4444 -0.9624
15512TIP3   OH267950   6.236   3.649   0.498  0.0678 -0.5463  0.3351
15512TIP3    H167951   6.192   3.620   0.419  0.8217  0.3803 -0.4524
15512TIP3    H267952   6.260   3.740   0.480  0.0655 -0.2533  1.7086
15513TIP3   OH267953   3.546   1.766   4.395 -0.3397  0.6378  0.0890
15513TIP3    H167954   3.536   1.860   4.406 -0.5048  0.4689  1.5563
15513TIP3    H267955   3.579   1.735   4.480 -1.7290 -0.8093  0.1387
15514TIP3   OH267956   0.406   5.393   2.182  0.9216 -0.0003  0.0558
15514TIP3    H167957   0.342   5.458   2.151  0.2926  0.4049  2.0616
15514TIP3    H267958   0.355   5.334   2.236  1.7624 -1.3867 -0.6157
15515TIP3   OH267959   5.346   0.101  10.332 -0.2057 -0.5607  0.0913
15515TIP3    H167960   5.422   0.102  10.275 -0.0310  1.0248  0.2963
15515TIP3    H267961   5.361   0.029  10.392  1.6885  0.3725  0.8206
15516TIP3   OH267962   0.948   1.629   3.208 -0.1116  0.2041  0.5668
15516TIP3    H167963   0.928   1.608   3.117 -0.4432  0.1542  0.6518
15516TIP3    H267964   0.865   1.621   3.254  0.2732 -0.9686  1.1074
15517TIP3   OH267965   1.031   2.561   5.518 -0.0090 -0.2309 -0.2145
15517TIP3    H167966   0.988   2.491   5.567  0.0887 -0.1438 -0.0004
15517TIP3    H267967   1.025   2.637   5.577  1.0545 -0.3882  0.1125
15518TIP3   OH267968   1.503   4.250  14.002  0.9545 -0.6900 -0.1750
15518TIP3    H167969   1.412   4.259  14.030  1.1464  0.2806  0.1790
15518TIP3    H267970   1.548   4.325  14.042  1.6403 -0.4034 -1.4253
15519TIP3   OH267971   5.145   4.289  16.332  0.7066 -0.0010  0.4647
15519TIP3    H167972   5.153   4.196  16.351  1.3616  0.0472  0.4397
15519TIP3    H267973   5.112   4.328  16.413  2.5386  0.0599  1.2053
15520TIP3   OH267974   3.704   5.447   3.938 -0.8425  0.5066 -0.0355
15520TIP3    H167975   3.713   5.509   3.866 -1.1231 -0.9292 -1.3543
15520TIP3    H267976   3.787   5.398   3.937 -0.2869  1.3555  1.5107
15521TIP3   OH267977   2.983   2.041  16.452 -0.4724 -0.4093 -0.3764
15521TIP3    H167978   3.016   2.122  16.414 -2.0011  0.5065  0.1807
15521TIP3    H267979   2.922   2.007  16.386  0.4010 -1.2912 -0.7470
15522TIP3   OH267980   3.192   6.004   0.989  0.2547 -0.4646  0.1666
15522TIP3    H167981   3.219   5.915   0.969 -0.4989 -0.9039  1.0680
15522TIP3    H267982   3.135   5.996   1.065 -0.0762  0.7539  0.0700
15523TIP3   OH267983   4.570   2.977  11.876  0.1395  0.1207 -0.2299
15523TIP3    H167984   4.613   3.057  11.848  1.0560 -0.5094 -0.6477
15523TIP3    H267985   4.476   2.994  11.864  0.4247  0.4269 -2.1878
15524TIP3   OH267986   6.372   0.182  14.400 -0.1623 -0.4184  0.0222
15524TIP3    H167987   6.360   0.274  14.375  0.7840 -0.4962 -0.7944
15524TIP3    H267988   6.390   0.185  14.494 -0.5002  0.2015  0.0705
15525TIP3   OH267989   1.994   3.616  15.579  0.6254 -0.2582 -0.7268
15525TIP3    H167990   1.907   3.650  15.597  1.2811  0.8082  0.6394
15525TIP3    H267991   1.986   3.569  15.496 -1.2596 -0.2817 -0.5582
15526TIP3   OH267992   3.238   6.727  13.401 -0.0616  0.0037  0.3237
15526TIP3    H167993   3.260   6.637  13.373 -0.5692  0.2396 -0.8952
15526TIP3    H267994   3.300   6.745  13.472 -0.5747 -1.6547  1.2496
15527TIP3   OH267995   0.667   4.723   1.056 -0.5268  0.5345 -0.3763
15527TIP3    H167996   0.580   4.684   1.050 -0.2913  0.0813 -1.0414
15527TIP3    H267997   0.674   4.777   0.978 -0.3864  0.9353 -0.0868
15528TIP3   OH267998   2.675   0.925   3.648  0.1879 -0.2751 -0.1063
15528TIP3    H167999   2.769   0.936   3.658 -0.2096  3.6590  0.8974
15528TIP3    H268000   2.661   0.910   3.555  1.7202  0.6096 -0.5008
15529TIP3   OH268001   5.629   6.746   3.302 -0.2202  0.2547  0.2221
15529TIP3    H168002   5.714   6.752   3.346  1.3157 -2.3088 -2.1067
15529TIP3    H268003   5.590   6.666   3.336  0.3594 -0.9887 -1.8870
15530TIP3   OH268004   1.124   5.970   4.885 -0.4020 -0.1521 -0.2704
15530TIP3    H168005   1.194   6.033   4.869 -1.0502  1.2196  1.8000
15530TIP3    H268006   1.134   5.946   4.977 -2.4096 -0.1815 -0.0101
15531TIP3   OH268007   3.107   2.417   1.414 -0.5350  0.7895 -0.3563
15531TIP3    H168008   3.062   2.335   1.433 -0.3587  0.7681 -0.0229
15531TIP3    H268009   3.166   2.396   1.341 -0.7793  0.7234 -0.5373
15532TIP3   OH268010   3.847   5.504   2.078 -0.4972 -0.1791  0.2991
15532TIP3    H168011   3.913   5.542   2.136 -0.0186 -1.5174  0.6777
15532TIP3    H268012   3.866   5.541   1.992 -0.2937  0.7016  0.7071
15533TIP3   OH268013   5.687   5.104  11.959 -0.3705  0.4094  0.9049
15533TIP3    H168014   5.682   5.023  11.909  1.7254  1.4993 -1.2481
15533TIP3    H268015   5.616   5.159  11.924 -0.0386  0.5119  0.3889
15534TIP3   OH268016   2.076   0.060   5.423  0.0018  0.3582  0.1747
15534TIP3    H168017   2.068  -0.020   5.475 -0.9871  2.2386  3.1531
15534TIP3    H268018   2.000   0.058   5.364  0.1049 -0.9628  0.0625
15535TIP3   OH268019   3.406   5.794   2.956  0.8106  0.1928 -0.8282
15535TIP3    H168020   3.380   5.876   2.998  0.4757  0.5057 -1.6109
15535TIP3    H268021   3.451   5.822   2.876  0.6173 -0.3820 -1.1417
15536TIP3   OH268022   1.169   0.357   2.588 -0.0984  0.4116  0.0286
15536TIP3    H168023   1.240   0.369   2.651 -0.6158  0.9547  0.5212
15536TIP3    H268024   1.165   0.441   2.541 -0.7732  0.5878  0.3859
15537TIP3   OH268025   6.536   6.439   2.131  0.0524  0.1798 -0.0013
15537TIP3    H168026   6.490   6.366   2.091  0.5843  0.3684 -0.9868
15537TIP3    H268027   6.475   6.472   2.198 -1.7145  1.0574 -1.9140
15538TIP3   OH268028   4.925   4.243   1.063 -0.1903 -0.1663  0.6020
15538TIP3    H168029   4.861   4.194   1.115  1.5882 -1.0973  2.0248
15538TIP3    H268030   4.872   4.297   1.004 -2.2552 -1.2605  1.3674
15539TIP3   OH268031   2.406   0.161  11.286 -0.7755 -0.5375  0.4794
15539TIP3    H168032   2.428   0.111  11.207 -0.3167 -1.7580  1.3609
15539TIP3    H268033   2.483   0.154  11.341 -1.7354 -1.1920  1.7862
15540TIP3   OH268034   0.117   4.895  13.029 -0.3660  0.3076  0.2749
15540TIP3    H168035   0.094   4.849  13.109  0.3986  2.2296  1.6996
15540TIP3    H268036   0.033   4.927  12.995 -0.8138 -1.4013 -0.3250
15541TIP3   OH268037   3.924   1.359  10.450 -0.2117 -0.5155 -0.0073
15541TIP3    H168038   3.896   1.348  10.360 -1.3061 -1.4612  0.4266
15541TIP3    H268039   3.870   1.298  10.500 -0.8951  1.2266  1.5184
15542TIP3   OH268040   2.013   3.978   5.699  0.4642 -0.5095  0.2319
15542TIP3    H168041   1.980   3.914   5.762  1.1327  0.7608  1.9599
15542TIP3    H268042   2.097   3.943   5.670  0.5710 -0.6746  0.7455
15543TIP3   OH268043   1.864   0.607   3.004  1.2541 -0.6359 -0.4049
15543TIP3    H168044   1.946   0.638   3.043  0.0447  0.4696  1.3877
15543TIP3    H268045   1.839   0.531   3.057  0.6759 -0.4149 -0.3504
15544TIP3   OH268046   4.431   0.117  13.511  0.4236  0.1432  0.4784
15544TIP3    H168047   4.516   0.088  13.543 -0.1796 -1.8816  0.3798
15544TIP3    H268048   4.407   0.054  13.444 -1.8534 -0.3036  1.6011
15545TIP3   OH268049   4.072   4.831   4.360 -0.4797 -0.0135  0.4279
15545TIP3    H168050   4.049   4.903   4.301 -0.2079  0.9353  1.4543
15545TIP3    H268051   3.994   4.775   4.361 -1.1443  0.8901  0.5367
15546TIP3   OH268052   1.349   4.454   0.977  0.2389  0.0736 -0.3007
15546TIP3    H168053   1.313   4.523   0.922  0.5896 -0.6338 -1.4525
15546TIP3    H268054   1.444   4.469   0.976  0.1879  0.6401  0.9480
15547TIP3   OH268055   4.343   5.517  14.840 -0.2713  0.0339 -0.3056
15547TIP3    H168056   4.288   5.543  14.766  0.2050  1.4244 -0.1995
15547TIP3    H268057   4.433   5.524  14.806 -0.0953 -0.3799  0.0794
15548TIP3   OH268058   0.841   1.380   2.824  0.1022  0.4348 -0.5041
15548TIP3    H168059   0.904   1.375   2.896 -1.6117 -0.9075  1.0099
15548TIP3    H268060   0.848   1.295   2.780  0.7874  1.0651 -1.6567
15549TIP3   OH268061   4.146   3.461  11.643  0.1187 -0.2235 -0.2171
15549TIP3    H168062   4.172   3.543  11.600 -1.4456  0.6966  0.4859
15549TIP3    H268063   4.170   3.393  11.581  0.5357  0.8453 -1.2787
15550TIP3   OH268064   6.293   3.920  17.027  0.3868  0.1788  0.1201
15550TIP3    H168065   6.224   3.967  17.074  0.2253  0.0209  0.0398
15550TIP3    H268066   6.247   3.855  16.974  0.2413  2.6585 -3.0964
15551TIP3   OH268067   3.040   1.171   3.810 -0.2857  0.1606 -0.4218
15551TIP3    H168068   3.004   1.179   3.899  0.9339  0.7034  0.0456
15551TIP3    H268069   3.094   1.092   3.813  0.0490  0.3785 -0.5610
15552TIP3   OH268070   2.991   4.088  15.293  0.8450  0.0556 -0.7670
15552TIP3    H168071   3.061   4.118  15.234  1.4303  0.4245  0.0873
15552TIP3    H268072   2.917   4.070  15.236  0.5793  2.7614 -1.4048
15553TIP3   OH268073   4.389   2.756   4.651 -0.2349 -0.9873 -0.1618
15553TIP3    H168074   4.478   2.748   4.618 -0.9477  0.0665 -2.5442
15553TIP3    H268075   4.382   2.689   4.720  2.5460 -0.6425  0.5519
15554TIP3   OH268076   3.465   3.927   5.161  0.0778  0.4011 -0.3661
15554TIP3    H168077   3.399   3.945   5.228 -0.0305  0.9971 -0.6204
15554TIP3    H268078   3.428   3.855   5.110 -0.7329  1.1917 -0.9447
15555TIP3   OH268079   5.484   4.909  13.568  0.4202 -0.3991 -0.7926
15555TIP3    H168080   5.503   4.900  13.475  1.6387  1.5074 -0.8040
15555TIP3    H268081   5.476   5.004  13.581 -1.7992 -0.7095  0.6910
15556TIP3   OH268082   1.068   2.866   2.907 -0.0499  0.6384 -0.2475
15556TIP3    H168083   1.007   2.795   2.884 -0.8573  1.2092  0.0567
15556TIP3    H268084   1.141   2.823   2.950 -0.0358 -0.1126 -0.9941
15557TIP3   OH268085   1.028   2.602  13.632  0.8051  0.3352  0.1028
15557TIP3    H168086   1.015   2.542  13.559 -0.8381  0.3414  0.3609
15557TIP3    H268087   0.996   2.686  13.601  0.0982  0.3431  0.8175
15558TIP3   OH268088   3.850   4.593   5.879 -0.4870  0.6385 -0.3415
15558TIP3    H168089   3.817   4.551   5.799 -3.7951  1.5168  0.4587
15558TIP3    H268090   3.775   4.597   5.937  1.5170  1.2066  2.3833
15559TIP3   OH268091   4.210   3.968   4.600  0.6796  0.1979 -0.3292
15559TIP3    H168092   4.186   3.878   4.575 -0.5123  0.5676 -0.5376
15559TIP3    H268093   4.175   4.022   4.530  0.1124  0.9670  0.5393
15560TIP3   OH268094   2.757   3.766   3.476 -0.1190 -0.5763 -0.7593
15560TIP3    H168095   2.696   3.753   3.548 -1.4797  1.0926 -1.5438
15560TIP3    H268096   2.840   3.732   3.509 -0.7986 -0.2689  1.4385
15561TIP3   OH268097   5.370   2.622   6.468  0.2778 -0.4894  0.2906
15561TIP3    H168098   5.462   2.638   6.486  0.3889 -0.1075 -0.5427
15561TIP3    H268099   5.339   2.569   6.541  1.5827 -2.1227 -0.2949
15562TIP3   OH268100   5.531   3.492   1.302 -0.3140 -0.4674  0.0228
15562TIP3    H168101   5.446   3.505   1.260  0.1967 -0.0721 -0.9238
15562TIP3    H268102   5.586   3.456   1.233  1.6672  3.7929 -0.9854
15563TIP3   OH268103   3.712   2.336   0.114  0.7438 -0.6548  0.2409
15563TIP3    H168104   3.704   2.249   0.073  0.0484 -0.3208 -0.3560
15563TIP3    H268105   3.634   2.343   0.169 -0.2606  0.3622 -1.2349
15564TIP3   OH268106   0.034   1.291  16.893 -0.0979 -0.6465 -0.1446
15564TIP3    H168107   0.086   1.243  16.957 -1.8561 -0.6596  1.3455
15564TIP3    H268108  -0.027   1.226  16.858 -2.7700  0.3828  2.1676
15565TIP3   OH268109   1.962   0.173  10.381 -0.3156 -0.0736  0.5614
15565TIP3    H168110   2.033   0.227  10.416  0.5148 -0.8585  0.1378
15565TIP3    H268111   1.966   0.092  10.432 -0.8851 -0.1428  0.5045
15566TIP3   OH268112   0.631   1.208  12.289 -0.3796 -0.5211  0.2456
15566TIP3    H168113   0.673   1.231  12.372  1.9583 -0.8728 -0.7470
15566TIP3    H268114   0.559   1.150  12.314  0.0153 -0.2954  2.0567
15567TIP3   OH268115   2.300   3.216  13.630  0.0750  0.3348 -0.0045
15567TIP3    H168116   2.217   3.169  13.621 -0.2406  0.9979 -0.7002
15567TIP3    H268117   2.367   3.149  13.622 -0.3749 -0.0406 -0.6961
15568TIP3   OH268118   5.871   6.268  11.115 -0.3321  0.2028  0.7063
15568TIP3    H168119   5.908   6.356  11.120 -0.2042  0.0908  2.2799
15568TIP3    H268120   5.945   6.210  11.135 -0.5271 -0.2542  0.1639
15569TIP3   OH268121   4.427   0.531   6.211  0.3201  0.0680  0.6142
15569TIP3    H168122   4.336   0.501   6.213 -0.2263  0.8432 -3.3971
15569TIP3    H268123   4.478   0.450   6.205 -0.4021 -0.3325 -0.4765
15570TIP3   OH268124   0.537   5.641   0.899  0.3767 -0.5747 -0.4480
15570TIP3    H168125   0.522   5.713   0.960  0.3841  0.6248 -1.8142
15570TIP3    H268126   0.450   5.605   0.882  0.1372  0.3606 -1.2326
15571TIP3   OH268127   5.263   0.287  11.613 -0.2425  0.0406 -0.2060
15571TIP3    H168128   5.223   0.324  11.692  2.2855 -1.2229  1.8543
15571TIP3    H268129   5.224   0.200  11.604 -0.3748  0.1018 -0.2245
15572TIP3   OH268130   1.569   1.714   3.190  0.2627 -0.5804  0.0482
15572TIP3    H168131   1.505   1.647   3.216 -0.1839  0.7049  2.5309
15572TIP3    H268132   1.516   1.791   3.169  0.7760 -0.8519 -2.7486
15573TIP3   OH268133   0.668   3.838  15.436  0.6796 -0.0865 -0.3367
15573TIP3    H168134   0.729   3.860  15.365  1.1332 -0.0323  0.0681
15573TIP3    H268135   0.589   3.809  15.391  1.0537 -0.2979 -0.8669
15574TIP3   OH268136   0.363   5.199   4.914 -0.1440  0.0209 -0.2371
15574TIP3    H168137   0.397   5.249   4.988 -0.1861  1.2327 -1.0119
15574TIP3    H268138   0.391   5.110   4.930 -0.9492  0.0694  1.7306
15575TIP3   OH268139   3.690   1.251  14.993 -0.1178 -0.3490 -0.2834
15575TIP3    H168140   3.664   1.159  14.991  2.6655 -1.2235  0.1302
15575TIP3    H268141   3.779   1.252  14.958  0.8725  1.8109  1.9793
15576TIP3   OH268142   0.947   3.938  15.525  0.3506 -0.6369 -0.1087
15576TIP3    H168143   0.896   4.019  15.531 -0.2633 -0.9603 -0.7219
15576TIP3    H268144   0.901   3.877  15.582 -0.5786 -1.2265 -1.4207
15577TIP3   OH268145   2.589   4.134   0.711 -0.2676 -0.1019  0.3077
15577TIP3    H168146   2.577   4.229   0.706  1.1368  0.0570 -0.2713
15577TIP3    H268147   2.525   4.099   0.649  0.4471  0.5764 -0.8518
15578TIP3   OH268148   3.172   0.197  15.460 -0.3779  0.0969  0.1100
15578TIP3    H168149   3.207   0.197  15.549 -0.0536  0.2757 -0.0123
15578TIP3    H268150   3.245   0.167  15.406 -0.4430  0.3755 -0.1387
15579TIP3   OH268151   6.491   2.711   3.016 -0.5042 -0.2270  0.8445
15579TIP3    H168152   6.499   2.752   3.102  0.3847  1.9904 -0.2242
15579TIP3    H268153   6.453   2.779   2.960 -0.0675 -1.2421 -0.7587
15580TIP3   OH268154   6.542   4.144  12.472 -0.0195 -0.2779 -0.0293
15580TIP3    H168155   6.599   4.068  12.466 -1.4154 -1.5596  1.9372
15580TIP3    H268156   6.565   4.185  12.556  0.1626  1.0411 -0.6958
15581TIP3   OH268157   5.776   0.675   5.587  0.3750  0.0950 -0.9249
15581TIP3    H168158   5.791   0.635   5.501  1.2657 -1.1752 -0.2149
15581TIP3    H268159   5.711   0.618   5.629  0.3373  0.4032 -0.5601
15582TIP3   OH268160   4.782   3.716   5.136 -0.2695  0.5782  0.5269
15582TIP3    H168161   4.801   3.784   5.071  1.9998 -2.1183 -1.9720
15582TIP3    H268162   4.864   3.704   5.183  0.0347 -1.5967 -0.4269
15583TIP3   OH268163   3.339   3.758  13.807 -0.4717 -0.4856  0.0803
15583TIP3    H168164   3.386   3.796  13.732 -2.5997  2.5265  0.0769
15583TIP3    H268165   3.301   3.677  13.772  2.0504 -1.4138 -0.7576
15584TIP3   OH268166   1.488   2.593   0.191  0.1233 -0.6537  0.3682
15584TIP3    H168167   1.553   2.621   0.255  0.8258  0.4169 -0.7761
15584TIP3    H268168   1.440   2.522   0.235 -1.5453  2.0440  3.2792
15585TIP3   OH268169   0.145   0.798  11.797  0.2920  0.4062  0.3433
15585TIP3    H168170   0.052   0.817  11.784  0.3018  0.3511  0.1885
15585TIP3    H268171   0.179   0.874  11.844  0.3270  0.7578 -0.2445
15586TIP3   OH268172   3.051   5.468  13.302  0.0346  0.2522  0.3017
15586TIP3    H168173   3.132   5.494  13.259  1.3514 -0.8049  1.9834
15586TIP3    H268174   3.033   5.539  13.364  0.8777 -0.4350  1.3852
15587TIP3   OH268175   1.145   4.201   3.289  0.2531 -0.1816  0.0925
15587TIP3    H168176   1.124   4.293   3.274  0.1103 -0.1409  0.5375
15587TIP3    H268177   1.094   4.177   3.366 -0.2203 -0.8137 -0.3981
15588TIP3   OH268178   2.774   5.124   2.537  0.2548 -0.3320 -0.0495
15588TIP3    H168179   2.686   5.096   2.560  1.2438 -1.4242  2.9566
15588TIP3    H268180   2.801   5.067   2.465 -1.1973 -0.4570 -0.5103
15589TIP3   OH268181   5.819   0.798  11.072  0.2482  0.2095 -0.2197
15589TIP3    H168182   5.863   0.802  11.157  1.8922 -0.8134 -0.9648
15589TIP3    H268183   5.829   0.707  11.045  0.7145  0.7487 -1.9744
15590TIP3   OH268184   0.196   5.613   1.703  0.2955 -0.3881  0.4644
15590TIP3    H168185   0.213   5.523   1.674  1.1555 -0.0590 -0.0991
15590TIP3    H268186   0.108   5.632   1.670 -0.1218 -1.1901  1.0486
15591TIP3   OH268187   1.420   0.732  11.912  0.1342  0.0565  0.0557
15591TIP3    H168188   1.474   0.801  11.951 -1.5122  0.6488  1.4065
15591TIP3    H268189   1.390   0.769  11.829 -1.0258  1.1765  0.9278
15592TIP3   OH268190   1.119   0.455   5.253 -0.7255 -0.3833 -0.1236
15592TIP3    H168191   1.183   0.525   5.253 -0.6991 -0.4052 -0.7409
15592TIP3    H268192   1.036   0.498   5.233 -0.5617 -0.6482 -1.4633
15593TIP3   OH268193   6.231   1.057   3.207 -0.1225  0.2285 -0.3322
15593TIP3    H168194   6.232   1.135   3.152  0.1407  2.0284  2.0268
15593TIP3    H268195   6.218   1.091   3.296 -0.5079 -2.4787  0.7470
15594TIP3   OH268196   1.730   4.205   1.897  0.1666  0.7282  0.1518
15594TIP3    H168197   1.712   4.296   1.923  1.4036  1.5360 -1.5875
15594TIP3    H268198   1.825   4.201   1.888  0.0216 -0.2944 -1.2831
15595TIP3   OH268199   0.411   6.668  14.488 -0.2601  0.1595  0.0383
15595TIP3    H168200   0.475   6.636  14.425 -0.6469  0.5627 -0.5701
15595TIP3    H268201   0.333   6.687  14.436 -1.4579 -1.8533  0.9790
15596TIP3   OH268202   5.748   3.619  12.757 -0.1657  0.2409  0.0605
15596TIP3    H168203   5.755   3.681  12.830 -0.3425  0.2404  0.0772
15596TIP3    H268204   5.826   3.564  12.765 -0.3324  0.0535  0.4241
15597TIP3   OH268205   6.175   2.021  14.397  0.6183 -0.1324  0.5050
15597TIP3    H168206   6.103   1.959  14.411 -0.9726  1.9526  2.1466
15597TIP3    H268207   6.159   2.058  14.310  1.1856 -1.4622 -0.1922
15598TIP3   OH268208   0.188   6.159   5.306  0.0577  0.0284  0.4167
15598TIP3    H168209   0.108   6.195   5.346  0.5833 -0.7808  2.3399
15598TIP3    H268210   0.187   6.067   5.331  0.8167 -0.3531 -0.9062
15599TIP3   OH268211   1.598   6.747   1.083 -0.3442  0.5024  0.0117
15599TIP3    H168212   1.633   6.693   1.012 -2.1578  0.1925 -0.7042
15599TIP3    H268213   1.675   6.779   1.129  0.9058  0.5980 -2.0258
15600TIP3   OH268214   6.298   6.269   5.082  0.7879  0.3499 -0.0305
15600TIP3    H168215   6.302   6.225   5.167  0.8802  1.6689  0.6912
15600TIP3    H268216   6.205   6.281   5.065  0.7283 -0.9553 -0.7016
15601TIP3   OH268217   2.725   5.811   1.122  0.2603  0.6640 -0.6280
15601TIP3    H168218   2.778   5.766   1.188 -0.3974 -1.4552 -1.4512
15601TIP3    H268219   2.645   5.835   1.168 -0.3188 -1.0587 -0.6499
15602TIP3   OH268220   5.041   4.855   1.919  0.1543 -0.3420  0.1763
15602TIP3    H168221   5.058   4.944   1.887 -0.4552  0.1535  1.1796
15602TIP3    H268222   4.946   4.845   1.910 -0.0978 -0.0361  2.1367
15603TIP3   OH268223   0.032   4.552  12.537 -0.1316 -0.2198 -0.1510
15603TIP3    H168224  -0.048   4.585  12.497  0.5867  2.0197  0.1289
15603TIP3    H268225   0.101   4.574  12.474  0.7848  1.7575  1.4441
15604TIP3   OH268226   5.791   2.781  14.873  0.0646  0.2443  0.0827
15604TIP3    H168227   5.865   2.795  14.814 -1.1034  0.2015 -1.4612
15604TIP3    H268228   5.720   2.830  14.834 -0.7396  0.2911  1.5422
15605TIP3   OH268229   3.200   0.354  13.752 -0.4188  0.0898 -0.4575
15605TIP3    H168230   3.162   0.298  13.684  1.0138 -0.0050 -1.2166
15605TIP3    H268231   3.181   0.308  13.834 -0.6595 -0.6934 -0.9380
15606TIP3   OH268232   2.450   0.444  12.924  0.1648 -0.7572 -0.4107
15606TIP3    H168233   2.433   0.391  12.846 -2.6311  1.2037 -1.2609
15606TIP3    H268234   2.375   0.428  12.981  0.0111  1.0975 -0.0350
15607TIP3   OH268235   1.369   2.395   0.308 -0.0440 -0.6438 -0.7247
15607TIP3    H168236   1.354   2.325   0.372 -0.1870  2.6421  3.1827
15607TIP3    H268237   1.303   2.379   0.241  1.0481 -5.1466 -1.0822
15608TIP3   OH268238   6.040   3.534   2.142  0.1703 -0.2108  0.0443
15608TIP3    H168239   6.002   3.448   2.159  0.0382 -0.4711 -1.3957
15608TIP3    H268240   6.025   3.583   2.222 -2.2440 -0.6610 -0.0362
15609TIP3   OH268241   3.865   0.769  14.048  0.6112  0.2785  1.1032
15609TIP3    H168242   3.954   0.739  14.067  1.2520  1.1325 -0.3539
15609TIP3    H268243   3.809   0.709  14.097  1.9268 -1.4625  0.5970
15610TIP3   OH268244   0.507   4.320  13.842 -0.3942 -0.1217  0.0630
15610TIP3    H168245   0.412   4.322  13.831 -0.3626  1.6112 -0.2158
15610TIP3    H268246   0.531   4.227  13.834 -2.0900 -0.6264  0.5416
15611TIP3   OH268247   3.132   2.920   0.448  0.2000  0.1882  0.3619
15611TIP3    H168248   3.076   2.911   0.371 -0.5534 -0.5578  0.9801
15611TIP3    H268249   3.120   2.838   0.496  0.5979  0.6816  1.3178
15612TIP3   OH268250   0.363   1.645   5.829  0.5128 -0.0468 -0.3664
15612TIP3    H168251   0.422   1.575   5.801 -1.6783 -1.6397 -1.2985
15612TIP3    H268252   0.319   1.610   5.907 -0.1246  0.5443 -0.4505
15613TIP3   OH268253   2.679   4.532   6.070 -0.4292  0.0949  0.3991
15613TIP3    H168254   2.729   4.605   6.108  2.2572 -2.3319  1.9893
15613TIP3    H268255   2.617   4.508   6.139 -2.0248  1.3790 -0.5125
15614TIP3   OH268256   3.027   4.650   1.686 -0.0892 -0.0737  0.1709
15614TIP3    H168257   2.980   4.668   1.605  0.2568  0.0225 -0.0097
15614TIP3    H268258   3.108   4.699   1.678 -0.5909  0.9272  1.1235
15615TIP3   OH268259   6.780   3.617   0.854  0.2085  0.0105 -0.0235
15615TIP3    H168260   6.809   3.552   0.790 -0.2114 -0.6606  0.4698
15615TIP3    H268261   6.858   3.635   0.907 -0.2431 -1.8839  1.3772
15616TIP3   OH268262   5.090   2.913  15.019 -0.1885 -0.5044 -0.1592
15616TIP3    H168263   5.143   2.956  15.085  1.7532 -3.6315  0.5093
15616TIP3    H268264   5.001   2.917  15.053  0.1934  1.2535  0.7320
15617TIP3   OH268265   6.654   0.507  15.765 -0.0296 -0.3756 -0.4389
15617TIP3    H168266   6.600   0.539  15.693  0.1494 -1.7486 -1.2242
15617TIP3    H268267   6.743   0.533  15.742 -0.2145  1.1095  0.4125
15618TIP3   OH268268   3.832   1.123  12.347  0.1620 -0.2060  0.7600
15618TIP3    H168269   3.912   1.125  12.401 -0.2521 -1.9428  1.5016
15618TIP3    H268270   3.760   1.128  12.410 -0.3544 -3.1651  0.5690
15619TIP3   OH268271   1.154   2.686  14.102  0.3683 -0.0721  0.2428
15619TIP3    H168272   1.243   2.680  14.069  0.6348 -0.0114  0.9450
15619TIP3    H268273   1.108   2.741  14.038  0.5180 -1.0781 -0.7612
15620TIP3   OH268274   3.296   3.640   1.809  0.2231 -0.0935 -0.1755
15620TIP3    H168275   3.382   3.607   1.835  0.8678  0.7708 -1.1680
15620TIP3    H268276   3.310   3.683   1.725 -1.3030 -0.4602 -0.6621
15621TIP3   OH268277   6.643   2.486   4.672 -0.2323 -0.4157  0.5404
15621TIP3    H168278   6.587   2.412   4.694 -3.0769  1.8763  1.7764
15621TIP3    H268279   6.683   2.512   4.755 -0.2036  0.1021  0.3736
15622TIP3   OH268280   6.442   3.086  16.845  0.1022 -0.3757  0.1226
15622TIP3    H168281   6.363   3.066  16.895  0.7353  0.3343  1.4760
15622TIP3    H268282   6.441   3.181  16.837  0.8181 -0.3619  0.1579
15623TIP3   OH268283   4.979   1.729  15.871 -0.1078 -0.4164  0.1436
15623TIP3    H168284   4.984   1.721  15.966  2.4726  0.6140  0.1647
15623TIP3    H268285   4.886   1.720  15.851 -0.8149  0.1735  2.8218
15624TIP3   OH268286   0.074   1.325   5.504 -0.3120 -0.0294  0.0459
15624TIP3    H168287   0.035   1.345   5.589 -1.5541  0.9467 -0.7322
15624TIP3    H268288   0.102   1.410   5.470 -0.8466 -0.2705 -1.0094
15625TIP3   OH268289   0.967   1.292   4.196  0.0418  0.5012 -0.3113
15625TIP3    H168290   0.930   1.373   4.159 -0.5068  0.9927  1.2244
15625TIP3    H268291   1.053   1.318   4.228  0.1555  0.2923 -0.4442
15626TIP3   OH268292   5.514   4.586  11.897  0.0496  0.1083  0.0041
15626TIP3    H168293   5.481   4.560  11.984  0.6164 -0.7553 -0.0209
15626TIP3    H268294   5.438   4.578  11.839 -0.3579  0.7899  0.4288
15627TIP3   OH268295   1.173   1.621   5.047 -0.0655  0.0497 -0.1971
15627TIP3    H168296   1.194   1.694   5.106  0.5526  0.1515 -0.5261
15627TIP3    H268297   1.132   1.556   5.103 -0.9312  0.7819  0.0402
15628TIP3   OH268298   0.308   2.767  15.139 -0.3010  0.6132  0.0765
15628TIP3    H168299   0.350   2.755  15.054  0.0952 -2.0353  0.5731
15628TIP3    H268300   0.371   2.817  15.190  0.7802 -0.3683 -0.2601
15629TIP3   OH268301   1.506   1.074  11.174 -0.0757  0.1306  0.0265
15629TIP3    H168302   1.602   1.069  11.165 -0.1356  0.2734 -0.7276
15629TIP3    H268303   1.473   1.018  11.105 -0.5550  1.1726 -0.6189
15630TIP3   OH268304   5.877   4.040  15.955  0.3372 -0.2576 -0.3048
15630TIP3    H168305   5.823   3.974  15.998  1.2471  0.1192  1.5434
15630TIP3    H268306   5.966   4.005  15.958  0.6233  0.4167 -0.5823
15631TIP3   OH268307   1.190   1.283  11.162 -0.0374 -0.0154 -0.0779
15631TIP3    H168308   1.154   1.205  11.121  1.4943 -0.6639 -0.2276
15631TIP3    H268309   1.275   1.296  11.121  1.3314 -0.3715  2.4089
15632TIP3   OH268310   6.427   3.660   5.780 -0.4145  0.2728 -0.2226
15632TIP3    H168311   6.413   3.578   5.827  0.2894 -0.3156 -1.0238
15632TIP3    H268312   6.473   3.715   5.844  1.3169 -0.8220 -0.4452
15633TIP3   OH268313   4.636   1.765  16.152 -0.2569  0.0198 -0.0724
15633TIP3    H168314   4.656   1.803  16.238 -0.4323 -0.7433  0.3201
15633TIP3    H268315   4.637   1.839  16.092  1.3220  0.3580  0.3339
15634TIP3   OH268316   0.618   5.351   2.989 -0.7311 -0.5852 -0.1082
15634TIP3    H168317   0.573   5.357   2.904  1.6471  0.7164 -1.3642
15634TIP3    H268318   0.619   5.441   3.021 -0.0980 -0.8000  0.4819
15635TIP3   OH268319   1.663   5.839   0.881 -0.0770 -0.0312  0.4392
15635TIP3    H168320   1.672   5.900   0.808  2.1572 -0.4339  0.2941
15635TIP3    H268321   1.646   5.894   0.957  0.5581  0.6761  0.0820
15636TIP3   OH268322   0.625   0.910   3.437 -0.1411  0.8068  0.2578
15636TIP3    H168323   0.631   0.957   3.354 -1.3092  0.8420  0.1762
15636TIP3    H268324   0.714   0.910   3.471  0.2159  1.4424 -0.6373
15637TIP3   OH268325   6.089   0.996   4.958  0.6985  0.3646  0.4646
15637TIP3    H168326   6.145   0.980   4.882  0.8816 -0.6236  0.8029
15637TIP3    H268327   6.145   0.983   5.034 -0.0348 -0.9383  0.8157
15638TIP3   OH268328   4.907   5.047   3.849  0.5033 -0.0408 -0.1182
15638TIP3    H168329   4.905   5.045   3.945 -0.4859  2.0799 -0.0455
15638TIP3    H268330   4.834   4.990   3.822 -0.6325  1.0937  0.4718
15639TIP3   OH268331   2.795   0.085  16.332 -0.1950 -0.3800 -0.6733
15639TIP3    H168332   2.757   0.017  16.278 -1.0849  0.3001 -0.9250
15639TIP3    H268333   2.736   0.091  16.408 -1.7300  1.9305 -1.9265
15640TIP3   OH268334   2.233   5.548  13.834  0.5032 -0.2300  0.5438
15640TIP3    H168335   2.238   5.507  13.748  2.0001  3.0281 -1.0775
15640TIP3    H268336   2.140   5.564  13.848  0.2581 -0.5944 -0.5955
15641TIP3   OH268337   5.350   5.360  14.851  0.3096  0.4426  0.4964
15641TIP3    H168338   5.313   5.281  14.811 -0.1177  0.1957  1.3690
15641TIP3    H268339   5.334   5.428  14.786  1.0091 -0.2478 -0.4339
15642TIP3   OH268340   4.347   4.267   1.388 -0.1813  0.4035  0.0155
15642TIP3    H168341   4.252   4.265   1.400 -0.1099 -0.8298  0.5425
15642TIP3    H268342   4.376   4.341   1.440 -0.6797 -0.3477  1.4250
15643TIP3   OH268343   6.510   5.093  15.849 -0.0629 -0.5053 -0.2301
15643TIP3    H168344   6.475   5.037  15.918 -0.2814 -0.5058 -0.3404
15643TIP3    H268345   6.453   5.076  15.773  0.2541 -0.6053 -0.4495
15644TIP3   OH268346   0.876   4.893  14.571  0.7232 -0.3927  0.0397
15644TIP3    H168347   0.881   4.987  14.552  0.8093 -0.2608  0.6713
15644TIP3    H268348   0.868   4.889  14.667  0.5362 -1.0235 -0.0004
15645TIP3   OH268349   5.221   0.673  14.171 -0.1053 -0.7223 -0.1635
15645TIP3    H168350   5.163   0.685  14.096 -1.5640  0.6085  1.1116
15645TIP3    H268351   5.235   0.761  14.205  1.8904 -1.1154  0.1874
15646TIP3   OH268352   4.540   5.015   3.742 -0.0011  0.0463 -0.5935
15646TIP3    H168353   4.597   5.039   3.815 -0.3772 -0.0196 -0.2766
15646TIP3    H268354   4.555   4.921   3.730 -0.6570 -0.1564  0.0450
15647TIP3   OH268355   0.499   2.033   6.224  0.3562  0.3174  0.2796
15647TIP3    H168356   0.498   1.938   6.236 -2.5514  0.1924 -0.2076
15647TIP3    H268357   0.439   2.066   6.291  0.2978  1.6753 -0.3996
15648TIP3   OH268358   3.700   5.458  12.760 -0.4811 -0.1594  0.7603
15648TIP3    H168359   3.761   5.389  12.784 -0.4029 -0.7701 -1.0350
15648TIP3    H268360   3.628   5.412  12.716 -0.4063  0.8688 -0.5153
15649TIP3   OH268361   2.587   1.965  12.134 -0.7896  0.8011  0.7039
15649TIP3    H168362   2.602   1.870  12.142 -0.0565  0.9987  1.9398
15649TIP3    H268363   2.605   1.985  12.042  2.5175  0.2933  1.1364
15650TIP3   OH268364   1.171   2.991   2.705 -0.0827 -0.2972  0.0236
15650TIP3    H168365   1.124   2.950   2.777 -0.4829  2.2579  1.3234
15650TIP3    H268366   1.115   3.063   2.677  0.3858 -0.7889 -2.4560
15651TIP3   OH268367   6.802   1.868  14.200 -0.1727 -0.1646  0.0275
15651TIP3    H168368   6.857   1.932  14.156 -0.7221 -0.6247 -1.3845
15651TIP3    H268369   6.851   1.842  14.278 -0.1161  2.2611  0.8792
15652TIP3   OH268370   1.945   4.439  13.054 -0.3485 -0.4419 -0.3444
15652TIP3    H168371   1.965   4.479  13.139 -3.3449  1.4481 -0.3547
15652TIP3    H268372   1.975   4.503  12.990 -2.1451  0.3468 -0.4719
15653TIP3   OH268373   0.727   1.939  16.788 -0.6378 -0.4999  0.6025
15653TIP3    H168374   0.822   1.940  16.775 -0.4586 -0.7040  1.7721
15653TIP3    H268375   0.693   2.002  16.725  0.3480  0.1356  0.6947
15654TIP3   OH268376   3.173   3.332  11.621  0.1682  0.3269  0.5136
15654TIP3    H168377   3.121   3.408  11.647  1.5570  0.9082  1.7626
15654TIP3    H268378   3.260   3.350  11.656  0.4658 -1.9842  1.1250
15655TIP3   OH268379   3.333   5.691   0.229  0.0707  0.6495 -0.5598
15655TIP3    H168380   3.316   5.679   0.322 -0.7091 -1.1935 -0.8966
15655TIP3    H268381   3.372   5.608   0.201 -0.0794  1.0240 -1.9492
15656TIP3   OH268382   1.500   0.072  13.913 -0.6483 -0.0091 -0.0024
15656TIP3    H168383   1.422   0.025  13.882 -0.9304  0.9149 -0.7538
15656TIP3    H268384   1.554   0.005  13.955 -1.4078 -0.8432 -0.3320
15657TIP3   OH268385   1.189   2.573  16.951 -0.1609  0.6979  0.1679
15657TIP3    H168386   1.267   2.549  16.901  0.2217  1.8131  0.2047
15657TIP3    H268387   1.127   2.503  16.933  0.7182 -0.0253 -0.1550
15658TIP3   OH268388   5.769   4.339  12.389  0.3023  0.0578  0.6805
15658TIP3    H168389   5.858   4.330  12.356  0.7963  2.9361  1.0273
15658TIP3    H268390   5.776   4.314  12.481  0.4700 -0.7717  0.4603
15659TIP3   OH268391   4.070   3.676   3.849 -0.1463  0.0906  0.3336
15659TIP3    H168392   4.069   3.641   3.938  1.4882 -1.3999 -0.1831
15659TIP3    H268393   3.988   3.725   3.842 -0.5168 -0.1214  2.5008
15660TIP3   OH268394   6.150   6.277  17.038 -0.0667  0.6244  0.7334
15660TIP3    H168395   6.151   6.355  16.982 -1.7064 -1.8978 -3.2591
15660TIP3    H268396   6.223   6.224  17.006 -1.8247 -1.4544 -0.0907
15661TIP3   OH268397   4.048   5.379   3.138  0.1421 -0.5625 -0.0042
15661TIP3    H168398   3.998   5.405   3.060  0.9752  0.2175 -0.2950
15661TIP3    H268399   4.085   5.460   3.171  2.0776 -1.2246 -0.4028
15662TIP3   OH268400   5.448   1.828  15.101 -1.0190 -0.0643  0.0350
15662TIP3    H168401   5.360   1.804  15.130 -0.6214 -0.6986  0.7583
15662TIP3    H268402   5.505   1.797  15.171 -0.4027  2.6389  0.8126
15663TIP3   OH268403   1.295   3.827   6.214 -0.4445  0.2699 -1.2580
15663TIP3    H168404   1.354   3.884   6.264 -1.2028  0.3064 -0.3867
15663TIP3    H268405   1.214   3.878   6.205 -0.5712 -0.0322 -1.8976
15664TIP3   OH268406   6.608   4.496   1.254 -0.1524 -0.9102  0.2774
15664TIP3    H168407   6.619   4.443   1.175 -1.9968 -2.7688  1.1788
15664TIP3    H268408   6.659   4.450   1.321  2.3469  1.2607  0.0569
15665TIP3   OH268409   4.516   6.160   3.123 -0.4347  0.8573 -0.4894
15665TIP3    H168410   4.539   6.087   3.065  1.1866  0.7703  0.2148
15665TIP3    H268411   4.488   6.230   3.064 -0.1794  0.2994 -1.2835
15666TIP3   OH268412   5.893   4.239  16.307 -0.4943 -0.4083  0.0492
15666TIP3    H168413   5.924   4.149  16.302 -0.5434 -0.4686  0.7537
15666TIP3    H268414   5.845   4.243  16.390  0.4966  0.5607  0.6047
15667TIP3   OH268415   4.559   1.165  12.940  0.4250 -0.1635  0.0571
15667TIP3    H168416   4.601   1.211  13.012 -0.1375 -1.0733  0.9790
15667TIP3    H268417   4.616   1.089  12.923  0.4718 -0.0404 -0.3605
15668TIP3   OH268418   1.638   2.391  16.373  0.2301  0.2498  0.0891
15668TIP3    H168419   1.673   2.334  16.304 -2.0115  0.7919 -1.6525
15668TIP3    H268420   1.649   2.480  16.339  0.7350  0.6671  1.2906
15669TIP3   OH268421   3.111   3.865   1.643  0.0442  0.0733 -0.1686
15669TIP3    H168422   3.113   3.842   1.736  0.3194 -0.8393 -0.3999
15669TIP3    H268423   3.203   3.862   1.615 -0.0154  0.5298 -0.4290
15670TIP3   OH268424   1.376   4.671   2.066  0.4941 -0.2495  0.1872
15670TIP3    H168425   1.439   4.725   2.018 -0.4164  0.0025 -0.7588
15670TIP3    H268426   1.360   4.597   2.008 -1.1531  0.4095 -0.2641
15671TIP3   OH268427   6.532   0.939   5.616  0.0784  0.6111 -0.0231
15671TIP3    H168428   6.446   0.929   5.576  0.5324  0.3081 -0.9556
15671TIP3    H268429   6.578   1.001   5.560  0.3623  1.0045  0.6418
15672TIP3   OH268430   2.677   5.771  15.390 -0.1308 -0.4462 -0.1624
15672TIP3    H168431   2.654   5.742  15.302  2.6937  0.0122 -1.1498
15672TIP3    H268432   2.753   5.718  15.415 -0.9916 -0.7361  2.1504
15673TIP3   OH268433   0.851   5.510   5.722  0.1876  0.4756 -0.4744
15673TIP3    H168434   0.869   5.459   5.801  1.0211  2.5150  0.7372
15673TIP3    H268435   0.834   5.598   5.754 -0.1369  1.2090 -2.5462
15674TIP3   OH268436   1.850   3.135   4.217 -0.1802 -0.0743  0.0125
15674TIP3    H168437   1.881   3.222   4.190 -2.2190  0.6494 -0.1629
15674TIP3    H268438   1.909   3.074   4.173 -0.0136  1.1867 -1.6232
15675TIP3   OH268439   3.808   4.935   6.014 -0.0108 -0.0808  0.2244
15675TIP3    H168440   3.879   4.994   6.039  0.2726 -0.8446  1.3132
15675TIP3    H268441   3.776   4.899   6.097 -1.0778 -0.4238 -0.3173
15676TIP3   OH268442   0.015   5.552   6.041 -0.0644  0.0278  0.5895
15676TIP3    H168443  -0.051   5.491   6.007 -0.5834  1.2508 -0.6628
15676TIP3    H268444  -0.035   5.626   6.074  0.6450  0.7255  0.1373
15677TIP3   OH268445   0.437   4.755   0.298  0.2663  0.0789  0.0677
15677TIP3    H168446   0.450   4.849   0.286  2.1563 -0.0959  0.5092
15677TIP3    H268447   0.421   4.745   0.392  0.2333 -0.0605  0.0470
15678TIP3   OH268448   0.576   3.476  15.834  0.4237  0.3022  0.2672
15678TIP3    H168449   0.610   3.544  15.891  2.6767  0.4336 -1.0936
15678TIP3    H268450   0.577   3.516  15.747 -0.7180 -0.6295 -0.1955
15679TIP3   OH268451   1.926   5.954   4.595  0.3434  0.0581  0.5778
15679TIP3    H168452   1.997   5.921   4.650 -0.4021 -1.7453  0.5449
15679TIP3    H268453   1.948   5.924   4.507 -0.5612 -0.7441  0.6093
15680TIP3   OH268454   3.006   3.172   2.551 -0.4576 -0.5935  0.5915
15680TIP3    H168455   3.070   3.217   2.495 -0.1165 -2.4786 -0.6359
15680TIP3    H268456   2.940   3.239   2.571  0.5384  0.7037 -0.2768
15681TIP3   OH268457   5.535   1.610  11.893  0.6108  0.6480 -0.2014
15681TIP3    H168458   5.579   1.693  11.910  0.1852  0.9652 -0.6153
15681TIP3    H268459   5.455   1.635  11.846 -0.3857  0.1536  1.1750
15682TIP3   OH268460   1.071   2.139   4.797 -0.5345  0.3465  0.2010
15682TIP3    H168461   1.160   2.118   4.825 -0.5273 -0.6493 -0.4987
15682TIP3    H268462   1.049   2.220   4.843  1.0980  1.1519 -0.3829
15683TIP3   OH268463   4.959   5.014  15.354 -0.0815  0.6840 -0.4148
15683TIP3    H168464   4.903   5.030  15.430 -0.5557  1.1205 -0.8500
15683TIP3    H268465   5.047   5.036  15.384 -0.3341  1.3626 -0.1436
15684TIP3   OH268466   1.921   3.044  11.216 -0.2421  1.1270  0.7499
15684TIP3    H168467   2.015   3.044  11.235 -0.2857  0.7658  0.9733
15684TIP3    H268468   1.893   2.956  11.237 -0.2551  0.6133 -1.2372
15685TIP3   OH268469   2.542   2.635   6.319  0.3969  0.0824 -0.3104
15685TIP3    H168470   2.488   2.572   6.273  1.6248  0.3505 -2.2323
15685TIP3    H268471   2.627   2.629   6.276  1.4428  0.8273  1.5381
15686TIP3   OH268472   5.266   0.226   6.260  0.1125  0.3952 -0.2361
15686TIP3    H168473   5.326   0.248   6.189  0.5675 -0.2697 -0.0676
15686TIP3    H268474   5.260   0.130   6.258  1.6769  0.1872  1.8434
15687TIP3   OH268475   0.074   5.305  15.601  0.2238 -0.1990  0.0654
15687TIP3    H168476   0.044   5.382  15.552  1.0759  0.2433  0.2173
15687TIP3    H268477   0.054   5.231  15.544 -0.6748  0.1254 -0.0530
15688TIP3   OH268478   2.253   3.540   1.744 -0.3218  0.3519  0.0703
15688TIP3    H168479   2.339   3.538   1.786 -0.0431 -0.4666 -0.5012
15688TIP3    H268480   2.227   3.448   1.739 -1.5984  0.6505  0.9437
15689TIP3   OH268481   1.738   6.193  14.414  0.0557  0.4123  0.3663
15689TIP3    H168482   1.813   6.156  14.461  0.9850  1.0658 -0.5726
15689TIP3    H268483   1.756   6.176  14.322 -3.0894 -3.4193  0.1994
15690TIP3   OH268484   1.292   6.577  15.011 -0.1658  0.4282  0.1786
15690TIP3    H168485   1.379   6.608  15.039 -0.3724  0.0569  1.2619
15690TIP3    H268486   1.269   6.636  14.940  1.2094  0.1978 -0.5052
15691TIP3   OH268487   2.417   2.545  11.627  0.1898 -0.2922 -0.3832
15691TIP3    H168488   2.421   2.581  11.715 -1.3268 -1.4096  0.1814
15691TIP3    H268489   2.489   2.588  11.580  2.7364 -1.6227  2.0591
15692TIP3   OH268490   3.536   5.224   4.128 -0.5430 -0.3190 -0.1561
15692TIP3    H168491   3.569   5.282   4.059 -1.2348  1.9772  1.3356
15692TIP3    H268492   3.613   5.206   4.182 -0.6147  0.5896  0.2774
15693TIP3   OH268493   0.838   2.985  11.342  0.0457  0.6169  0.1283
15693TIP3    H168494   0.803   2.931  11.413  0.0227 -0.2747 -0.5325
15693TIP3    H268495   0.781   2.966  11.267  0.1496  1.4358 -0.1709
15694TIP3   OH268496   1.229   1.780   3.703 -0.3224  0.9607 -0.0326
15694TIP3    H168497   1.231   1.856   3.645  0.6251  0.2037 -1.0398
15694TIP3    H268498   1.156   1.728   3.672 -0.1864  0.8440 -0.1556
15695TIP3   OH268499   6.772   0.180  14.020  0.2646 -0.1336 -0.3108
15695TIP3    H168500   6.715   0.166  14.095  1.5130  1.3021  0.9742
15695TIP3    H268501   6.761   0.102  13.966  1.0631 -2.3134  2.4705
15696TIP3   OH268502   5.314   5.799  10.656  0.1722  0.0229 -0.2421
15696TIP3    H168503   5.266   5.841  10.585 -2.4147 -0.9694  0.7822
15696TIP3    H268504   5.310   5.705  10.636 -2.1421 -0.4639  1.9221
15697TIP3   OH268505   2.845   5.265  11.698  0.5817 -0.7241 -0.2771
15697TIP3    H168506   2.757   5.256  11.734  1.4284 -3.2010  1.4569
15697TIP3    H268507   2.832   5.306  11.613 -2.2475 -1.0642 -0.1129
15698TIP3   OH268508   5.323   1.577   3.875  0.0778  0.1474  0.2374
15698TIP3    H168509   5.274   1.538   3.948  1.0842 -0.0820  0.8110
15698TIP3    H268510   5.257   1.626   3.825 -0.5957  0.4758  1.4119
15699TIP3   OH268511   2.570   0.740   4.075 -0.0334 -0.0245 -0.5147
15699TIP3    H168512   2.644   0.734   4.015  1.2100  1.5216  0.7528
15699TIP3    H268513   2.509   0.800   4.032  0.3220  0.1702 -0.7531
15700TIP3   OH268514   5.568   6.561  12.738 -0.1882  0.3254 -0.4702
15700TIP3    H168515   5.529   6.481  12.775 -0.6291  1.2016  1.0944
15700TIP3    H268516   5.656   6.564  12.775 -1.1059  1.9396  1.8506
15701TIP3   OH268517   1.017   3.499  15.731  0.5836 -0.1038  0.1159
15701TIP3    H168518   1.012   3.449  15.813 -0.2975  0.0864  0.1813
15701TIP3    H268519   0.976   3.583  15.751  1.2739  0.3313 -0.2478
15702TIP3   OH268520   4.985   6.613  15.474  0.0528  0.0544 -0.0039
15702TIP3    H168521   5.009   6.525  15.447  1.2375  0.9183 -1.9587
15702TIP3    H268522   4.921   6.642  15.409  0.5288  1.0349 -0.0546
15703TIP3   OH268523   0.481   4.204  16.849  0.0553 -0.2245 -0.2502
15703TIP3    H168524   0.510   4.245  16.768  0.7111 -1.1202 -0.4832
15703TIP3    H268525   0.481   4.275  16.913  0.0284  0.3820 -0.9136
15704TIP3   OH268526   0.837   4.163   2.442  0.2278 -0.1183 -0.4081
15704TIP3    H168527   0.761   4.187   2.389  0.6083 -0.1722 -0.9905
15704TIP3    H268528   0.898   4.124   2.380  0.8887  0.2714 -0.0160
15705TIP3   OH268529   6.168   5.956   0.892  0.2868 -0.4890 -0.2644
15705TIP3    H168530   6.183   5.877   0.840  0.3044 -0.2421 -0.6433
15705TIP3    H268531   6.251   6.004   0.887  1.1989 -1.6620  2.1414
15706TIP3   OH268532   1.005   1.543   4.081 -0.6733  0.6925  0.1362
15706TIP3    H168533   1.095   1.572   4.064 -1.2756  1.9301 -1.1474
15706TIP3    H268534   0.973   1.604   4.148 -0.9490  1.0718 -0.3315
15707TIP3   OH268535   2.284   1.860   1.305 -0.1488 -0.0758 -0.3784
15707TIP3    H168536   2.342   1.807   1.249 -2.1403 -2.0000 -0.7339
15707TIP3    H268537   2.245   1.924   1.244 -1.1834 -1.2041 -0.9422
15708TIP3   OH268538   2.658   1.259   2.152 -0.3240  0.3330  0.0033
15708TIP3    H168539   2.729   1.317   2.125 -0.1382  1.5629  2.7871
15708TIP3    H268540   2.614   1.307   2.223 -1.0064 -2.3633  1.5297
15709TIP3   OH268541   2.702   4.902   3.750  0.2036 -0.3342  0.0884
15709TIP3    H168542   2.681   4.956   3.826 -0.9643  0.4710 -0.7717
15709TIP3    H268543   2.617   4.867   3.722  0.5938 -0.4565 -0.9726
15710TIP3   OH268544   2.521   2.915   5.335 -0.3176  0.1001  0.0266
15710TIP3    H168545   2.460   2.939   5.405  1.4507  0.8011  1.4035
15710TIP3    H268546   2.512   2.820   5.327  0.3424 -0.1887  2.1388
15711TIP3   OH268547   0.669   3.735  15.919 -0.6541 -0.4238  0.4509
15711TIP3    H168548   0.704   3.691  15.996 -1.5228 -2.0557 -0.0340
15711TIP3    H268549   0.583   3.767  15.946 -0.8083 -0.6814  0.2702
15712TIP3   OH268550   0.244   6.606   2.860 -0.3170 -0.1140  0.2339
15712TIP3    H168551   0.279   6.518   2.874  1.3171  0.6485  1.2896
15712TIP3    H268552   0.233   6.613   2.765  2.8227 -0.3323 -0.2662
15713TIP3   OH268553   5.326   2.431   4.695 -0.3010  0.0827  0.3768
15713TIP3    H168554   5.275   2.383   4.629 -0.0304  1.2828 -0.7554
15713TIP3    H268555   5.280   2.414   4.777 -2.7396  1.3174 -0.6200
15714TIP3   OH268556   3.260   3.149  12.768 -0.2331  0.1932  0.3647
15714TIP3    H168557   3.176   3.152  12.815  0.7090 -0.3043  2.1731
15714TIP3    H268558   3.252   3.073  12.710 -0.6828 -0.4768  1.2687
15715TIP3   OH268559   2.171   0.360  13.778 -0.3288  0.2030  0.0692
15715TIP3    H168560   2.087   0.347  13.822 -1.0451 -0.1283 -1.3226
15715TIP3    H268561   2.150   0.415  13.702  1.2680  2.7970  1.3488
15716TIP3   OH268562   1.942   1.590   6.181 -0.2400  0.4669  0.0824
15716TIP3    H168563   1.938   1.527   6.254 -0.8190  0.5305  0.1087
15716TIP3    H268564   2.024   1.569   6.137 -0.5438 -0.4874 -0.0621
15717TIP3   OH268565   3.262   5.520   4.947 -0.6458 -0.0394 -0.7788
15717TIP3    H168566   3.328   5.581   4.914 -1.4639 -0.1919 -2.8395
15717TIP3    H268567   3.180   5.554   4.911 -1.3352 -1.3807 -0.5026
15718TIP3   OH268568   0.854   5.677  12.032  0.6864 -0.0560  0.3940
15718TIP3    H168569   0.833   5.660  11.940  1.0131  0.6650  0.1785
15718TIP3    H268570   0.777   5.721  12.067  0.9398  0.5512  0.2013
15719TIP3   OH268571   5.946   5.965   0.055  0.3496 -1.6305 -0.0601
15719TIP3    H168572   5.931   5.924  -0.030 -0.9504 -1.9745  0.3046
15719TIP3    H268573   5.858   5.976   0.092  0.7426  0.4385  0.3606
15720TIP3   OH268574   4.081   4.838   0.133 -0.3881  0.5230  0.7072
15720TIP3    H168575   4.005   4.788   0.162 -1.5439  1.0468 -1.2199
15720TIP3    H268576   4.057   4.870   0.046  1.2554  2.4151  0.8676
15721TIP3   OH268577   0.816   5.559   0.910  0.2559  0.1276  0.0904
15721TIP3    H168578   0.850   5.496   0.847  0.2546 -0.1869  0.3980
15721TIP3    H268579   0.721   5.547   0.906  0.2226  0.5315 -0.2839
15722TIP3   OH268580   4.764   6.601   4.904  0.0449  0.0448 -0.6230
15722TIP3    H168581   4.843   6.570   4.950 -0.4621 -0.2095  0.0931
15722TIP3    H268582   4.720   6.521   4.876 -0.1822  0.1743 -0.6374
15723TIP3   OH268583   3.118   0.740   1.309  0.2629  0.6187 -0.0653
15723TIP3    H168584   3.198   0.686   1.310 -0.8273 -1.0834  0.9611
15723TIP3    H268585   3.063   0.698   1.243  0.3693  2.0820 -1.1232
15724TIP3   OH268586   3.128   4.407   0.124 -0.1887  0.2367  0.1004
15724TIP3    H168587   3.081   4.362   0.195  0.5976  1.7005  1.6058
15724TIP3    H268588   3.107   4.499   0.136 -1.3372  0.4399 -2.6042
15725TIP3   OH268589   3.927   6.743  14.803 -0.0737 -0.3551 -0.1923
15725TIP3    H168590   3.981   6.709  14.875  0.5950 -2.8893 -1.7338
15725TIP3    H268591   3.978   6.815  14.767  0.5524 -0.3803  0.6075
15726TIP3   OH268592   0.713   2.202  16.144 -0.5858  0.5541 -0.5400
15726TIP3    H168593   0.649   2.198  16.215 -0.0732  0.8135 -0.0548
15726TIP3    H268594   0.712   2.293  16.115  0.1928  0.7659  0.0654
15727TIP3   OH268595   4.334   3.694   4.606  0.1313  0.2893 -0.4748
15727TIP3    H168596   4.351   3.717   4.515  0.3861  2.2971  0.0312
15727TIP3    H268597   4.239   3.678   4.609 -0.2331  2.1173 -0.7627
15728TIP3   OH268598   5.278   2.829  15.542 -0.2752 -0.4331 -0.1013
15728TIP3    H168599   5.228   2.752  15.568 -1.1018  0.6663  1.7992
15728TIP3    H268600   5.216   2.902  15.549  0.2900  0.3853 -2.5108
15729TIP3   OH268601   1.647   5.739   4.438 -0.0180  0.0847  0.0226
15729TIP3    H168602   1.709   5.750   4.510 -0.7676  1.4767  0.4944
15729TIP3    H268603   1.668   5.810   4.378 -0.8135  0.2508 -0.0635
15730TIP3   OH268604   3.749   1.193  13.866  0.1177  0.0396  0.0217
15730TIP3    H168605   3.715   1.105  13.850 -1.0828  0.8385 -2.3506
15730TIP3    H268606   3.742   1.205  13.961 -0.8838 -1.9487  0.2537
15731TIP3   OH268607   1.913   3.886   0.218 -0.2877  0.5616 -0.7119
15731TIP3    H168608   1.966   3.869   0.140 -0.0102  3.0332 -1.1410
15731TIP3    H268609   1.845   3.819   0.215  0.6006 -0.3506 -2.2291
15732TIP3   OH268610   1.117   2.286  12.119  0.0879 -0.3503  0.8891
15732TIP3    H168611   1.049   2.251  12.176  0.5257 -0.4331  1.3746
15732TIP3    H268612   1.072   2.346  12.060 -0.2707  0.2805  1.7909
15733TIP3   OH268613   5.079   0.993  13.077 -0.1291 -0.0736  0.1468
15733TIP3    H168614   5.119   0.954  13.155  1.0027 -0.9127 -0.8022
15733TIP3    H268615   5.070   1.086  13.098 -1.8375 -0.5872  2.0614
15734TIP3   OH268616   4.567   2.056  14.112  0.0966 -0.1912  0.1186
15734TIP3    H168617   4.508   2.071  14.039 -1.3148  3.1122  1.6983
15734TIP3    H268618   4.628   2.130  14.110  2.0908 -1.7219  0.5221
15735TIP3   OH268619   3.959   3.503   1.974  0.4674 -0.0459 -0.5096
15735TIP3    H168620   3.933   3.432   2.033 -0.3163  0.9347  0.3769
15735TIP3    H268621   3.877   3.530   1.933  1.2131 -1.9272 -3.5627
15736TIP3   OH268622   5.801   2.808  14.430  0.1166  0.3845 -0.5206
15736TIP3    H168623   5.790   2.807  14.335 -0.9547  0.1518 -0.4010
15736TIP3    H268624   5.712   2.810  14.465  0.5066  0.7978  0.4788
15737TIP3   OH268625   5.117   6.576   4.785 -0.0208 -0.0989 -0.2335
15737TIP3    H168626   5.184   6.559   4.720  0.0407  0.5040 -0.3350
15737TIP3    H268627   5.051   6.509   4.770 -0.1381  0.2032 -1.1030
15738TIP3   OH268628   1.600   5.042   1.098  0.0456  0.7045 -0.2207
15738TIP3    H168629   1.639   5.081   1.019 -0.8542  1.5141 -0.2739
15738TIP3    H268630   1.583   5.116   1.156 -1.0774  0.3216 -0.0514
15739TIP3   OH268631   0.462   2.516  13.521  0.6685 -0.4225  0.3516
15739TIP3    H168632   0.554   2.508  13.496  0.0603 -0.2692 -2.1981
15739TIP3    H268633   0.443   2.610  13.512  0.3637 -0.3612  1.4122
15740TIP3   OH268634   1.927   2.080  10.937 -0.4071  0.3113 -0.7189
15740TIP3    H168635   1.835   2.081  10.964 -0.2513  2.3406 -0.0265
15740TIP3    H268636   1.925   2.101  10.844 -0.6815 -1.2062 -1.0852
15741TIP3   OH268637   3.394   2.624   1.188  0.9638  0.0920 -0.2831
15741TIP3    H168638   3.332   2.667   1.247  1.3253  1.6971 -1.0103
15741TIP3    H268639   3.468   2.600   1.244 -0.0120 -1.2869  0.4737
15742TIP3   OH268640   3.099   4.524  11.987  0.0400  0.0290  0.2105
15742TIP3    H168641   3.052   4.492  12.064  0.8835 -1.3302  0.2047
15742TIP3    H268642   3.042   4.590  11.948 -0.0188  1.3949  2.4810
15743TIP3   OH268643   0.145   6.131  15.340 -0.5561 -0.6301 -0.4551
15743TIP3    H168644   0.123   6.109  15.249 -1.3649 -1.1343 -0.1520
15743TIP3    H268645   0.152   6.046  15.384 -1.9863 -0.3673  0.3505
15744TIP3   OH268646   4.935   2.029   4.173  0.2044  0.7991 -0.2612
15744TIP3    H168647   4.876   2.101   4.150  0.6832  2.2388  2.4851
15744TIP3    H268648   5.012   2.073   4.210  0.5665 -1.0905  1.4269
15745TIP3   OH268649   4.721   2.368  14.968  0.0307 -0.4015 -0.2245
15745TIP3    H168650   4.803   2.382  14.922  0.1110 -0.7029 -0.1727
15745TIP3    H268651   4.657   2.423  14.922  0.3609  0.2047  0.0311
15746TIP3   OH268652   1.753   0.652   3.369 -0.8107 -0.0386 -0.3184
15746TIP3    H168653   1.733   0.583   3.306 -0.5070  0.1156 -0.5845
15746TIP3    H268654   1.688   0.720   3.352 -0.2483  0.3423 -0.9975
15747TIP3   OH268655   4.759   1.087  15.271 -0.1422  0.0459 -0.4195
15747TIP3    H168656   4.744   1.033  15.193  0.1302  0.2703 -0.6325
15747TIP3    H268657   4.791   1.025  15.337 -0.7307 -0.2075 -0.3651
15748TIP3   OH268658   1.712   1.939   0.596 -0.4361 -0.1182  0.4450
15748TIP3    H168659   1.649   1.968   0.661  0.1058  0.3134  0.7850
15748TIP3    H268660   1.770   1.879   0.644  0.0589  0.3227  0.4083
15749TIP3   OH268661   3.593   6.698   2.236  0.1302  0.2186 -0.3167
15749TIP3    H168662   3.686   6.678   2.238  0.2874  0.6762 -1.5509
15749TIP3    H268663   3.574   6.712   2.143 -0.9537  1.1044  0.0130
15750TIP3   OH268664   4.332   2.969  16.669  0.1358  0.0890  0.3551
15750TIP3    H168665   4.381   2.977  16.751 -0.1808  2.2533  0.3790
15750TIP3    H268666   4.243   2.946  16.697  0.2001  0.0765  0.5500
15751TIP3   OH268667   4.438   3.228   5.008  0.7176 -0.2425  0.4349
15751TIP3    H168668   4.381   3.239   4.932 -1.6514 -0.5333  2.0549
15751TIP3    H268669   4.489   3.150   4.988  0.3913 -0.1038 -1.0122
15752TIP3   OH268670   0.895   4.226   5.678  0.8832 -0.2654 -0.0887
15752TIP3    H168671   0.847   4.148   5.709 -0.0252 -0.5637 -2.0663
15752TIP3    H268672   0.868   4.296   5.738 -0.8470 -0.7843 -0.2097
15753TIP3   OH268673   4.720   6.783   2.766 -0.3071  0.3990 -0.3793
15753TIP3    H168674   4.761   6.860   2.725  1.7389 -0.4083  0.0066
15753TIP3    H268675   4.794   6.725   2.784 -1.3435 -0.1298  2.6214
15754TIP3   OH268676   3.342   6.750  11.301  0.0201  0.2362  0.1207
15754TIP3    H168677   3.302   6.663  11.303  1.0592 -0.2621 -0.0562
15754TIP3    H268678   3.277   6.805  11.259 -2.5408  0.5661  4.0141
15755TIP3   OH268679   2.639   3.570  14.211 -0.0123  0.7163 -0.6467
15755TIP3    H168680   2.548   3.565  14.179 -1.1002  3.7486  1.6249
15755TIP3    H268681   2.658   3.480  14.240 -2.5194  0.1294 -0.5570
15756TIP3   OH268682   1.290   6.108   6.628 -0.4273  0.6122 -0.0842
15756TIP3    H168683   1.326   6.035   6.576  0.0098 -0.3088  1.4593
15756TIP3    H268684   1.362   6.171   6.633 -0.6496  0.9668 -1.0168
15757TIP3   OH268685   1.711   2.818   1.323  0.2254 -0.2092 -0.1828
15757TIP3    H168686   1.641   2.866   1.368  1.4748  0.5439  1.0193
15757TIP3    H268687   1.790   2.840   1.371  1.3159 -1.0347 -1.5263
15758TIP3   OH268688   6.534   3.425   2.570  0.1171  0.2816 -0.2659
15758TIP3    H168689   6.549   3.343   2.618 -1.7394  0.9612  1.6251
15758TIP3    H268690   6.604   3.483   2.598  1.0574 -0.4090 -1.1096
15759TIP3   OH268691   0.893   1.699  14.640  0.4090  0.9314  0.5188
15759TIP3    H168692   0.823   1.634  14.641  1.6258 -0.4351  0.9878
15759TIP3    H268693   0.875   1.755  14.716 -0.1994  0.6445  0.5904
15760TIP3   OH268694   0.528   0.112  12.363 -0.0112 -0.1300 -0.2707
15760TIP3    H168695   0.618   0.094  12.388  0.8012  1.3213 -1.9615
15760TIP3    H268696   0.475   0.072  12.433  1.9361 -0.1496  1.2657
15761TIP3   OH268697   6.073   3.913   4.695 -0.7200 -0.3054  0.5439
15761TIP3    H168698   6.025   3.838   4.659  0.0179 -0.8984  0.7574
15761TIP3    H268699   6.067   3.980   4.627 -0.6349 -0.8816 -0.0447
15762TIP3   OH268700   2.744   6.666  16.174 -0.1964  0.7944  0.7716
15762TIP3    H168701   2.714   6.655  16.084  1.3130 -1.0097  0.4168
15762TIP3    H268702   2.682   6.616  16.226 -0.4481  0.9275  0.5985
15763TIP3   OH268703   5.092   4.037   2.311  0.1200  0.0051  0.0258
15763TIP3    H168704   5.082   4.037   2.215  1.8303  1.7565 -0.2268
15763TIP3    H268705   5.020   4.090   2.343  0.1074  0.2546 -0.4040
15764TIP3   OH268706   6.072   0.990   2.871 -0.3106 -0.2982 -0.3741
15764TIP3    H168707   6.132   0.946   2.932  0.9365  0.3991 -1.0547
15764TIP3    H268708   6.121   1.066   2.841 -2.1594  1.1986  0.2348
15765TIP3   OH268709   5.713   1.325  11.197  0.3801  0.0491 -0.5903
15765TIP3    H168710   5.711   1.230  11.207 -1.0600  0.0616 -0.6023
15765TIP3    H268711   5.800   1.344  11.162  0.5405 -1.2996 -0.9620
15766TIP3   OH268712   0.468   1.827  15.875  0.0748  0.2928  0.1163
15766TIP3    H168713   0.550   1.805  15.830 -0.9985  0.0798 -1.8371
15766TIP3    H268714   0.413   1.867  15.808 -1.9821 -0.8688  1.0028
15767TIP3   OH268715   4.101   4.285  12.203 -0.1249 -0.4192  0.2514
15767TIP3    H168716   4.037   4.318  12.140 -2.4220  0.7409  2.9854
15767TIP3    H268717   4.185   4.317  12.170 -1.5167  2.5477 -0.8024
15768TIP3   OH268718   4.994   0.578  14.808  0.2216 -0.7012 -0.1885
15768TIP3    H168719   4.989   0.576  14.903  1.3848 -0.5305 -0.1105
15768TIP3    H268720   4.992   0.486  14.781  1.8659 -0.8598  0.1411
15769TIP3   OH268721   2.128   1.781   4.326 -0.1400 -0.4734  0.3179
15769TIP3    H168722   2.116   1.766   4.232  0.2026 -0.7743  0.3180
15769TIP3    H268723   2.201   1.842   4.331 -0.5174 -0.0246  0.3719
15770TIP3   OH268724   2.422   4.738   0.088 -0.1299  0.2235 -0.5360
15770TIP3    H168725   2.463   4.659   0.055  1.0678  0.5260  0.1749
15770TIP3    H268726   2.341   4.746   0.038  0.8213 -0.2159 -2.1893
15771TIP3   OH268727   0.352   1.686   1.181 -0.3112  0.1040  0.3397
15771TIP3    H168728   0.256   1.689   1.190 -0.2562  0.7108  0.7690
15771TIP3    H268729   0.377   1.776   1.158  0.3317  0.3951  2.0830
15772TIP3   OH268730   6.586   4.337  13.412  0.1738  0.0781  0.0272
15772TIP3    H168731   6.521   4.407  13.422  0.1406 -0.2103  2.2060
15772TIP3    H268732   6.666   4.383  13.386  0.3178  1.0790  2.0396
15773TIP3   OH268733   2.993   1.153   4.465  0.7193 -0.0579 -0.3453
15773TIP3    H168734   2.987   1.218   4.395  2.0382  1.0029  0.4759
15773TIP3    H268735   2.998   1.069   4.419  1.5948  0.6166 -1.5476
15774TIP3   OH268736   2.749   0.178  12.042  0.2926  0.5529 -0.2782
15774TIP3    H168737   2.708   0.099  12.008  3.3084 -0.2571 -2.4954
15774TIP3    H268738   2.828   0.147  12.086 -0.9462  2.0469  3.4034
15775TIP3   OH268739   0.634   4.635   6.831  0.2904 -0.2734 -0.5207
15775TIP3    H168740   0.710   4.678   6.871  1.3537 -2.5532  0.0472
15775TIP3    H268741   0.570   4.629   6.902  0.7123 -0.9377 -0.1938
15776TIP3   OH268742   4.980   5.507   4.054 -0.2184 -0.0935  0.1537
15776TIP3    H168743   5.006   5.537   4.141 -0.8692  0.3131  0.2110
15776TIP3    H268744   4.885   5.514   4.053 -0.1812  0.5091 -0.8097
15777TIP3   OH268745   6.326   0.813  15.045 -0.4353  0.1738 -0.1127
15777TIP3    H168746   6.256   0.751  15.064  0.1599 -0.7432 -0.8553
15777TIP3    H268747   6.400   0.759  15.018  0.3968  1.1562  0.1237
15778TIP3   OH268748   3.929   3.482   4.335 -0.1897  0.2311  0.2687
15778TIP3    H168749   3.881   3.564   4.325 -2.2940 -0.4840  3.1256
15778TIP3    H268750   3.977   3.472   4.253 -1.5618  3.1929 -1.0457
15779TIP3   OH268751   3.984   1.825   5.741  0.3542  0.2622 -0.0755
15779TIP3    H168752   4.032   1.904   5.765 -0.3737 -0.2387  3.6110
15779TIP3    H268753   3.942   1.846   5.657  2.4030  2.6993 -0.5965
15780TIP3   OH268754   3.980   2.353  11.252  0.7062 -0.0819  0.2076
15780TIP3    H168755   3.996   2.448  11.243  2.4272 -0.4969 -2.5137
15780TIP3    H268756   3.994   2.319  11.164 -0.8894 -2.7844  0.9079
15781TIP3   OH268757   0.728   3.266   2.371  0.2716  0.2802  0.2408
15781TIP3    H168758   0.735   3.358   2.346  0.1830  0.1723 -0.2038
15781TIP3    H268759   0.731   3.266   2.466 -0.8465  0.8503  0.2951
15782TIP3   OH268760   2.443   0.536   2.783 -0.1851 -0.1708  0.2133
15782TIP3    H168761   2.522   0.525   2.837  0.0692  1.3625  0.2022
15782TIP3    H268762   2.375   0.487   2.829  1.0123 -2.5814 -0.4230
15783TIP3   OH268763   5.972   1.490  15.635 -0.3307 -0.7072  0.8877
15783TIP3    H168764   6.068   1.488  15.640 -0.2254 -1.4301 -0.8836
15783TIP3    H268765   5.951   1.454  15.549 -2.0080  3.1069 -0.5491
15784TIP3   OH268766   4.091   0.506  13.347 -0.1660 -0.0386 -0.7465
15784TIP3    H168767   4.143   0.578  13.311  0.3820 -0.6303 -1.1598
15784TIP3    H268768   4.154   0.454  13.398 -0.5270 -0.2967 -0.5620
15785TIP3   OH268769   0.210   1.097   1.102  1.2101  0.0138  0.1578
15785TIP3    H168770   0.186   1.009   1.129 -0.0951  0.5699  0.9140
15785TIP3    H268771   0.281   1.085   1.039  1.9324 -1.5127  1.1997
15786TIP3   OH268772   0.896   1.063   0.669  0.3293  0.0392  0.2519
15786TIP3    H168773   0.972   1.015   0.701  0.2163 -1.2932 -1.3636
15786TIP3    H268774   0.930   1.150   0.647  0.9216  0.1318  1.4630
15787TIP3   OH268775   0.167   1.708  15.265 -0.1239 -0.2093  0.8826
15787TIP3    H168776   0.111   1.673  15.196  1.7661 -1.5132 -0.0666
15787TIP3    H268777   0.116   1.696  15.345 -2.4876  1.5785 -0.2213
15788TIP3   OH268778   0.633   2.834  13.045 -0.2361 -0.2283  0.2024
15788TIP3    H168779   0.604   2.890  13.117 -1.2228 -0.3464 -0.0842
15788TIP3    H268780   0.715   2.797  13.075  0.9777  2.1319  0.0089
15789TIP3   OH268781   6.348   0.097  16.147 -0.1599 -0.0425  0.7811
15789TIP3    H168782   6.436   0.086  16.111 -0.2692  0.0064  0.4953
15789TIP3    H268783   6.290   0.071  16.076 -0.3803 -2.8825  1.8574
15790TIP3   OH268784   1.099   6.261   2.292  0.6058 -1.2312 -0.3071
15790TIP3    H168785   1.042   6.209   2.236 -1.7021 -0.9419  1.6232
15790TIP3    H268786   1.074   6.351   2.275 -1.0024 -1.1758  1.9080
15791TIP3   OH268787   2.797   2.111   0.958 -0.2110 -0.1131 -0.6915
15791TIP3    H168788   2.848   2.054   1.015 -1.0754 -1.0491 -0.8158
15791TIP3    H268789   2.832   2.199   0.973  1.7636 -0.7693 -1.1660
15792TIP3   OH268790   2.027   4.581   4.077  0.3527 -0.4074  0.0885
15792TIP3    H168791   2.021   4.603   4.170 -0.0059  0.7078 -0.1894
15792TIP3    H268792   1.937   4.589   4.045  0.3770 -1.3402 -0.2409
15793TIP3   OH268793   3.509   2.822   3.605 -0.8941  0.0137 -0.0914
15793TIP3    H168794   3.508   2.748   3.664 -1.0899  0.6075  0.6680
15793TIP3    H268795   3.598   2.824   3.569 -0.7187 -0.2354  0.3328
15794TIP3   OH268796   2.840   4.110  14.369 -0.9634  0.0030  0.4647
15794TIP3    H168797   2.798   4.123  14.284  0.4553  1.1647 -0.1123
15794TIP3    H268798   2.869   4.198  14.394  1.2872 -0.7627  0.7131
15795TIP3   OH268799   4.342   6.328   0.867  0.2287 -0.3896  0.3798
15795TIP3    H168800   4.437   6.332   0.856  0.0215 -1.6281 -3.1282
15795TIP3    H268801   4.321   6.402   0.925  3.1302  1.2882 -0.5150
15796TIP3   OH268802   2.334   2.608  16.831 -0.2411 -0.1025 -0.0833
15796TIP3    H168803   2.359   2.547  16.900  0.6004 -0.9429 -1.1064
15796TIP3    H268804   2.301   2.554  16.760 -0.7743  0.7229 -0.4866
15797TIP3   OH268805   6.572   0.379  14.143  0.1090  0.1296 -0.5373
15797TIP3    H168806   6.583   0.354  14.235 -0.2872 -0.5181 -0.6552
15797TIP3    H268807   6.572   0.475  14.144 -1.2807  0.1523  0.3268
15798TIP3   OH268808   2.545   3.990   0.133 -0.5505 -0.2256 -1.2038
15798TIP3    H168809   2.457   4.013   0.102 -0.3986  0.6974 -0.9912
15798TIP3    H268810   2.530   3.920   0.197 -1.1640  0.1505 -0.9232
15799TIP3   OH268811   3.283   2.869  14.228  0.0940  0.3196 -0.1037
15799TIP3    H168812   3.310   2.807  14.295  1.8288  0.5544 -0.5523
15799TIP3    H268813   3.276   2.953  14.275  1.7165  0.5701 -0.2568
15800TIP3   OH268814   3.589   1.580   0.487  0.0648 -0.4937  0.5865
15800TIP3    H168815   3.551   1.645   0.427 -0.2212 -0.7470  0.4950
15800TIP3    H268816   3.623   1.511   0.430  0.4730 -0.3754  0.6789
15801TIP3   OH268817   0.212   4.380  13.827  0.4196  0.9349 -0.0796
15801TIP3    H168818   0.162   4.350  13.751  0.0640  2.5959 -0.5517
15801TIP3    H268819   0.186   4.321  13.898  0.0688 -0.0818 -1.0295
15802TIP3   OH268820   2.562   4.698   0.934  0.1984  0.0095 -0.0966
15802TIP3    H168821   2.498   4.658   0.992 -0.8435 -0.5114 -1.5747
15802TIP3    H268822   2.524   4.782   0.910  0.1155 -0.2419 -0.8705
15803TIP3   OH268823   5.530   1.386   4.567 -0.0288 -0.4557  0.0690
15803TIP3    H168824   5.590   1.341   4.507  1.5005  0.3495  0.9424
15803TIP3    H268825   5.470   1.317   4.596 -0.1380 -1.0850 -1.5313
15804TIP3   OH268826   1.839   6.599   1.916  0.8046 -0.2232 -0.9561
15804TIP3    H168827   1.813   6.509   1.934  2.2119 -0.9945 -2.5737
15804TIP3    H268828   1.771   6.633   1.858 -0.7144  0.4313  1.0777
15805TIP3   OH268829   1.284   6.460  17.009 -0.0430  0.2816  0.0511
15805TIP3    H168830   1.217   6.445  17.076  0.4490 -0.2044  0.4457
15805TIP3    H268831   1.258   6.542  16.967  0.3854  1.3662  1.7650
15806TIP3   OH268832   4.891   4.434   4.334 -0.6171 -0.2046  0.4012
15806TIP3    H168833   4.908   4.489   4.257 -1.2393  0.2627  0.5930
15806TIP3    H268834   4.811   4.386   4.312 -0.8336 -0.0175  0.7933
15807TIP3   OH268835   0.231   3.957  15.530  0.7835 -0.2844  0.2254
15807TIP3    H168836   0.202   4.034  15.578 -5.0080 -1.4712 -0.6707
15807TIP3    H268837   0.207   3.975  15.439  0.0259 -2.7555 -0.1309
15808TIP3   OH268838   0.947   2.785  12.521 -0.0295 -0.3608 -0.0160
15808TIP3    H168839   0.998   2.864  12.504 -1.4094  0.3425 -1.0810
15808TIP3    H268840   0.878   2.813  12.580 -0.2628 -0.8719 -0.0381
15809TIP3   OH268841   6.386   4.730  13.269  0.4456 -0.0312 -0.4933
15809TIP3    H168842   6.325   4.797  13.300  1.0621  0.3823 -0.1413
15809TIP3    H268843   6.453   4.779  13.221  0.5324 -0.4732 -0.8321
15810TIP3   OH268844   1.900   4.147   5.051  0.6661  0.5007  0.2758
15810TIP3    H168845   1.868   4.098   5.127 -1.1482  0.8681 -0.1827
15810TIP3    H268846   1.897   4.239   5.079 -0.9847  0.7224 -0.5113
15811TIP3   OH268847   2.705   2.394  15.854 -0.1217  0.2796 -0.0837
15811TIP3    H168848   2.706   2.377  15.760 -0.0361  1.8436 -0.3902
15811TIP3    H268849   2.612   2.394  15.878 -0.2034  0.9784 -0.3915
15812TIP3   OH268850   3.112   1.910  16.188 -0.2500 -0.2447 -0.1825
15812TIP3    H168851   3.070   1.860  16.258  2.1873  0.4452  1.9293
15812TIP3    H268852   3.179   1.962  16.232  0.7012  1.0640 -2.9294
15813TIP3   OH268853   1.808   2.102   5.304 -0.4435 -0.0803  0.1802
15813TIP3    H168854   1.892   2.142   5.283 -0.0103  0.1466  2.1471
15813TIP3    H268855   1.754   2.174   5.336 -0.2879 -0.6930  1.9358
15814TIP3   OH268856   2.207   4.460   4.374  0.1012 -0.4433 -0.0644
15814TIP3    H168857   2.259   4.475   4.453  0.0445 -1.1211  0.1051
15814TIP3    H268858   2.225   4.369   4.350 -1.2965 -0.8154  0.2156
15815TIP3   OH268859   6.649   1.198   2.199 -0.4577  0.2151  0.0393
15815TIP3    H168860   6.705   1.170   2.272 -0.4264 -0.3457 -0.1949
15815TIP3    H268861   6.683   1.149   2.123 -1.0166  0.1719 -0.1837
15816TIP3   OH268862   3.913   1.379  13.177 -0.0970  0.1344 -0.3441
15816TIP3    H168863   3.890   1.313  13.111 -2.2064 -1.7246  2.0438
15816TIP3    H268864   4.002   1.405  13.155  0.8139 -3.4475 -1.5258
15817TIP3   OH268865   1.959   3.312   4.057  0.2809 -0.0955  0.0813
15817TIP3    H168866   2.051   3.306   4.084  0.6198 -0.2273 -1.0551
15817TIP3    H268867   1.949   3.401   4.025  0.0906 -0.1749 -0.0818
15818TIP3   OH268868   1.553   3.138   1.575  0.1557 -0.4130  0.5815
15818TIP3    H168869   1.607   3.139   1.654  1.0576 -2.2672  0.0643
15818TIP3    H268870   1.612   3.171   1.506  0.8081 -2.6937 -0.0351
15819TIP3   OH268871   3.864   5.681   0.044 -0.2317  0.0289  0.2747
15819TIP3    H168872   3.874   5.774   0.061  0.9269  0.1786 -1.0053
15819TIP3    H268873   3.864   5.640   0.130  0.7758  1.0886  0.8014
15820TIP3   OH268874   4.581   6.496  13.217 -0.0246 -0.2403 -0.0168
15820TIP3    H168875   4.549   6.515  13.129 -0.6118 -2.2266 -0.2839
15820TIP3    H268876   4.558   6.404  13.232  1.5406 -0.4377  1.5729
15821TIP3   OH268877   6.622   6.232   2.511  0.1104  0.5243  0.1198
15821TIP3    H168878   6.633   6.324   2.489  1.0327  0.2691 -0.5531
15821TIP3    H268879   6.535   6.210   2.476 -0.1942  1.1685  0.4489
15822TIP3   OH268880   5.672   0.455  14.240  0.0853  0.5013 -0.5125
15822TIP3    H168881   5.748   0.474  14.295  0.2777 -1.0878 -0.2037
15822TIP3    H268882   5.613   0.405  14.296 -0.4819  0.3394 -1.2359
15823TIP3   OH268883   4.311   0.478  12.330  0.8755  0.2867  0.2349
15823TIP3    H168884   4.234   0.528  12.356 -1.2315 -0.9871 -2.9091
15823TIP3    H268885   4.329   0.420  12.404  1.5878  3.4377  2.7634
15824TIP3   OH268886   6.235   2.708  12.876 -0.3023  0.2563 -0.1796
15824TIP3    H168887   6.274   2.750  12.799 -0.2107  0.5940  0.0494
15824TIP3    H268888   6.142   2.732  12.872 -0.2890  0.3124 -0.1630
15825TIP3   OH268889   5.251   5.657   5.095 -0.3153 -0.0577 -0.3599
15825TIP3    H168890   5.267   5.749   5.117 -0.5928  0.2842 -1.5128
15825TIP3    H268891   5.308   5.608   5.155 -0.7517  0.8172  0.8091
15826TIP3   OH268892   5.589   0.868  16.341 -0.1364  0.5726 -0.0605
15826TIP3    H168893   5.644   0.938  16.304 -0.8456  1.7169  0.9659
15826TIP3    H268894   5.651   0.810  16.385  0.3881  1.0343 -0.1685
15827TIP3   OH268895   1.558   5.853  11.448 -0.2910  1.0820 -0.0210
15827TIP3    H168896   1.593   5.903  11.522  2.5220  0.2939 -0.7018
15827TIP3    H268897   1.616   5.875  11.374 -0.4628 -1.2455 -0.9468
15828TIP3   OH268898   3.180   6.088   4.059 -0.5434  0.1588  0.1769
15828TIP3    H168899   3.223   6.156   4.111  1.4224 -1.5178  0.9065
15828TIP3    H268900   3.101   6.066   4.109  0.4379 -0.2279  1.6535
15829TIP3   OH268901   3.250   0.403  16.649  0.0108 -0.0738 -0.0436
15829TIP3    H168902   3.201   0.346  16.707 -0.4785  1.7634  1.4229
15829TIP3    H268903   3.272   0.347  16.574 -0.2154 -2.2275  1.4062
15830TIP3   OH268904   0.306   6.464   3.930 -0.2239 -0.6285 -0.4048
15830TIP3    H168905   0.327   6.541   3.877 -2.4151 -0.9579 -1.8973
15830TIP3    H268906   0.363   6.471   4.006  1.6514  0.9393 -1.8516
15831TIP3   OH268907   3.427   5.028  15.365 -0.2127  0.3313 -0.3097
15831TIP3    H168908   3.522   5.017  15.366 -0.4288 -2.6037  2.3032
15831TIP3    H268909   3.401   5.018  15.456 -3.1615 -0.1412 -1.1051
15832TIP3   OH268910   4.499   3.685   3.182 -0.0580  0.4372  0.3431
15832TIP3    H168911   4.532   3.771   3.209  1.5431  0.1343 -0.5032
15832TIP3    H268912   4.475   3.642   3.264  0.9678  0.9787  0.9503
15833TIP3   OH268913   0.348   0.038  10.970  0.4597  0.5552  0.5403
15833TIP3    H168914   0.393   0.019  10.888 -0.4932  1.1263 -0.1420
15833TIP3    H268915   0.418   0.052  11.033  1.2173  0.4866 -0.2639
15834TIP3   OH268916   2.964   1.695  16.392 -0.6962 -0.9872  0.3570
15834TIP3    H168917   3.013   1.625  16.349  0.1840 -0.4755  0.4859
15834TIP3    H268918   2.992   1.691  16.484  1.4732  1.1572 -0.0736
15835TIP3   OH268919   4.898   6.758   4.541  0.0811  0.0688 -0.1787
15835TIP3    H168920   4.831   6.736   4.477 -0.1872  0.4076 -0.0189
15835TIP3    H268921   4.967   6.693   4.527 -1.1096 -1.5435  0.9558
15836TIP3   OH268922   4.209   2.548   3.978 -0.1874 -0.2106  0.0539
15836TIP3    H168923   4.237   2.603   4.050  0.0184 -1.2877  0.8210
15836TIP3    H268924   4.116   2.532   3.993 -0.2235 -0.1598 -0.1083
15837TIP3   OH268925   4.838   5.857  15.874  0.3814 -0.6814 -0.5437
15837TIP3    H168926   4.827   5.885  15.783 -4.9604  0.2900  0.0409
15837TIP3    H268927   4.811   5.765  15.874 -2.9254  0.1490  0.2623
15838TIP3   OH268928   6.387   2.113   3.882  0.0902  0.2568 -0.1900
15838TIP3    H168929   6.423   2.069   3.959 -1.3339  0.1175  0.4364
15838TIP3    H268930   6.459   2.114   3.819  0.7610 -1.1964  0.4990
15839TIP3   OH268931   4.320   2.863  14.924  0.3201 -0.4309 -0.2829
15839TIP3    H168932   4.394   2.813  14.888 -1.8416 -2.6872 -1.9685
15839TIP3    H268933   4.316   2.836  15.015  0.8827 -1.1896 -0.4643
15840TIP3   OH268934   4.267   4.037  16.994  0.7929  0.4730  0.0762
15840TIP3    H168935   4.305   3.953  16.970  0.6670  0.7132 -1.0512
15840TIP3    H268936   4.221   4.021  17.077  0.9098 -0.5178 -0.0405
15841TIP3   OH268937   4.046   2.305  13.408 -0.2684  0.1855 -0.4229
15841TIP3    H168938   3.970   2.278  13.356 -0.9157  1.1071  0.0144
15841TIP3    H268939   4.087   2.374  13.356 -0.1840  0.2300 -0.2984
15842TIP3   OH268940   4.427   3.111  11.289 -0.4204  0.0360  0.4339
15842TIP3    H168941   4.519   3.090  11.273 -0.2582  0.8738  0.1885
15842TIP3    H268942   4.425   3.145  11.379 -0.8684 -2.0405  1.2496
15843TIP3   OH268943   2.990   3.782  10.788  0.4907 -0.2588 -0.2816
15843TIP3    H168944   2.945   3.784  10.872  1.0548 -0.5769  0.0325
15843TIP3    H268945   2.958   3.860  10.742  1.7407  1.0917  1.0587
15844TIP3   OH268946   4.396   4.240  12.091  0.5866  0.0191  0.5872
15844TIP3    H168947   4.421   4.211  12.179  2.0734  0.0954  0.2239
15844TIP3    H268948   4.479   4.243  12.043 -0.0819  0.8682 -0.5563
15845TIP3   OH268949   5.943   6.246   4.497  0.3164  0.0436 -0.8277
15845TIP3    H168950   5.972   6.248   4.406 -0.4005  2.4007 -1.0728
15845TIP3    H268951   5.848   6.250   4.492  0.0259 -2.9082  0.0533
15846TIP3   OH268952   1.547   2.247  11.453  0.0868  0.0617  0.1237
15846TIP3    H168953   1.607   2.263  11.525  0.7836 -1.1571 -0.1515
15846TIP3    H268954   1.581   2.299  11.380 -0.2251  0.7558  0.4670
15847TIP3   OH268955   5.733   4.405   3.430 -0.0787  0.7242  0.2677
15847TIP3    H168956   5.750   4.451   3.348 -0.3138  0.8029  0.2640
15847TIP3    H268957   5.785   4.325   3.424 -0.1048  0.7253  0.0390
15848TIP3   OH268958   4.934   5.313   3.321 -0.2788 -0.1999  0.4143
15848TIP3    H168959   4.963   5.261   3.396 -2.6331  0.5469  1.9581
15848TIP3    H268960   4.942   5.404   3.351 -1.4752  0.1015 -0.1175
15849TIP3   OH268961   1.371   3.851   1.055  0.0010 -0.4210 -0.3016
15849TIP3    H168962   1.284   3.827   1.087 -0.5128  2.3995  0.6898
15849TIP3    H268963   1.362   3.854   0.960 -1.2459  0.6437 -0.1725
15850TIP3   OH268964   5.829   1.623   2.028 -0.2231  0.4687 -0.3928
15850TIP3    H168965   5.822   1.543   1.977  0.6711 -1.1469  1.8536
15850TIP3    H268966   5.815   1.595   2.119  2.6191  2.3451  0.7735
15851TIP3   OH268967   6.218   6.624   3.507  0.0510 -0.5585 -0.0022
15851TIP3    H168968   6.210   6.706   3.459 -2.6445 -1.9758 -2.2265
15851TIP3    H268969   6.141   6.622   3.563  0.6145 -1.1692  0.7672
15852TIP3   OH268970   0.833   5.107  12.736 -0.4972 -0.2651  0.2048
15852TIP3    H168971   0.852   5.200  12.750  0.9778 -0.4989 -0.0295
15852TIP3    H268972   0.890   5.062  12.799  0.1889 -1.0475 -0.9426
15853TIP3   OH268973   0.379   2.029  16.102  0.0576 -0.0341  0.3290
15853TIP3    H168974   0.391   1.972  16.179  0.3735 -0.9538 -0.3821
15853TIP3    H268975   0.424   1.983  16.031  0.9018  1.4463 -0.1334
15854TIP3   OH268976   3.354   4.127  17.027  0.0071 -0.3372  0.1587
15854TIP3    H168977   3.307   4.132  17.111  1.0253  0.8546  0.6879
15854TIP3    H268978   3.445   4.111  17.052  0.1012 -1.3586 -0.7964
15855TIP3   OH268979   0.711   3.302  16.011  0.0304  0.8459  0.0679
15855TIP3    H168980   0.702   3.214  15.975  0.7413  0.6454  0.3715
15855TIP3    H268981   0.652   3.355  15.957 -0.5734  0.1525  0.0305
15856TIP3   OH268982   3.495   5.284   1.420  0.4215  0.1356  0.2690
15856TIP3    H168983   3.490   5.269   1.326  0.4367 -1.7834  0.5328
15856TIP3    H268984   3.404   5.299   1.447  0.0612 -1.7946  0.2710
15857TIP3   OH268985   6.652   4.080  12.095 -0.4934 -0.1787  0.3742
15857TIP3    H168986   6.655   4.160  12.041 -1.0272 -0.4598 -0.0867
15857TIP3    H268987   6.731   4.083  12.147 -0.5800  0.7363  0.4670
15858TIP3   OH268988   3.684   0.614  12.624  0.0437  0.1057 -0.2773
15858TIP3    H168989   3.727   0.617  12.710 -0.6717 -3.2394  0.3443
15858TIP3    H268990   3.590   0.612  12.645 -0.1971  0.7839 -1.2331
15859TIP3   OH268991   5.734   5.114  11.178  0.2278  0.1639  0.5241
15859TIP3    H168992   5.697   5.157  11.100  3.3962  1.7860 -0.2453
15859TIP3    H268993   5.691   5.159  11.252 -1.4422 -0.0973 -0.2298
15860TIP3   OH268994   2.494   6.769  12.147 -0.2923 -0.2761  0.0479
15860TIP3    H168995   2.508   6.675  12.136  1.3614 -0.0813  0.1582
15860TIP3    H268996   2.449   6.796  12.067  0.4046 -0.9563 -0.5999
15861TIP3   OH268997   2.980   0.026   4.720 -0.3470 -0.1641 -0.3569
15861TIP3    H168998   3.017   0.044   4.806  0.8992  1.7468 -1.2187
15861TIP3    H268999   2.941   0.108   4.693 -0.4372 -0.6367 -1.7435
15862TIP3   OH269000   4.830   1.082  16.426 -0.1746  0.6491 -0.1285
15862TIP3    H169001   4.830   1.177  16.415  0.3632  0.5294 -1.2514
15862TIP3    H269002   4.772   1.050  16.357 -1.5585  0.2350  1.1671
15863TIP3   OH269003   3.357   6.505   4.461 -0.2793 -0.3323 -0.1417
15863TIP3    H169004   3.341   6.536   4.372 -0.9664 -1.1869 -0.3236
15863TIP3    H269005   3.423   6.436   4.451  2.6987  2.2127  0.4550
15864TIP3   OH269006   1.113   0.139   5.758 -0.1489  0.0903 -0.6257
15864TIP3    H169007   1.044   0.081   5.790  0.4843 -0.5170 -0.3492
15864TIP3    H269008   1.085   0.162   5.669 -1.0657  0.4329 -0.2626
15865TIP3   OH269009   2.346   5.294  11.198  0.3617 -0.7277  0.0076
15865TIP3    H169010   2.260   5.318  11.165  0.2004 -2.0181 -0.5767
15865TIP3    H269011   2.347   5.326  11.289  1.4724  4.5251 -1.5106
15866TIP3   OH269012   6.159   0.217   5.252 -0.1988 -0.1898 -0.0279
15866TIP3    H169013   6.201   0.150   5.305  1.2114  0.7244  0.0409
15866TIP3    H269014   6.159   0.295   5.306 -2.4917 -0.2587  0.1715
15867TIP3   OH269015   3.534   3.555  13.037  0.2201 -0.2195  0.1384
15867TIP3    H169016   3.479   3.505  13.097 -1.2663 -0.0163 -0.9957
15867TIP3    H269017   3.560   3.491  12.970  1.5021 -0.3428  0.7287
15868TIP3   OH269018   3.303   6.224   4.277  0.9131  0.2872  0.6177
15868TIP3    H169019   3.335   6.134   4.269 -0.8951 -0.2513 -1.5566
15868TIP3    H269020   3.377   6.277   4.248  1.3256 -0.6595 -0.1523
15869TIP3   OH269021   6.159   2.277   4.631 -0.6203 -0.1538 -0.3839
15869TIP3    H169022   6.175   2.371   4.617  0.0217 -0.1496  0.3216
15869TIP3    H269023   6.238   2.235   4.596 -1.0204 -0.4566 -0.9331
15870TIP3   OH269024   2.357   2.223   0.372 -0.5186  0.0249  0.2786
15870TIP3    H169025   2.443   2.264   0.375 -1.2201  1.6724 -0.5932
15870TIP3    H269026   2.301   2.282   0.423 -1.7829  0.8203 -1.8616
15871TIP3   OH269027   2.774   0.423   3.895  0.2427  1.1107  0.2572
15871TIP3    H169028   2.857   0.388   3.862 -1.0673 -2.3189  0.2340
15871TIP3    H269029   2.785   0.423   3.990 -0.2701 -1.0615  0.3577
15872TIP3   OH269030   0.525   6.655   5.934 -0.0999 -0.3402 -0.4692
15872TIP3    H169031   0.591   6.627   5.998 -1.5009 -0.3764  1.0393
15872TIP3    H269032   0.544   6.748   5.920  1.2357 -0.7070 -1.3205
15873TIP3   OH269033   0.642   2.662   4.975  0.3613  0.1844  0.0762
15873TIP3    H169034   0.556   2.621   4.964  0.7396 -0.2165 -1.6155
15873TIP3    H269035   0.623   2.755   4.986 -0.2760  0.1797 -0.8605
15874TIP3   OH269036   3.014   2.374   4.914  0.7250  0.3094  0.1165
15874TIP3    H169037   3.086   2.388   4.976  1.9869 -0.4207 -1.1229
15874TIP3    H269038   3.057   2.369   4.829 -0.7281 -0.8398 -0.5858
15875TIP3   OH269039   6.614   3.828   2.764  0.1236 -0.1693 -0.9155
15875TIP3    H169040   6.626   3.753   2.823  0.2544  0.1632 -0.5107
15875TIP3    H269041   6.531   3.810   2.719 -0.8152  0.3359  0.5443
15876TIP3   OH269042   4.937   5.926   1.168 -0.3705  0.2988  0.2782
15876TIP3    H169043   4.983   5.998   1.211  0.0300  1.0499 -1.3173
15876TIP3    H269044   4.846   5.936   1.195  0.1938 -0.6683  2.7625
15877TIP3   OH269045   6.199   0.267   5.890 -0.3938 -0.1565 -0.2419
15877TIP3    H169046   6.187   0.191   5.948 -0.0870 -0.5082 -0.6371
15877TIP3    H269047   6.236   0.230   5.810 -0.3017  0.4069 -0.4590
15878TIP3   OH269048   6.717   5.455   5.716  0.1337 -0.0637  0.0616
15878TIP3    H169049   6.649   5.410   5.666  0.6410  0.1490 -0.8431
15878TIP3    H269050   6.707   5.422   5.805 -0.5535 -0.7276 -0.2489
15879TIP3   OH269051   0.139   0.036  14.394 -0.0792  0.6870  0.2864
15879TIP3    H169052   0.158  -0.050  14.356  0.3556  0.6048  0.6810
15879TIP3    H269053   0.056   0.062  14.354 -2.1303 -1.5256  2.7912
15880TIP3   OH269054   6.078   5.713  10.673 -0.4807  0.5547 -0.1572
15880TIP3    H169055   6.098   5.806  10.663 -0.8476  0.6664  0.1309
15880TIP3    H269056   6.059   5.682  10.585 -0.5444  0.7985 -0.2294
15881TIP3   OH269057   2.140   1.986  10.769  0.4000  0.0698 -0.6513
15881TIP3    H169058   2.093   1.903  10.756  0.7309 -0.0404 -1.1631
15881TIP3    H269059   2.108   2.019  10.853  1.7226 -1.5561  0.5556
15882TIP3   OH269060   0.080   2.789   4.697 -0.4093  0.4826 -0.3218
15882TIP3    H169061  -0.008   2.819   4.721  0.1522  0.7131  1.6512
15882TIP3    H269062   0.090   2.705   4.742  1.3693  1.7838  1.9694
15883TIP3   OH269063   3.994   6.301   1.784 -0.3278  0.0394 -0.2518
15883TIP3    H169064   3.925   6.254   1.830  1.0586 -0.4596  1.4455
15883TIP3    H269065   4.028   6.363   1.848  0.2163  0.9112 -1.3376
15884TIP3   OH269066   4.464   6.466   5.922 -0.2726  0.5106 -0.2782
15884TIP3    H169067   4.388   6.449   5.867 -1.1008  0.2685  0.8972
15884TIP3    H269068   4.432   6.525   5.990 -0.0926 -1.5029  1.6776
15885TIP3   OH269069   1.630   0.487  14.690  0.1291  0.1132  0.2137
15885TIP3    H169070   1.634   0.496  14.595 -1.3903  2.7497  0.3040
15885TIP3    H269071   1.587   0.403  14.704  1.5383 -0.9453 -1.3370
15886TIP3   OH269072   1.352   1.990  14.872  0.2072 -0.3355 -0.6843
15886TIP3    H169073   1.257   1.998  14.861  0.1258 -0.5202 -0.1555
15886TIP3    H269074   1.374   2.059  14.936  0.1601 -1.4192  0.5385
15887TIP3   OH269075   2.515   5.972   4.021 -0.0843 -0.1857 -0.0580
15887TIP3    H169076   2.477   6.019   4.096  1.1028  2.3859 -0.9520
15887TIP3    H269077   2.597   5.936   4.055 -0.3866 -0.5181  0.3244
15888TIP3   OH269078   0.493   2.315   5.797  0.4281  0.2157 -1.0120
15888TIP3    H169079   0.453   2.402   5.789 -0.2154 -0.0716 -0.9608
15888TIP3    H269080   0.432   2.265   5.851  0.2836 -0.5695 -1.8712
15889TIP3   OH269081   1.370   2.972   3.033  0.5671  0.0012 -0.3372
15889TIP3    H169082   1.332   2.884   3.029 -0.6185  0.5404 -2.7955
15889TIP3    H269083   1.358   2.999   3.124  0.3787 -2.1056  0.3283
15890TIP3   OH269084   4.187   2.489   1.913 -0.1000 -0.0580 -0.6733
15890TIP3    H169085   4.102   2.508   1.873 -0.1324 -0.2620 -0.7014
15890TIP3    H269086   4.247   2.548   1.869 -0.2585  0.2180 -0.5237
15891TIP3   OH269087   1.695   6.442  11.563 -0.5892  0.1141 -0.5520
15891TIP3    H169088   1.685   6.532  11.533  1.0219 -0.4223 -3.1284
15891TIP3    H269089   1.789   6.433  11.582 -0.2990 -1.4639 -2.3454
15892TIP3   OH269090   2.184   4.463   5.362 -0.5057 -0.0831  0.2595
15892TIP3    H169091   2.251   4.470   5.294 -0.7786 -0.2094 -0.0296
15892TIP3    H269092   2.230   4.477   5.444  0.0068 -0.9215  0.1202
15893TIP3   OH269093   5.077   6.753  15.691  0.3599 -0.2018  0.3423
15893TIP3    H169094   5.070   6.713  15.604 -0.2814 -2.1074  1.2163
15893TIP3    H269095   5.151   6.814  15.683  0.7364 -0.8139 -1.3472
15894TIP3   OH269096   2.780   3.505   3.649  0.0634 -0.5028  0.3357
15894TIP3    H169097   2.691   3.482   3.621 -0.1214  0.0399  0.4602
15894TIP3    H269098   2.773   3.596   3.678  0.9332 -0.0310 -0.8521
15895TIP3   OH269099   0.906   1.097   3.196  0.4779  0.3383 -0.4212
15895TIP3    H169100   0.914   1.193   3.192  0.9999  0.2608 -2.5827
15895TIP3    H269101   0.842   1.076   3.128  0.1286 -0.8324  0.2538
15896TIP3   OH269102   5.306   0.944   3.163 -0.3021 -0.4985  0.0666
15896TIP3    H169103   5.281   0.906   3.079  0.6690 -3.3415  0.9411
15896TIP3    H269104   5.376   1.006   3.142 -0.5346 -0.6669 -1.2673
15897TIP3   OH269105   2.833   3.310   0.551 -0.5189 -0.2169  0.2301
15897TIP3    H169106   2.889   3.235   0.574 -1.2708 -1.1371 -0.8278
15897TIP3    H269107   2.816   3.300   0.458 -0.1958  1.6044 -0.0615
15898TIP3   OH269108   5.026   1.032  14.354  0.2482 -0.3603  0.4858
15898TIP3    H169109   4.969   0.955  14.347  0.4063 -0.4101 -0.3068
15898TIP3    H269110   5.076   1.033  14.273  0.0744  0.7214  0.3729
15899TIP3   OH269111   4.118   3.776   5.906  0.3232 -0.0745  0.1698
15899TIP3    H169112   4.168   3.729   5.838  0.3680  0.8800 -0.4778
15899TIP3    H269113   4.041   3.809   5.860  0.8432  1.4330  0.3180
15900TIP3   OH269114   3.195   1.965  12.418 -0.1102  0.0532  0.5132
15900TIP3    H169115   3.184   1.871  12.426 -0.3444  0.1055  0.8586
15900TIP3    H269116   3.278   1.976  12.372  0.7090 -0.3079  1.8550
15901TIP3   OH269117   0.527   5.936  10.430 -0.5320 -0.0335  0.1590
15901TIP3    H169118   0.539   5.932  10.335  2.6925 -1.4153  0.4589
15901TIP3    H269119   0.455   5.996  10.444 -1.2093  0.0777 -3.1627
15902TIP3   OH269120   5.790   2.186   5.389  0.9449 -0.1648  0.3554
15902TIP3    H169121   5.733   2.191   5.312  1.2639 -0.9760  0.0553
15902TIP3    H269122   5.730   2.192   5.463  0.3157 -2.0795  0.0561
15903TIP3   OH269123   3.722   0.110  12.826  0.9261 -0.4790 -0.0343
15903TIP3    H169124   3.760   0.046  12.765  1.9058  1.6695 -1.7793
15903TIP3    H269125   3.796   0.146  12.874  0.3766 -0.6344  0.9690
15904TIP3   OH269126   0.287   4.660   0.722  0.2281 -0.1217 -0.1574
15904TIP3    H169127   0.299   4.732   0.661  0.2128 -0.7804 -0.9606
15904TIP3    H269128   0.194   4.638   0.715  0.1522  0.0215  0.3623
15905TIP3   OH269129   6.189   2.004   3.711  0.0483 -0.5691  0.5963
15905TIP3    H169130   6.261   2.033   3.767  0.7514 -1.2149  0.0476
15905TIP3    H269131   6.142   1.940   3.765  1.0116 -1.5594  0.3131
15906TIP3   OH269132   2.676   4.993  15.479  0.7870  0.3510  0.6377
15906TIP3    H169133   2.672   4.904  15.443 -0.7214  0.6222  0.0574
15906TIP3    H269134   2.675   4.981  15.574 -1.5555 -0.2431  0.5966
15907TIP3   OH269135   1.729   2.004   0.861  0.1993  0.1562  0.4638
15907TIP3    H169136   1.787   1.937   0.823 -0.2208 -0.2958  0.6044
15907TIP3    H269137   1.772   2.087   0.841  1.6813 -0.2319  1.8536
15908TIP3   OH269138   1.938   0.804   1.634  0.4511 -0.2524 -0.3534
15908TIP3    H169139   1.922   0.850   1.716  3.6178 -0.7134  0.6414
15908TIP3    H269140   1.876   0.843   1.573 -0.4885  1.6869  1.6892
15909TIP3   OH269141   0.525   6.133  16.538 -0.2146 -0.5262 -0.3658
15909TIP3    H169142   0.433   6.118  16.517 -0.1983 -2.0973  0.5017
15909TIP3    H269143   0.530   6.124  16.634  0.7542  0.0172 -0.3462
15910TIP3   OH269144   1.696   0.394   1.622  0.4773 -0.5217 -0.5295
15910TIP3    H169145   1.743   0.450   1.685 -1.6316  0.2984  0.4272
15910TIP3    H269146   1.737   0.412   1.538  0.5835  1.7137 -0.0672
15911TIP3   OH269147   2.065   0.288  14.884  0.4005  0.3331 -0.2995
15911TIP3    H169148   2.081   0.194  14.893  0.0292  0.4282  1.7598
15911TIP3    H269149   2.149   0.324  14.854  0.5901 -0.6123 -0.9407
15912TIP3   OH269150   0.157   5.394  15.080  0.4103 -0.6622 -0.0546
15912TIP3    H169151   0.076   5.375  15.127  1.4456 -1.5166  1.5032
15912TIP3    H269152   0.135   5.383  14.988 -2.0896  2.4397 -0.0279
15913TIP3   OH269153   3.380   5.206   5.498 -0.4847 -0.0025  0.0915
15913TIP3    H169154   3.347   5.122   5.528 -0.7153  0.3711  0.9059
15913TIP3    H269155   3.467   5.186   5.462 -0.0520 -0.4220  1.3220
15914TIP3   OH269156   6.058   6.148  13.396  0.7432  0.5714 -0.2656
15914TIP3    H169157   6.042   6.061  13.360 -1.1311  0.2259  1.2257
15914TIP3    H269158   6.038   6.208  13.324  2.2898 -0.1843 -1.3799
15915TIP3   OH269159   2.936   3.351  11.989  0.2302 -0.4312  0.6163
15915TIP3    H169160   3.025   3.337  11.957  0.0269  0.3608 -0.3220
15915TIP3    H269161   2.941   3.435  12.036  0.2176 -0.9182  1.4990
15916TIP3   OH269162   3.828   1.975  12.384 -0.5431 -0.5561 -0.4655
15916TIP3    H169163   3.857   1.937  12.467  1.4040 -0.4636 -1.0426
15916TIP3    H269164   3.862   2.065  12.386  1.4728 -1.1798 -2.2035
15917TIP3   OH269165   5.189   0.330  10.412  0.4137  0.0370  0.7371
15917TIP3    H169166   5.232   0.405  10.453  0.7685  0.4184 -0.3067
15917TIP3    H269167   5.258   0.290  10.358  0.0363 -0.6311  0.7409
15918TIP3   OH269168   1.141   5.186  16.768  0.8677 -0.0686 -0.2405
15918TIP3    H169169   1.050   5.158  16.756 -0.3361  2.2670  2.3632
15918TIP3    H269170   1.167   5.221  16.683 -1.2317  0.6282 -0.6409
15919TIP3   OH269171   3.024   2.733   0.850  0.2973 -0.1359  0.1896
15919TIP3    H169172   2.944   2.766   0.809 -0.0626 -0.6732  0.4457
15919TIP3    H269173   3.069   2.687   0.779 -0.0038 -0.4969  0.2238
15920TIP3   OH269174   0.335   0.722  15.185 -0.1908  0.0362 -1.0012
15920TIP3    H169175   0.257   0.677  15.217  0.3639 -0.8184 -0.8027
15920TIP3    H269176   0.378   0.754  15.265  2.1985 -3.7419 -0.5371
15921TIP3   OH269177   3.743   1.630   4.075  0.5857  0.5431  0.3003
15921TIP3    H169178   3.747   1.596   4.164 -0.2943 -0.7831 -0.1331
15921TIP3    H269179   3.832   1.622   4.042  0.5923 -0.4712  0.5455
15922TIP3   OH269180   2.158   1.163  13.452  0.3977 -0.4843  0.5158
15922TIP3    H169181   2.224   1.173  13.520  1.2409 -1.6500 -0.0943
15922TIP3    H269182   2.181   1.082  13.407 -0.3748  0.0282 -0.8954
15923TIP3   OH269183   5.755   0.664  11.499  0.3267 -0.6765  0.0066
15923TIP3    H169184   5.830   0.614  11.468  0.1495 -0.9477  0.0070
15923TIP3    H269185   5.757   0.655  11.594 -0.2167 -1.4382 -0.0463
15924TIP3   OH269186   0.760   5.914  11.768  0.1209 -0.4916 -0.2697
15924TIP3    H169187   0.680   5.891  11.815 -0.6821 -1.7921 -2.1229
15924TIP3    H269188   0.820   5.842  11.786  0.4054 -0.1777  0.0520
15925TIP3   OH269189   5.910   4.049  15.566 -0.5021  0.7468  0.3459
15925TIP3    H169190   5.885   3.973  15.513 -1.5307  0.1352  1.6399
15925TIP3    H269191   5.995   4.026  15.603 -0.1222  0.8715 -0.4219
15926TIP3   OH269192   2.497   6.794  10.808 -0.4622 -0.3297  0.3706
15926TIP3    H169193   2.436   6.729  10.772 -1.1342  1.0084 -1.0501
15926TIP3    H269194   2.581   6.775  10.766 -0.3685 -0.9726  0.8401
15927TIP3   OH269195   5.608   0.903  14.212  0.2103 -0.3886 -0.0673
15927TIP3    H169196   5.700   0.881  14.198 -0.1310 -1.9351 -0.0568
15927TIP3    H269197   5.559   0.833  14.168 -0.9891  1.0023 -1.0305
15928TIP3   OH269198   3.698   4.823  15.734  0.1523  0.0257 -0.4162
15928TIP3    H169199   3.789   4.841  15.759 -0.6173  0.8606  2.1530
15928TIP3    H269200   3.697   4.731  15.710  0.9662 -1.3365  3.8946
15929TIP3   OH269201   2.911   5.293   4.741 -0.3129 -0.4599  0.5265
15929TIP3    H169202   2.821   5.325   4.729  0.2331  1.5207  1.4063
15929TIP3    H269203   2.961   5.336   4.672  0.2047 -0.5093  0.8716
15930TIP3   OH269204   1.250   3.436   6.010  0.0841 -0.7459  0.1725
15930TIP3    H169205   1.304   3.509   6.041 -0.8620  0.3311 -0.6501
15930TIP3    H269206   1.228   3.387   6.089 -0.6671  0.8284  0.9845
15931TIP3   OH269207   6.413   5.310  13.625 -0.9051  0.4273 -0.1131
15931TIP3    H169208   6.378   5.229  13.588  0.8735 -1.4973  2.1266
15931TIP3    H269209   6.395   5.376  13.558 -1.7719 -1.9238 -2.3832
15932TIP3   OH269210   2.765   0.785   4.402  0.8408  0.1467  0.0364
15932TIP3    H169211   2.726   0.705   4.368 -0.7557  0.6202  0.6750
15932TIP3    H269212   2.802   0.759   4.487  0.1759  0.1050  0.3208
15933TIP3   OH269213   4.030   0.491  15.328 -0.5271 -0.4631 -0.4814
15933TIP3    H169214   3.954   0.503  15.385  0.4134  0.2847  0.6791
15933TIP3    H269215   4.069   0.409  15.358  0.4611  0.3645  0.6047
15934TIP3   OH269216   2.300   0.104   2.090  0.3975 -0.6280  0.2052
15934TIP3    H169217   2.301   0.042   2.017 -1.0713 -1.2594  0.6697
15934TIP3    H269218   2.208   0.129   2.098  0.4513 -0.9122  2.1208
15935TIP3   OH269219   0.483   1.258   2.788  0.2280 -0.2423 -0.0209
15935TIP3    H169220   0.422   1.322   2.826 -0.7083 -1.0170 -0.2104
15935TIP3    H269221   0.505   1.200   2.861  1.0338  0.2400  0.1360
15936TIP3   OH269222   4.277   5.873   4.888 -0.0350 -0.5844  0.2470
15936TIP3    H169223   4.250   5.948   4.836 -0.5217 -1.0894 -0.2447
15936TIP3    H269224   4.341   5.908   4.950 -1.4263  0.5616  1.0978
15937TIP3   OH269225   1.492   5.972  11.115 -0.4932  0.0154 -0.1175
15937TIP3    H169226   1.398   5.958  11.122 -0.5723  0.7278  0.3464
15937TIP3    H269227   1.501   6.052  11.063 -0.1298 -0.2842 -0.5229
15938TIP3   OH269228   1.420   2.398  13.192 -0.2245  0.4365  0.0672
15938TIP3    H169229   1.444   2.315  13.234  0.2336  1.6361  2.3371
15938TIP3    H269230   1.485   2.409  13.122  0.2940 -0.6615  0.3497
15939TIP3   OH269231   1.490   4.149  13.012  0.4622 -0.0211 -0.6447
15939TIP3    H169232   1.511   4.204  13.088  3.7190  1.7969 -2.6412
15939TIP3    H269233   1.429   4.202  12.961 -0.3908 -0.5174 -0.1639
15940TIP3   OH269234   3.644   4.129   3.509 -0.5330  0.1163  0.4413
15940TIP3    H169235   3.660   4.180   3.430 -1.5567  0.3474  0.3632
15940TIP3    H269236   3.624   4.041   3.477  0.2027 -0.0886  0.5196
15941TIP3   OH269237   6.649   4.816  16.467 -0.5229 -0.0655  0.3784
15941TIP3    H169238   6.554   4.813  16.467 -0.6363  1.6290 -1.2667
15941TIP3    H269239   6.676   4.726  16.449 -1.9301 -0.0590 -2.2742
15942TIP3   OH269240   2.594   3.838  13.967 -0.3466  0.1815  0.1616
15942TIP3    H169241   2.638   3.756  13.949 -1.2461 -0.5969  1.3038
15942TIP3    H269242   2.643   3.904  13.919 -0.6144 -1.2322 -2.1709
15943TIP3   OH269243   4.911   0.559   2.352  0.2342  0.4968 -0.0823
15943TIP3    H169244   4.921   0.523   2.263  1.2005  0.9040 -0.1567
15943TIP3    H269245   4.901   0.653   2.339 -0.6680  0.4490  0.1989
15944TIP3   OH269246   5.588   4.451   0.188  0.3612 -0.2283 -0.1953
15944TIP3    H169247   5.501   4.422   0.163  0.1589  0.6959 -0.6041
15944TIP3    H269248   5.583   4.547   0.187  0.9851 -0.1483  1.1544
15945TIP3   OH269249   0.096   1.882  16.770  0.0333 -0.3553  0.3886
15945TIP3    H169250   0.021   1.838  16.810  0.5419 -0.8693  0.7833
15945TIP3    H269251   0.158   1.892  16.842  0.3556  0.0538  0.0561
15946TIP3   OH269252   4.661   2.781  11.709  0.9865 -0.1845  0.4377
15946TIP3    H169253   4.628   2.698  11.742 -1.0438  0.4175  0.1157
15946TIP3    H269254   4.614   2.847  11.760  0.3273  0.7361 -1.2618
15947TIP3   OH269255   5.355   0.935  12.303  0.2011 -0.8578 -0.5540
15947TIP3    H169256   5.365   0.850  12.346  2.5670 -0.5282 -0.3060
15947TIP3    H269257   5.312   0.915  12.220 -0.7510 -2.0536  0.1938
15948TIP3   OH269258   3.833   0.958   0.517  0.1218 -0.9591 -0.3063
15948TIP3    H169259   3.856   0.878   0.470  0.7058 -0.7932 -0.3102
15948TIP3    H269260   3.854   0.939   0.609  0.7248 -0.6386 -0.3781
15949TIP3   OH269261   5.202   3.511   6.023 -0.4305 -0.1486  0.7204
15949TIP3    H169262   5.144   3.512   6.099  0.3091  0.8279  1.3012
15949TIP3    H269263   5.184   3.595   5.979 -1.6927 -1.1963 -0.8666
15950TIP3   OH269264   0.994   1.271   4.721 -0.2462 -0.3949  0.9284
15950TIP3    H169265   1.058   1.208   4.754 -1.3407 -1.8177  0.4624
15950TIP3    H269266   1.045   1.348   4.699  1.1011 -0.9723  1.8858
15951TIP3   OH269267   2.719   2.301   6.549  0.3053 -0.3483  0.1701
15951TIP3    H169268   2.666   2.285   6.470  1.8593 -0.8827 -0.8100
15951TIP3    H269269   2.654   2.314   6.618 -1.1311  0.2895 -1.2043
15952TIP3   OH269270   0.965   5.911  15.649 -0.3393 -0.5585  0.0963
15952TIP3    H169271   0.875   5.943  15.645  0.4923  1.9238 -0.4623
15952TIP3    H269272   1.009   5.954  15.576  1.9452  0.6328  2.0299
15953TIP3   OH269273   3.807   2.923  11.602  0.1483 -0.0563  0.0059
15953TIP3    H169274   3.737   2.858  11.598  1.7976 -1.9167 -0.0871
15953TIP3    H269275   3.810   2.950  11.694 -0.5679 -0.0727  0.0360
15954TIP3   OH269276   5.450   2.750   2.412  0.3064  0.2882 -0.7224
15954TIP3    H169277   5.523   2.794   2.369 -0.5339  0.2982 -2.2474
15954TIP3    H269278   5.481   2.661   2.428  0.5011  0.1383 -1.8355
15955TIP3   OH269279   4.319   6.383  13.504  0.1717 -0.0061  0.6815
15955TIP3    H169280   4.256   6.369  13.575  0.2924 -1.4255  0.5415
15955TIP3    H269281   4.265   6.388  13.425 -0.2236  4.1207  1.0054
15956TIP3   OH269282   4.531   0.808  10.926  0.0054 -0.1412 -0.6713
15956TIP3    H169283   4.535   0.881  10.864 -2.2033  0.3502 -0.3077
15956TIP3    H269284   4.449   0.763  10.906  0.3259 -1.3053  0.4741
15957TIP3   OH269285   6.418   0.344   3.277  0.1248 -0.0880 -0.0295
15957TIP3    H169286   6.467   0.284   3.333  0.0025  0.9052  1.1814
15957TIP3    H269287   6.327   0.333   3.303 -0.0553 -0.3240 -0.7314
15958TIP3   OH269288   2.718   4.722  13.129  1.0479 -0.5255  0.0975
15958TIP3    H169289   2.741   4.806  13.169  1.7099 -0.7459  0.1951
15958TIP3    H269290   2.661   4.745  13.056 -0.1254 -0.1036  1.1091
15959TIP3   OH269291   0.771   1.944   5.176 -0.2418 -0.0247  0.1330
15959TIP3    H169292   0.838   1.885   5.142 -0.0500  0.0724  0.3403
15959TIP3    H269293   0.785   2.026   5.130  0.0855  0.1389  0.5197
15960TIP3   OH269294   6.606   3.466  14.652 -0.2014 -0.1512 -0.0259
15960TIP3    H169295   6.529   3.414  14.628 -1.9907  1.9117  0.8893
15960TIP3    H269296   6.598   3.476  14.747 -0.2955  2.2512 -0.2406
15961TIP3   OH269297   0.897   5.185  14.541  0.4024 -0.4839 -0.5799
15961TIP3    H169298   0.919   5.186  14.634  1.4485  1.5742 -0.7963
15961TIP3    H269299   0.862   5.272  14.524  2.6109  0.1018 -2.6192
15962TIP3   OH269300   5.401   5.104  15.969  0.1492 -0.9616  0.2282
15962TIP3    H169301   5.434   5.053  15.895  1.3819  0.0912  0.0226
15962TIP3    H269302   5.341   5.167  15.930  1.5312  0.2354 -0.0471
15963TIP3   OH269303   2.589   6.326  15.516  0.4587  0.2062 -0.0074
15963TIP3    H169304   2.513   6.331  15.458  0.7403 -2.6722 -0.7679
15963TIP3    H269305   2.661   6.300  15.458  1.9333  2.1451  0.8263
15964TIP3   OH269306   1.172   0.972   2.602  0.2211 -0.0963  0.7120
15964TIP3    H169307   1.207   0.887   2.575 -0.4795 -0.3166  0.4558
15964TIP3    H269308   1.183   1.028   2.525 -0.0117 -0.1726  0.6229
15965TIP3   OH269309   5.612   0.651   5.135  0.0823  0.5122 -0.0979
15965TIP3    H169310   5.595   0.562   5.103 -1.5428  0.5504  0.5725
15965TIP3    H269311   5.684   0.640   5.197  0.1650 -0.2621 -0.3104
15966TIP3   OH269312   0.276   2.180   2.804 -0.2529 -0.4153 -0.0251
15966TIP3    H169313   0.368   2.206   2.792 -0.5167  1.4457  1.5129
15966TIP3    H269314   0.269   2.159   2.897 -1.6228  0.6075  0.1296
15967TIP3   OH269315   3.117   1.180  15.299  0.1662 -0.1642 -0.4049
15967TIP3    H169316   3.184   1.248  15.308  0.0818 -0.0963 -0.2980
15967TIP3    H269317   3.053   1.199  15.367  0.1828 -0.3994 -0.3238
15968TIP3   OH269318   5.441   1.061  13.742 -0.0181 -0.3430  0.5378
15968TIP3    H169319   5.424   0.975  13.780  0.0859 -0.4047  0.4469
15968TIP3    H269320   5.533   1.078  13.762  0.3177 -0.8134 -0.5366
15969TIP3   OH269321   1.071   4.107   4.504  0.3554 -0.0763 -0.2799
15969TIP3    H169322   1.053   4.200   4.512 -0.8386 -0.3453  0.5411
15969TIP3    H269323   1.040   4.084   4.416 -2.3096 -0.2521  0.6051
15970TIP3   OH269324   4.495   4.089   2.983  0.0231 -0.2325 -0.3929
15970TIP3    H169325   4.508   4.053   3.071 -0.2730  1.2084  0.2767
15970TIP3    H269326   4.418   4.042   2.949 -1.3364  0.7992  1.0889
15971TIP3   OH269327   0.972   5.486  16.495  0.1452 -0.4319  0.2990
15971TIP3    H169328   1.034   5.557  16.479  0.9270 -0.9108  1.1371
15971TIP3    H269329   0.899   5.505  16.436  0.2334  1.1809  0.6659
15972TIP3   OH269330   2.812   2.355   3.533 -0.1659  0.1696  0.0014
15972TIP3    H169331   2.753   2.318   3.468 -0.0181  0.9390 -0.5763
15972TIP3    H269332   2.821   2.447   3.508 -0.6466  0.6583  1.4936
15973TIP3   OH269333   2.381   3.670  14.833 -0.0013  0.0153 -0.3857
15973TIP3    H169334   2.458   3.702  14.785  0.5904 -1.0470 -0.1655
15973TIP3    H269335   2.408   3.585  14.867 -1.2377 -0.3064 -0.1871
15974TIP3   OH269336   0.730   4.288  14.884 -0.0424  0.2408  0.4608
15974TIP3    H169337   0.775   4.278  14.968 -1.9568  0.3401  1.5592
15974TIP3    H269338   0.659   4.349  14.902 -1.8450 -1.3971 -0.6486
15975TIP3   OH269339   1.781   0.008  10.760 -0.2392  0.3547  0.0036
15975TIP3    H169340   1.771   0.088  10.708 -3.6792  1.1659  1.6226
15975TIP3    H269341   1.710  -0.049  10.732 -1.4599  0.3292  2.8272
15976TIP3   OH269342   5.760   4.436   0.427  0.6817 -0.2824  0.1395
15976TIP3    H169343   5.736   4.402   0.341  2.3684  0.2838 -0.6117
15976TIP3    H269344   5.749   4.531   0.419  2.6749 -0.0287 -0.1446
15977TIP3   OH269345   2.400   6.385  14.518  0.0965 -0.4279  0.0968
15977TIP3    H169346   2.437   6.315  14.464 -1.6734 -1.2036 -0.1955
15977TIP3    H269347   2.305   6.376  14.507 -0.2027  2.0350  0.0645
15978TIP3   OH269348   0.029   2.089  12.966  0.0696 -0.3959  0.3908
15978TIP3    H169349  -0.022   2.158  13.008  0.4997  0.6212 -0.7140
15978TIP3    H269350   0.096   2.066  13.030 -1.5818 -1.6078  1.7825
15979TIP3   OH269351   6.270   4.091  16.355  0.2946 -0.3408 -0.2961
15979TIP3    H169352   6.193   4.112  16.408  0.5648 -1.3845  0.5281
15979TIP3    H269353   6.340   4.144  16.392 -0.2998  1.8123 -2.0186
15980TIP3   OH269354   2.960   5.824   4.977 -0.2274  0.2064  0.1037
15980TIP3    H169355   3.038   5.877   4.960 -0.5473  0.5556 -0.2729
15980TIP3    H269356   2.928   5.854   5.062 -2.9846  3.8452 -1.9714
15981TIP3   OH269357   1.448   3.414   5.032  0.3133 -1.0841 -0.7591
15981TIP3    H169358   1.428   3.353   5.103  0.3648 -0.7193 -0.4240
15981TIP3    H269359   1.543   3.420   5.032  0.2657  0.2222  0.2886
15982TIP3   OH269360   1.003   1.124   1.054 -0.3438  0.0684 -0.2452
15982TIP3    H169361   0.916   1.133   1.014 -0.5485 -1.1296 -0.0930
15982TIP3    H269362   1.032   1.036   1.030  0.5986  0.2505  0.1736
15983TIP3   OH269363   5.929   6.793   1.712 -0.4491 -0.2971  0.3443
15983TIP3    H169364   5.956   6.715   1.761 -1.3921 -1.2991 -0.6708
15983TIP3    H269365   5.948   6.866   1.771  2.6289 -1.0399  0.4418
15984TIP3   OH269366   2.101   1.916  12.161 -0.1501  0.2149  0.6098
15984TIP3    H169367   2.038   1.924  12.232  1.3519  3.4171  1.7516
15984TIP3    H269368   2.073   1.982  12.097  0.6585 -0.0150  0.0035
15985TIP3   OH269369   2.376   5.514   0.922 -0.3820  0.0461 -0.0500
15985TIP3    H169370   2.337   5.601   0.921  1.3479  0.8482 -0.5802
15985TIP3    H269371   2.335   5.469   0.848 -0.9422  0.5576 -0.0602
15986TIP3   OH269372   2.586   4.248  12.712 -0.2599 -0.3910 -0.0974
15986TIP3    H169373   2.616   4.212  12.628 -0.0193 -0.8762  0.1916
15986TIP3    H269374   2.511   4.304  12.689  0.6660  0.6081 -0.7975
15987TIP3   OH269375   0.285   1.128   6.518 -0.6922 -0.3247 -0.0640
15987TIP3    H169376   0.254   1.074   6.446  1.3855  0.9445 -2.0760
15987TIP3    H269377   0.376   1.099   6.532 -0.4456  0.7605  0.6977
15988TIP3   OH269378   4.095   4.712  15.240 -0.0945  0.7818  0.4111
15988TIP3    H169379   4.080   4.633  15.292  0.3565  0.3014 -0.1712
15988TIP3    H269380   4.009   4.752  15.232 -0.1580  0.9126  1.5958
15989TIP3   OH269381   3.478   4.806  11.932  0.3404 -0.0803  0.1892
15989TIP3    H169382   3.411   4.833  11.995  1.4082  0.7468  1.0116
15989TIP3    H269383   3.437   4.819  11.846 -0.2968  1.1105  0.6592
15990TIP3   OH269384   1.673   6.230  12.846 -0.4944  0.1099 -0.0041
15990TIP3    H169385   1.637   6.143  12.831 -1.1306  0.1850  0.9901
15990TIP3    H269386   1.600   6.280  12.883 -0.2882  1.2179 -1.0355
15991TIP3   OH269387   6.125   2.383  14.264 -0.3389 -0.0960 -0.6217
15991TIP3    H169388   6.105   2.467  14.222 -0.5562  0.2550  0.1752
15991TIP3    H269389   6.206   2.399  14.313  0.4376 -0.7673 -1.6493
15992TIP3   OH269390   2.648   6.144  13.091 -0.3229  0.3332 -0.2096
15992TIP3    H169391   2.596   6.132  13.169 -0.0624  2.2970  0.3199
15992TIP3    H269392   2.725   6.193  13.120  0.5435 -0.2158 -1.4363
15993TIP3   OH269393   2.029   3.811   2.709  0.4353 -0.0620 -0.3191
15993TIP3    H169394   2.107   3.866   2.718  0.4718 -0.1891  0.1686
15993TIP3    H269395   2.044   3.737   2.769 -0.0260 -0.1251 -0.2756
15994TIP3   OH269396   0.716   1.039  14.087  0.4673  0.1736 -0.5503
15994TIP3    H169397   0.766   0.997  14.157  1.4147  1.0269 -0.6822
15994TIP3    H269398   0.679   0.967  14.036  0.8870 -0.4658  0.0405
15995TIP3   OH269399   3.748   4.659  17.038  0.1906  0.0293  0.9308
15995TIP3    H169400   3.692   4.594  16.996  0.6762 -0.9387  1.7473
15995TIP3    H269401   3.710   4.672  17.125 -0.0379  1.0241  0.6952
15996TIP3   OH269402   2.637   5.904   1.633  0.2074 -0.2566  0.0004
15996TIP3    H169403   2.586   5.897   1.552 -0.5102 -1.2454  0.5283
15996TIP3    H269404   2.572   5.905   1.703  0.8917 -1.9971  0.7168
15997TIP3   OH269405   1.001   3.992  13.140  0.4479  0.0134  0.3515
15997TIP3    H169406   0.936   3.951  13.083  1.0880  0.0560 -0.4173
15997TIP3    H269407   0.990   3.946  13.224 -0.6389  0.0935  0.2745
15998TIP3   OH269408   0.540   4.991  10.789 -0.8719  0.5166 -0.2804
15998TIP3    H169409   0.617   4.944  10.759  0.1517  1.5248  0.6593
15998TIP3    H269410   0.564   5.084  10.782 -1.7303  0.8300  0.6696
15999TIP3   OH269411   2.926   4.370   4.481  0.1812 -0.2484  0.2939
15999TIP3    H169412   2.863   4.330   4.541 -0.3505 -1.6670 -1.1621
15999TIP3    H269413   3.002   4.312   4.483  0.6083  0.2995  0.4006
16000TIP3   OH269414   0.097   5.364   3.230  0.4649  0.0280  0.3064
16000TIP3    H169415   0.101   5.385   3.137 -0.2167  0.2001  0.3097
16000TIP3    H269416   0.009   5.328   3.243  0.4765  0.2105  0.9230
16001TIP3   OH269417   5.265   2.010   5.940 -0.1135  0.3303  0.0643
16001TIP3    H169418   5.275   1.917   5.959  0.9475  0.5866  0.8392
16001TIP3    H269419   5.171   2.025   5.944 -0.2029 -0.4404  1.2776
16002TIP3   OH269420   2.829   4.404  11.007 -0.1396 -0.2524  0.5508
16002TIP3    H169421   2.882   4.394  10.928  1.5140  0.0312  1.5827
16002TIP3    H269422   2.834   4.497  11.028 -0.5356 -0.3350  1.0337
16003TIP3   OH269423   0.396   0.096  14.225  0.5508  0.1614 -0.0710
16003TIP3    H169424   0.356   0.085  14.139  0.5344  0.9381 -0.1762
16003TIP3    H269425   0.324   0.083  14.287  0.1775  1.2262 -0.2465
16004TIP3   OH269426   3.763   3.970   0.939  0.3984 -0.0141  0.4759
16004TIP3    H169427   3.825   4.007   1.001  0.0397  0.5011  0.5360
16004TIP3    H269428   3.734   4.044   0.886 -0.9223 -0.0345  1.1126
16005TIP3   OH269429   3.558   3.359  15.865 -0.0316  0.6045  0.3211
16005TIP3    H169430   3.617   3.298  15.822  0.8790  1.2305  0.6630
16005TIP3    H269431   3.524   3.414  15.794 -0.5353 -0.0126  0.0714
16006TIP3   OH269432   0.955   4.289  11.101 -0.1168 -0.2698  0.3194
16006TIP3    H169433   0.918   4.327  11.022 -1.5316  0.0063  1.0838
16006TIP3    H269434   1.001   4.210  11.071  0.5588  0.5672 -0.9305
16007TIP3   OH269435   4.292   1.143  14.005 -0.1596  0.0856  0.5846
16007TIP3    H169436   4.345   1.153  13.927  0.9089  0.5246  1.3509
16007TIP3    H269437   4.202   1.152  13.974  0.1808 -0.7272 -0.7362
16008TIP3   OH269438   4.253   1.886  14.333  0.1542 -0.5925 -0.1103
16008TIP3    H169439   4.240   1.974  14.369  2.0258 -0.1351 -0.4395
16008TIP3    H269440   4.332   1.854  14.377 -0.2570 -1.9425 -0.3202
16009TIP3   OH269441   2.681   4.633  14.227 -0.2890 -0.1223 -0.4664
16009TIP3    H169442   2.639   4.693  14.288  0.3206  0.6047 -0.7376
16009TIP3    H269443   2.767   4.616  14.266  0.5968  1.3351 -1.7032
16010TIP3   OH269444   0.203   3.158   3.548 -0.0919 -0.7506 -0.3718
16010TIP3    H169445   0.259   3.103   3.603  0.5930  0.0971 -0.2060
16010TIP3    H269446   0.244   3.154   3.462 -1.4901 -2.5611 -1.0409
16011TIP3   OH269447   3.430   4.675   5.309  0.6350  0.4416 -0.2044
16011TIP3    H169448   3.466   4.599   5.354  0.1336 -0.8760 -1.9295
16011TIP3    H269449   3.361   4.640   5.253 -0.7656  2.3949  0.1716
16012TIP3   OH269450   1.097   1.785   5.679  0.7077  0.1199  0.0275
16012TIP3    H169451   1.133   1.818   5.762  0.4313 -1.5406  0.8545
16012TIP3    H269452   1.143   1.702   5.665 -1.1239 -0.9200 -0.0890
16013TIP3   OH269453   1.241   3.674  13.559  0.1226  0.3277 -0.0801
16013TIP3    H169454   1.258   3.620  13.482  0.7742 -1.9152  1.5518
16013TIP3    H269455   1.273   3.761  13.535  2.0327 -0.7523 -1.6981
16014TIP3   OH269456   5.758   0.847  12.971 -0.0950  0.0036  0.4284
16014TIP3    H169457   5.740   0.828  13.063 -0.0575 -0.0227  0.4299
16014TIP3    H269458   5.695   0.794  12.923  1.6281 -2.1034  0.3358
16015TIP3   OH269459   3.513   6.129   0.657  0.2300  0.8448  0.2492
16015TIP3    H169460   3.559   6.045   0.658 -0.6104  0.3595  1.7166
16015TIP3    H269461   3.426   6.109   0.622  0.4411  1.3751 -0.6220
16016TIP3   OH269462   4.468   4.379  14.743  0.8439 -0.1093  0.1315
16016TIP3    H169463   4.480   4.474  14.733 -2.2877  0.4144  0.3834
16016TIP3    H269464   4.505   4.359  14.829  1.0057  0.9934  0.3384
16017TIP3   OH269465   0.655   5.831  12.099 -0.2871  0.2664 -0.2954
16017TIP3    H169466   0.617   5.901  12.153  0.3568  1.5043 -1.3967
16017TIP3    H269467   0.581   5.797  12.050 -0.8120 -0.6189  1.0645
16018TIP3   OH269468   5.318   6.208   5.024  0.0574  0.4042  0.4085
16018TIP3    H169469   5.369   6.156   4.962 -0.3700 -0.3935  0.7153
16018TIP3    H269470   5.233   6.220   4.981 -0.1962 -0.0403  0.7794
16019TIP3   OH269471   0.809   2.808   1.133  0.1134 -0.1180 -0.2918
16019TIP3    H169472   0.743   2.740   1.146 -1.7902  1.8707  1.2594
16019TIP3    H269473   0.877   2.766   1.080 -2.3054 -2.3444 -1.8862
16020TIP3   OH269474   0.154   4.846  12.039  0.2845  0.1710  0.3017
16020TIP3    H169475   0.126   4.870  12.127  2.6795 -0.4619  1.3219
16020TIP3    H269476   0.181   4.755  12.046 -0.0723 -0.0787 -1.2575
16021TIP3   OH269477   3.339   6.156  14.636  0.2149  0.0279 -0.1944
16021TIP3    H169478   3.424   6.197  14.619 -1.0834  2.7217 -0.7022
16021TIP3    H269479   3.330   6.158  14.731  0.4288  0.3865 -0.1798
16022TIP3   OH269480   2.174   3.061   4.380  0.1417 -0.0524 -0.3453
16022TIP3    H169481   2.237   2.998   4.414 -0.6997 -0.9714 -0.4316
16022TIP3    H269482   2.202   3.076   4.289  2.3020  2.2965  0.6092
16023TIP3   OH269483   4.470   5.531   3.235 -0.0367  0.1751 -0.0499
16023TIP3    H169484   4.553   5.579   3.232  0.0346  0.1589  1.4210
16023TIP3    H269485   4.469   5.487   3.320 -2.0783  1.1485  0.5019
16024TIP3   OH269486   3.865   3.025   1.631  0.2163  0.5669  0.3944
16024TIP3    H169487   3.847   2.961   1.563  1.6006  0.3220  0.2300
16024TIP3    H269488   3.945   2.993   1.674 -0.8261  0.4985  2.4007
16025TIP3   OH269489   3.012   3.173  13.806  0.4756  0.1379  0.1761
16025TIP3    H169490   3.045   3.159  13.718  1.2468 -1.0120  0.6146
16025TIP3    H269491   3.039   3.094  13.854 -0.1751  0.6112  1.3597
16026TIP3   OH269492   6.172   1.156   3.469 -0.0615  0.4242 -0.0431
16026TIP3    H169493   6.101   1.209   3.432  0.1126 -1.0421 -2.8084
16026TIP3    H269494   6.128   1.089   3.520 -0.6413  0.0313 -1.0381
16027TIP3   OH269495   3.384   2.073  15.515  0.3351 -0.1673 -0.1831
16027TIP3    H169496   3.382   1.990  15.562  0.0927 -0.0193  0.0689
16027TIP3    H269497   3.447   2.058  15.444  2.0488  0.1521  1.1892
16028TIP3   OH269498   2.799   5.047  16.813 -0.3807  0.6888  0.2750
16028TIP3    H169499   2.796   5.131  16.767  1.4388  1.2091  1.0631
16028TIP3    H269500   2.860   4.994  16.761  0.1412  0.5979  0.9769
16029TIP3   OH269501   2.488   1.201  12.649  0.6220  0.3670  0.3454
16029TIP3    H169502   2.410   1.213  12.594  0.2270  1.2829  1.0612
16029TIP3    H269503   2.453   1.182  12.736  1.2319 -0.5881  0.3947
16030TIP3   OH269504   2.787   6.742  15.780  0.2382 -0.4846  0.1473
16030TIP3    H169505   2.860   6.748  15.718  0.4671 -0.9005  0.3756
16030TIP3    H269506   2.818   6.787  15.858  0.5174 -1.2891  0.4979
16031TIP3   OH269507   0.193   4.796  15.419 -0.3782  0.4144  0.3741
16031TIP3    H169508   0.242   4.785  15.500  1.4153 -0.1480 -0.7442
16031TIP3    H269509   0.136   4.719  15.415  1.6761 -1.1674 -0.2983
16032TIP3   OH269510   6.613   4.137  13.087  0.4496  0.0078 -0.0141
16032TIP3    H169511   6.579   4.117  13.000  0.2204  0.0742  0.0608
16032TIP3    H269512   6.560   4.211  13.118 -1.1466 -1.5435  1.1938
16033TIP3   OH269513   5.731   2.544  11.637 -0.0843 -0.1579 -0.1296
16033TIP3    H169514   5.709   2.625  11.683 -0.3067 -0.4584  0.2863
16033TIP3    H269515   5.785   2.574  11.563 -0.3948  0.3964 -0.1386
16034TIP3   OH269516   5.397   5.152   2.658  0.4236  0.4426  0.4705
16034TIP3    H169517   5.423   5.064   2.684 -1.2771 -0.4453 -0.6561
16034TIP3    H269518   5.329   5.177   2.721 -0.4390  0.1573 -0.3311
16035TIP3   OH269519   0.755   6.453  13.042  0.1940  0.0441  0.1921
16035TIP3    H169520   0.716   6.475  12.957 -0.2090  0.1352  0.3985
16035TIP3    H269521   0.835   6.404  13.020 -2.0431 -3.8094 -0.2844
16036TIP3   OH269522   2.590   3.704  15.539  0.6106 -0.0089 -0.4887
16036TIP3    H169523   2.622   3.676  15.625 -0.9734  0.9214  0.4536
16036TIP3    H269524   2.644   3.654  15.477  0.9436 -1.6902  1.0329
16037TIP3   OH269525   1.994   1.671  16.586  0.5522  0.3733 -0.7012
16037TIP3    H169526   1.921   1.714  16.630 -0.3318  0.0699 -1.8139
16037TIP3    H269527   2.019   1.600  16.646 -0.0806  0.4677 -0.3079
16038TIP3   OH269528   1.921   1.879   6.217  0.1699  0.4274  0.3685
16038TIP3    H169529   1.888   1.841   6.298  0.1901  0.1772  0.2627
16038TIP3    H269530   1.884   1.823   6.148 -0.0070  0.7542  0.1959
16039TIP3   OH269531   5.943   2.009  13.264  0.0664  0.1425  0.1474
16039TIP3    H169532   5.873   2.073  13.253  0.0945  0.2269  0.4353
16039TIP3    H269533   6.018   2.047  13.218 -0.6161 -0.8908 -1.9496
16040TIP3   OH269534   1.472   2.518  11.760 -0.0919  0.0458  0.4988
16040TIP3    H169535   1.435   2.430  11.749  0.4792 -0.1543  0.1164
16040TIP3    H269536   1.506   2.541  11.673 -1.5706  1.2742  0.1962
16041TIP3   OH269537   1.043   5.862   5.716 -0.0410 -0.0365 -0.2832
16041TIP3    H169538   1.121   5.889   5.764 -0.6429  1.6440 -0.1609
16041TIP3    H269539   0.995   5.944   5.702 -2.0115 -1.0757  0.0679
16042TIP3   OH269540   0.428   4.575   2.555  0.1510  0.3941 -0.4832
16042TIP3    H169541   0.422   4.540   2.466 -0.6531  0.0395 -0.3022
16042TIP3    H269542   0.481   4.511   2.602 -1.2562 -0.6155 -0.1723
16043TIP3   OH269543   4.907   5.534  13.861  0.1218 -0.0230  0.0182
16043TIP3    H169544   4.992   5.503  13.893  0.5354  0.8602 -0.2006
16043TIP3    H269545   4.928   5.598  13.793 -0.7045  0.7164  0.4307
16044TIP3   OH269546   5.404   0.399  12.532 -0.0540 -0.4005 -0.0044
16044TIP3    H169547   5.477   0.337  12.523 -0.3150 -1.2436  2.8103
16044TIP3    H269548   5.431   0.458  12.602 -0.9886  0.9613 -0.7545
16045TIP3   OH269549   2.056   0.002  13.475 -0.0788 -0.2692  0.0577
16045TIP3    H169550   2.010   0.086  13.478  0.7313  0.1894  0.0024
16045TIP3    H269551   1.986  -0.063  13.461 -0.6108  0.5069 -1.1539
16046TIP3   OH269552   1.965   3.856  16.533  0.3033  0.0201 -0.0074
16046TIP3    H169553   1.948   3.762  16.524  1.5379 -0.8086  3.9169
16046TIP3    H269554   2.044   3.871  16.481 -0.9267 -0.6456 -2.1479
16047TIP3   OH269555   6.652   5.264   3.244  0.5856 -0.0372  0.8910
16047TIP3    H169556   6.584   5.216   3.198  1.9911 -0.9030 -0.4016
16047TIP3    H269557   6.667   5.215   3.325  0.6393 -0.6390  0.5186
16048TIP3   OH269558   2.894   0.591   5.425  0.0016 -0.1432 -0.0546
16048TIP3    H169559   2.853   0.624   5.506  1.2406  0.2820  0.4355
16048TIP3    H269560   2.853   0.506   5.410  0.0442 -0.4357  1.2869
16049TIP3   OH269561   5.678   0.616   3.457 -0.2274 -0.2219  0.0832
16049TIP3    H169562   5.607   0.676   3.433 -1.0913 -0.8783  0.8974
16049TIP3    H269563   5.746   0.632   3.392 -0.9890  0.6619 -0.5294
16050TIP3   OH269564   3.743   6.555   5.718  0.2725  0.1439 -0.3803
16050TIP3    H169565   3.784   6.470   5.704  1.2484  0.3886  0.8463
16050TIP3    H269566   3.658   6.548   5.674 -0.5391 -2.1898  1.3511
16051TIP3   OH269567   2.813   0.451  13.574 -0.1777 -0.7314  0.1452
16051TIP3    H169568   2.733   0.499  13.593  0.9241  1.0594  0.4846
16051TIP3    H269569   2.883   0.507  13.606  1.2976 -1.6380 -1.3055
16052TIP3   OH269570   4.824   3.314   5.665 -0.1574 -0.3764  0.3348
16052TIP3    H169571   4.843   3.406   5.681 -1.2232 -0.5191  2.8619
16052TIP3    H269572   4.904   3.268   5.691  0.6046 -0.1969 -1.5123
16053TIP3   OH269573   0.118   2.913  14.314 -0.3769 -0.0449  0.2616
16053TIP3    H169574   0.176   2.852  14.269 -1.5850 -0.3371 -1.0092
16053TIP3    H269575   0.066   2.953  14.243  0.4823  2.6244  1.0137
16054TIP3   OH269576   1.170   2.836   2.161 -0.2693 -0.0777 -0.5933
16054TIP3    H169577   1.249   2.849   2.212  1.1746  0.7256 -2.8821
16054TIP3    H269578   1.168   2.909   2.099 -2.3172 -0.5586 -1.1999
16055TIP3   OH269579   4.358   5.065  12.727  0.1359 -0.1852 -0.0054
16055TIP3    H169580   4.322   5.009  12.796  0.6528 -0.3770  0.1075
16055TIP3    H269581   4.376   5.149  12.770 -0.1397 -0.0970 -0.0569
16056TIP3   OH269582   0.339   0.646  11.695 -0.0196  0.0379 -0.0472
16056TIP3    H169583   0.271   0.705  11.724  0.1659  0.6890 -0.8899
16056TIP3    H269584   0.330   0.643  11.599  0.9266 -0.1119 -0.1491
16057TIP3   OH269585   6.200   1.559   4.526 -0.1058  0.1995  0.0329
16057TIP3    H169586   6.290   1.588   4.540 -0.1226 -0.4556  1.7800
16057TIP3    H269587   6.206   1.491   4.460  0.1839  2.6106 -2.6102
16058TIP3   OH269588   4.572   0.019  11.372 -0.0934 -0.1210 -0.2297
16058TIP3    H169589   4.627   0.037  11.297 -1.0566  0.1787 -0.8873
16058TIP3    H269590   4.572  -0.076  11.380 -0.7370 -0.2151 -1.2076
16059TIP3   OH269591   1.322   2.989  11.481 -0.2491  0.2836 -0.0136
16059TIP3    H169592   1.409   2.988  11.439 -0.6320  0.2540 -0.8329
16059TIP3    H269593   1.271   3.050  11.428 -0.4627  1.0515  1.0500
16060TIP3   OH269594   4.313   1.261  13.439  0.2937 -0.5510  0.5818
16060TIP3    H169595   4.314   1.302  13.353  1.0631 -0.9567  0.3844
16060TIP3    H269596   4.381   1.308  13.488 -2.9935  2.7363  2.4886
16061TIP3   OH269597   6.710   0.571  11.486 -0.0615 -0.8387  0.7576
16061TIP3    H169598   6.759   0.653  11.488 -0.6941 -0.4035 -0.5163
16061TIP3    H269599   6.619   0.596  11.502 -0.2385 -1.3113  0.5227
16062TIP3   OH269600   1.561   5.932  11.996  0.3560 -0.1812  0.1538
16062TIP3    H169601   1.544   5.975  12.080  1.2206 -0.8301  0.6716
16062TIP3    H269602   1.576   5.841  12.019 -1.3073 -0.7704 -0.9140
16063TIP3   OH269603   2.344   0.232   4.728  0.2035  0.0124 -0.6941
16063TIP3    H169604   2.347   0.322   4.697  1.7561 -0.0128 -0.7356
16063TIP3    H269605   2.352   0.239   4.823 -0.7027 -0.0575 -0.6042
16064TIP3   OH269606   1.938   2.301   4.964 -0.6266 -0.4306 -0.2551
16064TIP3    H169607   1.943   2.378   4.908 -2.4369 -1.1637 -1.5207
16064TIP3    H269608   1.995   2.237   4.922  0.6648  0.1078  0.6461
16065TIP3   OH269609   1.279   6.200  13.155  0.1379  0.0385  0.1417
16065TIP3    H169610   1.263   6.191  13.249 -0.7110  1.8442  0.2050
16065TIP3    H269611   1.253   6.116  13.118  1.7282 -1.1945  1.6397
16066TIP3   OH269612   3.315   4.995  12.764 -0.4640  0.0680 -0.0491
16066TIP3    H169613   3.223   4.975  12.746 -0.3844  0.5126 -1.0076
16066TIP3    H269614   3.360   4.911  12.754 -0.7819 -0.1893  0.6106
16067TIP3   OH269615   3.512   1.153  16.164  0.1341 -0.6652 -0.1041
16067TIP3    H169616   3.582   1.217  16.180 -1.3513  0.7788  0.8766
16067TIP3    H269617   3.490   1.165  16.072  0.0407  0.0831  0.0070
16068TIP3   OH269618   5.927   1.637   0.427 -0.4546 -0.8619  0.4643
16068TIP3    H169619   5.943   1.731   0.431  1.2214 -1.1095  0.2610
16068TIP3    H269620   5.848   1.624   0.480 -2.8424  1.0560 -2.3548
16069TIP3   OH269621   3.130   0.804   2.464 -0.3948  0.3879  0.1888
16069TIP3    H169622   3.176   0.831   2.543 -1.4951  0.0549  0.9630
16069TIP3    H269623   3.092   0.719   2.485 -0.0463 -0.0815 -0.9721
16070TIP3   OH269624   4.927   4.511   3.473  0.0584 -0.6730  0.2532
16070TIP3    H169625   4.947   4.469   3.389  2.8733  0.9980 -0.0694
16070TIP3    H269626   4.904   4.601   3.449  1.4208 -0.0290  1.2407
16071TIP3   OH269627   4.355   1.978  16.683 -0.3691  0.0215  0.0646
16071TIP3    H169628   4.439   1.958  16.724 -0.4486  3.3210  2.2899
16071TIP3    H269629   4.372   1.974  16.589  2.1895  0.1640  0.4520
16072TIP3   OH269630   2.903   4.327  15.404  0.1216  0.3382 -0.2176
16072TIP3    H169631   2.935   4.242  15.374  0.3144  0.3901 -0.1597
16072TIP3    H269632   2.979   4.385  15.396  0.2047  0.3328  0.4709
16073TIP3   OH269633   4.097   2.594  16.617 -0.1380  0.2466  0.4841
16073TIP3    H169634   4.064   2.679  16.645  0.8406  0.6872  0.3358
16073TIP3    H269635   4.128   2.608  16.528  2.6039  0.4839  1.4009
16074TIP3   OH269636   4.288   3.459  15.514  0.0946 -0.0607 -0.1110
16074TIP3    H169637   4.301   3.541  15.466  0.9028  0.3022  0.6975
16074TIP3    H269638   4.202   3.428  15.487  0.8368 -0.2979 -2.4325
16075TIP3   OH269639   0.051   1.204  14.556  0.8401  0.3575 -0.2423
16075TIP3    H169640   0.004   1.143  14.500  2.3696  0.1715 -1.3886
16075TIP3    H269641   0.049   1.163  14.643 -2.1312  0.9710  0.0646
16076TIP3   OH269642   5.576   2.436   6.248  0.3018 -0.0749 -0.2022
16076TIP3    H169643   5.561   2.528   6.272 -1.1764 -0.1728 -0.6566
16076TIP3    H269644   5.644   2.440   6.180  0.3461  0.6646 -0.1311
16077TIP3   OH269645   4.444   1.063  16.629 -0.7380 -0.4207 -0.4972
16077TIP3    H169646   4.394   1.035  16.706  0.7567 -0.7713  0.3658
16077TIP3    H269647   4.381   1.054  16.556 -1.9784 -0.6824  0.5677
16078TIP3   OH269648   6.338   5.404  12.337  0.5223  0.5895 -0.0115
16078TIP3    H169649   6.382   5.326  12.303 -0.0289 -0.0598  0.7318
16078TIP3    H269650   6.405   5.473  12.334  0.7780  0.3144 -1.4521
16079TIP3   OH269651   1.534   6.611   2.928 -0.2882  0.2101  0.3224
16079TIP3    H169652   1.474   6.670   2.882  0.2363  1.3001  1.0129
16079TIP3    H269653   1.621   6.647   2.910  0.0908 -0.7191  0.2488
16080TIP3   OH269654   3.690   4.317  11.005 -0.1141 -0.0233  0.2457
16080TIP3    H169655   3.730   4.392  10.962  2.1957 -0.2219  1.8755
16080TIP3    H269656   3.747   4.244  10.984 -1.6116 -1.0987 -0.2322
16081TIP3   OH269657   0.095   3.606   3.011  0.0195  0.4591 -0.4388
16081TIP3    H169658   0.145   3.677   3.050  0.5104  0.0587 -0.3372
16081TIP3    H269659   0.096   3.537   3.076 -1.5731  0.8206  0.0143
16082TIP3   OH269660   4.306   5.198  15.761  0.3946 -0.2803  0.1519
16082TIP3    H169661   4.275   5.251  15.834  0.6480  2.5369 -1.5915
16082TIP3    H269662   4.393   5.235  15.740  0.1632 -0.6977 -1.7571
16083TIP3   OH269663   1.070   1.404   5.180  0.6196 -0.1109  0.3018
16083TIP3    H169664   1.121   1.374   5.256 -0.9545 -2.0045  0.6980
16083TIP3    H269665   1.009   1.468   5.217 -0.4815 -1.3922  0.8053
16084TIP3   OH269666   5.546   0.490   2.866  0.4369  0.0404  0.1622
16084TIP3    H169667   5.534   0.568   2.920  0.9857  1.3594 -1.5478
16084TIP3    H269668   5.639   0.469   2.875  0.9565  1.3549 -1.6064
16085TIP3   OH269669   3.881   0.483  11.515  0.3440 -0.1823  0.1772
16085TIP3    H169670   3.927   0.555  11.559  1.2156  0.0473 -1.0377
16085TIP3    H269671   3.806   0.525  11.473  1.1258  0.1415 -0.9457
16086TIP3   OH269672   2.513   0.603   5.278  0.4951  0.4135  0.2033
16086TIP3    H169673   2.489   0.552   5.201  2.4593 -0.1378 -0.0976
16086TIP3    H269674   2.501   0.542   5.351  2.2743 -0.3708 -0.0984
16087TIP3   OH269675   4.388   5.611  11.703 -0.3814 -0.1042 -0.3502
16087TIP3    H169676   4.418   5.702  11.704 -0.4298 -0.0691 -1.0964
16087TIP3    H269677   4.407   5.581  11.613  2.8883 -1.9006  0.7505
16088TIP3   OH269678   0.659   0.948  16.795 -0.0742  0.6303  0.0778
16088TIP3    H169679   0.744   0.993  16.803 -0.6376  1.9013 -0.7560
16088TIP3    H269680   0.635   0.927  16.885  0.9202  0.6676  0.3631
16089TIP3   OH269681   6.014   1.709   2.586  0.1214 -0.2077  0.1746
16089TIP3    H169682   6.043   1.781   2.529 -2.0127  0.3121 -0.3302
16089TIP3    H269683   6.046   1.733   2.673  1.8266 -0.0797 -0.4460
16090TIP3   OH269684   3.284   1.878   4.216  0.4588  0.2910  0.4659
16090TIP3    H169685   3.222   1.951   4.218 -0.3456 -0.3859  2.4990
16090TIP3    H269686   3.229   1.802   4.192  1.0871  0.1478 -0.5942
16091TIP3   OH269687   5.931   5.906  14.272  0.0826 -0.3886  0.2605
16091TIP3    H169688   5.995   5.967  14.233 -0.8333  0.6064  0.2779
16091TIP3    H269689   5.953   5.821  14.233  0.8758  0.0907 -0.3855
16092TIP3   OH269690   1.705   6.020   0.664  0.4854  0.6411 -0.6543
16092TIP3    H169691   1.777   6.067   0.621  0.8026  0.4035 -0.3819
16092TIP3    H269692   1.648   5.994   0.591  1.8913 -1.2632 -1.1562
16093TIP3   OH269693   1.082   3.370  16.903 -0.0976 -0.7757 -0.4564
16093TIP3    H169694   0.996   3.345  16.869 -1.2492 -0.6296  2.0648
16093TIP3    H269695   1.072   3.462  16.928  0.0913 -1.2780  1.6734
16094TIP3   OH269696   3.100   0.175  16.730  0.5998 -0.7382  0.2831
16094TIP3    H169697   3.100   0.110  16.658 -0.5587 -0.0032 -0.4106
16094TIP3    H269698   3.007   0.188  16.750  0.8520  0.2844  0.8143
16095TIP3   OH269699   0.183   0.169   4.527 -0.2232  0.1346 -0.0726
16095TIP3    H169700   0.234   0.251   4.529  0.2072 -0.1418  0.6871
16095TIP3    H269701   0.186   0.137   4.617 -1.9857  0.2479  0.0645
16096TIP3   OH269702   3.155   2.635   4.700 -0.1016  0.4968  0.1856
16096TIP3    H169703   3.108   2.617   4.781  0.7944 -0.5648  0.4892
16096TIP3    H269704   3.165   2.730   4.698 -1.1821  0.6353  0.7032
16097TIP3   OH269705   5.735   3.586   2.894 -0.2372  0.0687 -0.3841
16097TIP3    H169706   5.751   3.615   2.804  0.6403 -1.7624 -0.8690
16097TIP3    H269707   5.775   3.653   2.949  2.9534 -0.8160 -1.4535
16098TIP3   OH269708   5.191   6.526   0.548 -0.2522  0.2226  0.0060
16098TIP3    H169709   5.261   6.522   0.483  0.3742 -1.3950  0.7282
16098TIP3    H269710   5.111   6.507   0.498  0.0565  0.2579 -0.5088
16099TIP3   OH269711   6.496   3.678  13.985 -0.2979 -0.3619  0.9707
16099TIP3    H169712   6.566   3.700  13.924 -0.8945  1.7296  0.9676
16099TIP3    H269713   6.489   3.754  14.042 -2.0952 -0.8113  1.4224
16100TIP3   OH269714   0.603   0.240  16.202  0.2821 -0.2095 -0.1414
16100TIP3    H169715   0.590   0.281  16.116 -1.1579  0.3470  0.3185
16100TIP3    H269716   0.692   0.264  16.226  2.2231 -3.4178 -3.0532
16101TIP3   OH269717   4.595   1.422  12.856  0.2367  0.4900  0.2928
16101TIP3    H169718   4.540   1.473  12.916 -1.0644  2.7711 -2.6057
16101TIP3    H269719   4.584   1.331  12.886 -1.8797  1.2899  2.3029
16102TIP3   OH269720   5.234   3.582  14.830  0.1856  0.5294  0.2759
16102TIP3    H169721   5.141   3.577  14.850  0.4969 -2.2384  1.6165
16102TIP3    H269722   5.277   3.577  14.916  1.5366 -1.9274 -0.4420
16103TIP3   OH269723   4.559   2.951  12.836 -0.3960  0.0773  0.0013
16103TIP3    H169724   4.467   2.974  12.837  0.2472  3.3549 -1.5897
16103TIP3    H269725   4.605   3.034  12.850  2.3087 -0.6868 -2.9265
16104TIP3   OH269726   5.464   4.955  11.343  0.2315  0.1995 -0.3567
16104TIP3    H169727   5.372   4.970  11.367  0.9430  0.4528  2.6373
16104TIP3    H269728   5.484   5.026  11.281 -1.4644  0.3985 -0.7294
16105TIP3   OH269729   3.281   6.777  16.258  0.2190  0.3112  0.8992
16105TIP3    H169730   3.194   6.750  16.228 -0.3163 -0.5902  3.0672
16105TIP3    H269731   3.271   6.787  16.353  2.5381 -0.0174  1.2259
16106TIP3   OH269732   1.356   3.394   0.561  0.1319 -0.3858 -0.8218
16106TIP3    H169733   1.388   3.471   0.513 -1.4827 -0.0813 -1.4799
16106TIP3    H269734   1.303   3.430   0.632  2.5865 -0.8272  1.3926
16107TIP3   OH269735   1.672   4.153   3.450  0.3752  0.1953 -0.0461
16107TIP3    H169736   1.586   4.181   3.420 -0.8398 -3.1450 -0.1023
16107TIP3    H269737   1.696   4.081   3.391  3.1593  0.9060  0.0772
16108TIP3   OH269738   3.843   5.635   0.294  0.7737  0.4706  0.2743
16108TIP3    H169739   3.804   5.686   0.365 -0.9810 -0.0410 -0.2697
16108TIP3    H269740   3.879   5.558   0.337  0.0285  0.3345  0.6791
16109TIP3   OH269741   3.868   0.266  13.306  0.5305  0.5946 -0.3350
16109TIP3    H169742   3.811   0.263  13.382  1.8571 -2.4754  0.7076
16109TIP3    H269743   3.941   0.322  13.333  0.5435  0.2716  0.3137
16110TIP3   OH269744   5.870   5.266  12.939 -0.4870  0.1740 -0.7209
16110TIP3    H169745   5.837   5.265  12.849 -0.5912 -0.0716 -0.6811
16110TIP3    H269746   5.916   5.350  12.947 -0.3321  0.1228 -1.0558
16111TIP3   OH269747   5.234   3.571  15.305  0.6165  0.1799  0.2253
16111TIP3    H169748   5.275   3.584  15.391  0.5436  0.5617  0.2008
16111TIP3    H269749   5.176   3.496  15.318  1.2035 -0.2709  0.3023
16112TIP3   OH269750   6.573   5.924  16.016  0.4303  0.5821  0.0375
16112TIP3    H169751   6.591   6.004  15.967 -0.1994  0.6768 -0.0422
16112TIP3    H269752   6.655   5.874  16.009  0.0443  0.1342 -1.9914
16113TIP3   OH269753   2.776   5.751   0.367  0.1914 -0.8071  0.3152
16113TIP3    H169754   2.770   5.846   0.360  0.8949 -0.8559 -1.0931
16113TIP3    H269755   2.859   5.728   0.327 -0.4136 -2.1024 -0.2661
16114TIP3   OH269756   6.594   6.280  13.423 -0.4848  0.5050  0.4421
16114TIP3    H169757   6.546   6.360  13.444 -0.0263  0.7414  0.5841
16114TIP3    H269758   6.574   6.220  13.495 -0.0500  0.8282  0.8378
16115TIP3   OH269759   3.941   3.657   2.327  0.0949  0.1925  0.6087
16115TIP3    H169760   3.887   3.688   2.399  0.2998  3.7151 -0.5420
16115TIP3    H269761   3.888   3.591   2.283 -0.9731 -0.3489  2.5868
16116TIP3   OH269762   2.037   4.741   1.039  0.0058 -0.5069  0.8257
16116TIP3    H169763   2.001   4.654   1.020  0.0518 -0.5687  1.0193
16116TIP3    H269764   1.967   4.787   1.085 -0.0779 -0.3835  0.5765
16117TIP3   OH269765   6.080   3.337  16.625 -0.2449  0.0955 -0.5212
16117TIP3    H169766   5.994   3.379  16.625 -1.0524 -1.4324 -1.5875
16117TIP3    H269767   6.116   3.357  16.538  0.2329  0.2598 -0.2859
16118TIP3   OH269768   1.859   1.387   2.851  0.3574 -0.3735 -0.4335
16118TIP3    H169769   1.793   1.418   2.913 -0.2339 -1.1073 -0.6804
16118TIP3    H269770   1.916   1.462   2.837  0.5126 -0.1850  1.0062
16119TIP3   OH269771   1.642   3.177   0.160 -0.3015 -0.0574  0.3843
16119TIP3    H169772   1.565   3.198   0.212 -0.2080 -1.5799  1.1853
16119TIP3    H269773   1.635   3.083   0.142  0.3645  0.1600 -1.2342
16120TIP3   OH269774   6.448   3.309  16.522  0.4605  0.3072 -0.2370
16120TIP3    H169775   6.422   3.328  16.613  1.2605 -0.4722  0.1703
16120TIP3    H269776   6.528   3.360  16.510  0.4329  0.2957 -0.4582
16121TIP3   OH269777   1.454   5.856   1.280 -0.0741 -0.1732 -0.5767
16121TIP3    H169778   1.360   5.842   1.272 -0.3003  1.3035 -0.8392
16121TIP3    H269779   1.487   5.778   1.323 -1.4968 -0.4828 -0.0155
16122TIP3   OH269780   4.063   3.252   1.191 -0.4895  0.3498  0.1912
16122TIP3    H169781   3.979   3.278   1.228 -0.3195 -0.4034  1.1380
16122TIP3    H269782   4.120   3.240   1.267  0.1024 -0.4334 -0.3642
16123TIP3   OH269783   6.723   3.584  11.910  0.5200 -0.0173  0.1850
16123TIP3    H169784   6.657   3.560  11.845  2.7969  0.3912 -2.5038
16123TIP3    H269785   6.694   3.669  11.943 -2.7838 -1.9854  2.9015
16124TIP3   OH269786   0.293   5.317  15.294 -0.5425  1.5664  0.5414
16124TIP3    H169787   0.238   5.327  15.217 -0.7363  1.8625  0.7131
16124TIP3    H269788   0.261   5.238  15.337 -1.5068  2.2692  1.1726
16125TIP3   OH269789   4.817   0.321   2.178  0.0297 -0.0774 -0.0134
16125TIP3    H169790   4.797   0.363   2.094  0.5865 -0.0525 -0.1377
16125TIP3    H269791   4.763   0.368   2.241 -0.7714 -0.4296 -0.4255
16126TIP3   OH269792   2.286   0.426  16.495  0.1928 -0.3713 -0.0720
16126TIP3    H169793   2.340   0.407  16.418  1.5050  0.0691  0.7042
16126TIP3    H269794   2.238   0.505  16.471  0.9403  0.0337 -0.2826
16127TIP3   OH269795   0.213   5.828  10.876  0.2283 -0.0559  0.2278
16127TIP3    H169796   0.280   5.896  10.884 -0.1872  0.2393  1.4180
16127TIP3    H269797   0.189   5.829  10.783  0.3482  1.3096  0.1855
16128TIP3   OH269798   2.903   6.617   3.462  0.1488  0.4491 -0.1476
16128TIP3    H169799   2.957   6.553   3.415  0.2709 -0.6187  1.3745
16128TIP3    H269800   2.857   6.664   3.393 -0.3654 -1.6683 -1.3536
16129TIP3   OH269801   3.135   2.464  10.697  0.1669 -0.5637 -0.1279
16129TIP3    H169802   3.066   2.400  10.680  0.2743 -0.0017 -3.4017
16129TIP3    H269803   3.131   2.523  10.621  2.9755  0.6624  0.5702
16130TIP3   OH269804   6.200   5.776  15.074 -0.0450 -0.8470 -0.4132
16130TIP3    H169805   6.191   5.794  14.980 -0.4669  2.4767  0.1397
16130TIP3    H269806   6.182   5.860  15.116 -0.9193 -2.4675  2.7526
16131TIP3   OH269807   5.068   1.140  15.322 -0.8185 -0.0984  0.3989
16131TIP3    H169808   5.095   1.207  15.260  2.6159 -0.5726  1.1657
16131TIP3    H269809   5.023   1.188  15.392  0.0470  1.1853  0.0982
16132TIP3   OH269810   5.220   2.287  16.507  0.2711 -0.4751 -0.2124
16132TIP3    H169811   5.303   2.239  16.503  0.5593  0.0957 -2.1361
16132TIP3    H269812   5.207   2.306  16.600  0.9178 -2.8937  0.4508
16133TIP3   OH269813   3.248   0.871  14.852  0.5916 -0.0400 -0.3570
16133TIP3    H169814   3.236   0.945  14.793 -2.0351  0.1875  0.3612
16133TIP3    H269815   3.237   0.794  14.797  0.2408  0.1556 -0.5640
16134TIP3   OH269816   1.986   4.273   2.037  0.6530 -0.7330 -0.2389
16134TIP3    H169817   1.975   4.352   2.089  0.2516 -0.1883 -1.1266
16134TIP3    H269818   2.073   4.240   2.060  2.5315  2.0885 -2.6725
16135TIP3   OH269819   1.735   2.200   4.436 -0.1603  0.2938  0.2673
16135TIP3    H169820   1.769   2.140   4.368 -0.0065  0.5288  0.1355
16135TIP3    H269821   1.646   2.169   4.453 -0.6205  0.9278 -0.8707
16136TIP3   OH269822   1.864   0.941  16.203  0.3347 -0.2224 -0.3619
16136TIP3    H169823   1.874   0.886  16.280  0.6863 -0.9630 -0.9252
16136TIP3    H269824   1.803   0.893  16.146 -0.5252  0.6765 -0.2312
16137TIP3   OH269825   2.889   4.008   3.404 -0.2243 -0.3353 -0.5389
16137TIP3    H169826   2.833   3.934   3.430  0.8342 -0.2271  2.5193
16137TIP3    H269827   2.830   4.084   3.404 -0.5121 -0.5290  0.7027
16138TIP3   OH269828   5.947   2.109   2.503  0.2449  0.1061  0.5745
16138TIP3    H169829   5.924   2.171   2.434 -1.1998 -0.6927  0.2867
16138TIP3    H269830   6.005   2.046   2.460  0.4297  0.3686  0.4427
16139TIP3   OH269831   3.150   5.428  15.334  0.3507  0.1446  0.3966
16139TIP3    H169832   3.241   5.405  15.351 -0.1395 -1.1717  1.4712
16139TIP3    H269833   3.123   5.370  15.263  0.5305  1.0012 -0.3779
16140TIP3   OH269834   6.096   4.423   2.928 -0.2669 -0.1494 -0.1498
16140TIP3    H169835   6.139   4.410   3.012 -0.0953 -2.5861 -0.5612
16140TIP3    H269836   6.038   4.348   2.919 -1.9940  1.2342 -1.2193
16141TIP3   OH269837   2.147   1.981  12.703  0.0924 -0.0129 -0.1160
16141TIP3    H169838   2.184   1.894  12.716  0.8654  0.3702  0.3354
16141TIP3    H269839   2.212   2.026  12.648 -0.4811  0.1628 -0.6633
16142TIP3   OH269840   1.621   4.374   2.471 -0.8208 -0.0546  0.3972
16142TIP3    H169841   1.636   4.457   2.426  3.7841 -0.8391  0.0265
16142TIP3    H269842   1.605   4.311   2.401  3.9333 -0.8062 -0.3527
16143TIP3   OH269843   4.229   6.671  11.462  0.2014 -0.3305  0.6342
16143TIP3    H169844   4.139   6.662  11.493 -0.1935 -1.0583 -0.6788
16143TIP3    H269845   4.227   6.639  11.372  1.6448  0.2484  0.3740
16144TIP3   OH269846   1.372   5.545  14.396 -0.2677 -0.3293 -0.4922
16144TIP3    H169847   1.450   5.530  14.450  0.1931  0.5582 -0.8978
16144TIP3    H269848   1.338   5.629  14.425 -0.0880  0.1012 -1.4965
16145TIP3   OH269849   0.149   5.568   4.535 -0.5867 -0.1959  0.2359
16145TIP3    H169850   0.072   5.556   4.480  0.2740 -0.1616 -1.0113
16145TIP3    H269851   0.151   5.490   4.591  0.2636 -1.8685 -1.9910
16146TIP3   OH269852   2.132   4.270  14.103 -0.3023 -0.0250 -0.0446
16146TIP3    H169853   2.090   4.321  14.173 -0.6862 -0.4349  0.0264
16146TIP3    H269854   2.070   4.200  14.084  0.5112 -0.8502  0.3075
16147TIP3   OH269855   0.740   5.655   2.540  0.0260 -0.2121  0.3745
16147TIP3    H169856   0.730   5.696   2.453  0.6880 -2.7720 -1.0008
16147TIP3    H269857   0.834   5.645   2.551 -0.0333  0.3298  1.5694
16148TIP3   OH269858   5.899   0.438  15.704  0.4604 -0.5999 -0.1940
16148TIP3    H169859   5.962   0.388  15.755  0.3819 -0.2771  0.2226
16148TIP3    H269860   5.909   0.528  15.734 -0.4871 -0.6046  0.1785
16149TIP3   OH269861   6.459   4.664   3.513  0.6298  0.2136 -0.1404
16149TIP3    H169862   6.497   4.724   3.578 -0.4770  0.4751  0.2937
16149TIP3    H269863   6.369   4.651   3.543  0.8442 -1.6944 -0.2240
16150TIP3   OH269864   4.032   5.802   2.024 -0.1565  0.4479  0.2014
16150TIP3    H169865   4.096   5.766   2.084  0.4337  3.6235  1.7003
16150TIP3    H269866   4.040   5.897   2.035 -0.5699  1.2352 -4.3537
16151TIP3   OH269867   0.565   0.869  11.346  0.1961 -0.3408 -0.4772
16151TIP3    H169868   0.562   0.901  11.256  2.4490  0.7934 -0.2234
16151TIP3    H269869   0.653   0.892  11.377 -1.1506  1.1501  2.6629
16152TIP3   OH269870   0.585   3.922  14.484 -0.2677  0.4651  1.1241
16152TIP3    H169871   0.509   3.869  14.461 -0.0266  0.9480 -0.9032
16152TIP3    H269872   0.571   3.944  14.577 -0.8001 -2.3581  1.8081
16153TIP3   OH269873   2.152   5.053  11.850 -0.0441 -0.2764 -0.6239
16153TIP3    H169874   2.189   5.127  11.899 -0.2569  0.8373 -2.0581
16153TIP3    H269875   2.089   5.094  11.791 -2.1458 -1.9008  0.3561
16154TIP3   OH269876   4.748   3.932   2.568  0.1152  0.2412  0.0540
16154TIP3    H169877   4.805   3.889   2.505  0.3348 -1.1821  1.1727
16154TIP3    H269878   4.684   3.865   2.592  0.8325  0.3110  2.3218
16155TIP3   OH269879   0.695   5.594  14.818  0.7521 -0.3695  0.3167
16155TIP3    H169880   0.733   5.578  14.905  1.4551  0.6940  0.2175
16155TIP3    H269881   0.769   5.622  14.764  0.2475 -0.6339 -0.5285
16156TIP3   OH269882   5.664   1.109   2.650  0.2212 -0.1812 -0.2380
16156TIP3    H169883   5.592   1.170   2.633 -0.4667 -0.9980 -0.3348
16156TIP3    H269884   5.727   1.126   2.580 -0.5121 -0.3945 -0.9670
16157TIP3   OH269885   0.300   2.268  13.892  0.3724  0.0915  0.0492
16157TIP3    H169886   0.239   2.203  13.858  0.6778 -0.8442  1.1988
16157TIP3    H269887   0.383   2.249  13.849  0.7508 -1.0688  1.2089
16158TIP3   OH269888   0.837   6.466  11.628  0.0853 -0.0436 -0.2377
16158TIP3    H169889   0.830   6.558  11.651 -1.3806  0.1099 -1.1411
16158TIP3    H269890   0.795   6.420  11.700  2.1261 -0.1540  0.9395
16159TIP3   OH269891   3.943   2.535  12.606  0.1682  0.0359  0.2044
16159TIP3    H169892   4.011   2.468  12.611 -0.4970 -0.7896 -1.1016
16159TIP3    H269893   3.871   2.499  12.658 -0.0020 -0.0286 -0.0756
16160TIP3   OH269894   5.667   1.229  15.896  0.5068  0.2173 -0.2442
16160TIP3    H169895   5.736   1.229  15.963 -0.7994 -4.3863  1.4802
16160TIP3    H269896   5.699   1.168  15.830  1.1844  3.7099 -3.4571
16161TIP3   OH269897   5.880   1.739  13.380  0.1860  0.4662  0.3990
16161TIP3    H169898   5.832   1.766  13.301 -1.0574 -2.3843  0.0535
16161TIP3    H269899   5.831   1.779  13.452 -0.0446  1.1921 -0.1419
16162TIP3   OH269900   2.215   5.808  11.600 -0.0904 -0.7731  0.8705
16162TIP3    H169901   2.228   5.847  11.514  0.6024 -1.7544  0.5099
16162TIP3    H269902   2.275   5.855  11.658 -1.0956  0.4009  1.0034
16163TIP3   OH269903   2.798   4.271   2.164  0.4183 -0.1067  0.7587
16163TIP3    H169904   2.741   4.263   2.087 -0.2552  0.5504  1.1818
16163TIP3    H269905   2.880   4.228   2.137  0.3705  0.5450 -0.5082
16164TIP3   OH269906   4.087   5.336  11.627 -0.1041  0.0620 -0.0644
16164TIP3    H169907   4.159   5.338  11.563  0.4525  0.3781  0.5594
16164TIP3    H269908   4.038   5.416  11.611 -0.6999 -0.4630 -0.9143
16165TIP3   OH269909   4.799   3.306   3.871  0.1647 -0.1777 -0.2319
16165TIP3    H169910   4.788   3.275   3.780  1.3801 -1.0490 -0.1038
16165TIP3    H269911   4.886   3.276   3.896 -0.4298 -0.5843  1.4809
16166TIP3   OH269912   0.555   0.943  11.044 -0.4799 -0.6106 -0.1181
16166TIP3    H169913   0.646   0.953  11.016 -0.7178 -3.2910 -2.2441
16166TIP3    H269914   0.503   0.976  10.971 -1.1568 -1.3207  0.0204
16167TIP3   OH269915   4.022   4.464  13.262  0.1125 -0.1373  0.1400
16167TIP3    H169916   4.068   4.509  13.191 -0.5477 -1.0359 -0.9067
16167TIP3    H269917   4.009   4.375  13.229 -0.8500 -0.3779  1.1019
16168TIP3   OH269918   6.355   2.910  10.695  0.5970  0.4016  0.3768
16168TIP3    H169919   6.404   2.828  10.700  0.0040 -0.0968 -1.4547
16168TIP3    H269920   6.264   2.885  10.711  0.5611  0.8961  0.9949
16169TIP3   OH269921   0.293   6.771   3.099  0.6844 -0.1127 -0.0026
16169TIP3    H169922   0.205   6.797   3.124  0.1324 -0.6024 -1.3850
16169TIP3    H269923   0.281   6.694   3.043  1.7770  1.2636 -2.2936
16170TIP3   OH269924   1.519   5.193  11.807  0.5578 -0.0886 -0.1509
16170TIP3    H169925   1.427   5.217  11.808  0.8113  1.0671 -1.4787
16170TIP3    H269926   1.521   5.106  11.766  0.1603  0.6399 -1.8315
16171TIP3   OH269927   5.980   1.948   3.155 -0.1525 -0.2088 -0.1866
16171TIP3    H169928   5.993   2.032   3.110  0.5501  0.0233  0.4206
16171TIP3    H269929   6.041   1.952   3.230 -0.6443 -0.9573  0.2599
16172TIP3   OH269930   1.677   0.747   2.813  0.0414  0.1258 -0.1051
16172TIP3    H169931   1.705   0.695   2.737 -0.9497 -0.9606  0.2472
16172TIP3    H269932   1.727   0.711   2.886 -0.0172  0.2507 -0.0034
16173TIP3   OH269933   2.429   3.645   5.330 -0.5680  0.5131  0.1632
16173TIP3    H169934   2.380   3.619   5.251  0.9020  0.6645 -0.8472
16173TIP3    H269935   2.407   3.737   5.342 -0.9285  0.4472  0.0217
16174TIP3   OH269936   0.471   3.904  10.957  0.2065  0.3742  0.3053
16174TIP3    H169937   0.449   3.820  10.999  0.1163  1.2275  2.0501
16174TIP3    H269938   0.439   3.970  11.018 -3.2481  1.8559 -2.6817
16175TIP3   OH269939   5.123   6.789   0.379  0.0104  0.0841  0.2299
16175TIP3    H169940   5.116   6.825   0.468 -0.1776  0.5235  0.0406
16175TIP3    H269941   5.206   6.824   0.346  0.2672 -0.3881  0.3676
16176TIP3   OH269942   6.561   6.386   4.138 -0.0163 -0.3959  0.3892
16176TIP3    H169943   6.595   6.452   4.199  1.0452 -0.9429  0.4266
16176TIP3    H269944   6.632   6.374   4.075 -1.2551  0.4570 -1.2206
16177TIP3   OH269945   1.230   4.780  14.986  0.1157 -0.4803 -0.0239
16177TIP3    H169946   1.210   4.720  14.913  0.3320 -1.0973  0.4185
16177TIP3    H269947   1.325   4.790  14.982  0.1621 -0.7611  0.3624
16178TIP3   OH269948   2.450   3.453   1.528 -0.1708  0.3507 -0.0360
16178TIP3    H169949   2.356   3.445   1.547  0.0237  1.0078  1.3229
16178TIP3    H269950   2.476   3.534   1.572  1.2776 -0.4248  0.6006
16179TIP3   OH269951   6.080   5.225  16.152 -0.0682 -0.0156  0.2434
16179TIP3    H169952   6.101   5.141  16.111  0.1489  0.5056 -0.7408
16179TIP3    H269953   5.988   5.217  16.176 -0.0400 -0.5490  0.2007
16180TIP3   OH269954   4.837   3.763   2.914 -0.3204  0.7015  0.3704
16180TIP3    H169955   4.782   3.835   2.884  0.9146  0.6856 -2.1532
16180TIP3    H269956   4.814   3.689   2.858  0.0365 -0.2367  1.4106
16181TIP3   OH269957   4.781   6.294   1.111 -0.2308  0.1083  0.3596
16181TIP3    H169958   4.799   6.242   1.189  0.1895 -1.4012 -0.6916
16181TIP3    H269959   4.837   6.255   1.044 -0.6140  1.3408 -0.7053
16182TIP3   OH269960   5.104   5.163  15.128  0.1861  0.1346 -0.6469
16182TIP3    H169961   5.057   5.088  15.092  0.6711 -0.5271  0.0529
16182TIP3    H269962   5.197   5.141  15.115  0.3237  1.0536 -1.2956
16183TIP3   OH269963   5.087   4.450  13.908  0.0987  0.2629 -0.3796
16183TIP3    H169964   5.157   4.391  13.881  0.0512  0.0729 -0.0939
16183TIP3    H269965   5.040   4.470  13.827  1.1888  1.3377 -0.7727
16184TIP3   OH269966   2.798   1.636   5.270 -0.4435 -0.2264 -0.0016
16184TIP3    H169967   2.710   1.670   5.287  0.3836  1.0749  2.1924
16184TIP3    H269968   2.825   1.597   5.354  1.8944  1.5302  0.1755
16185TIP3   OH269969   6.539   4.859   5.182  0.2822  0.1647 -0.0907
16185TIP3    H169970   6.615   4.812   5.215 -1.0909 -3.2825 -1.3751
16185TIP3    H269971   6.575   4.929   5.127  2.5043 -1.1915 -0.4589
16186TIP3   OH269972   5.685   0.804  13.725  0.0625  1.0727 -0.0786
16186TIP3    H169973   5.628   0.872  13.689 -0.7540  0.9825  1.0157
16186TIP3    H269974   5.768   0.816  13.678 -1.2253  0.2922 -2.7321
16187TIP3   OH269975   4.357   4.926  10.701 -0.0179  0.4514 -0.0474
16187TIP3    H169976   4.302   4.879  10.764 -1.0637 -0.1885 -1.4002
16187TIP3    H269977   4.345   5.018  10.723 -0.7558  0.2644  0.3806
16188TIP3   OH269978   2.474   6.788  15.994  0.7978  0.3668 -0.1057
16188TIP3    H169979   2.491   6.859  16.056  1.4401  0.0264  0.1102
16188TIP3    H269980   2.381   6.769  16.005  1.0640 -0.2582  1.3742
16189TIP3   OH269981   3.451   3.635   3.339  0.6015  0.3955  0.3446
16189TIP3    H169982   3.407   3.718   3.357 -0.9834 -0.3158  0.0049
16189TIP3    H269983   3.434   3.619   3.246  1.3734 -0.0446  0.2727
16190TIP3   OH269984   0.706   1.358  10.841  0.7940 -0.3722  0.1539
16190TIP3    H169985   0.713   1.275  10.794  1.6016  0.2703 -0.8871
16190TIP3    H269986   0.726   1.425  10.776 -0.1139  0.6738  0.9105
16191TIP3   OH269987   4.171   3.645   2.061 -0.2706 -0.1635  0.2913
16191TIP3    H169988   4.216   3.603   2.134 -0.1910  0.9517  0.8968
16191TIP3    H269989   4.107   3.579   2.032  1.6265 -1.7468 -0.5353
16192TIP3   OH269990   1.135   4.988  16.497  0.1502  0.2693 -0.6026
16192TIP3    H169991   1.184   5.063  16.529  0.1962 -0.6065  1.5588
16192TIP3    H269992   1.188   4.912  16.523  0.1634 -0.5552 -2.8216
16193TIP3   OH269993   0.390   6.522  14.724  0.3806  0.2697 -0.0315
16193TIP3    H169994   0.462   6.549  14.781  0.0250  0.7241  0.2172
16193TIP3    H269995   0.401   6.576  14.646 -0.6106  1.5455  0.6613
16194TIP3   OH269996   4.259   0.528   0.019  1.1155 -1.1619  0.5193
16194TIP3    H169997   4.306   0.528  -0.064  0.0446  2.6636 -0.2859
16194TIP3    H269998   4.268   0.618   0.052  0.6336 -2.2597  4.0721
16195TIP3   OH269999   4.917   3.150  10.620  0.3664 -0.0577  0.2535
16195TIP3    H170000   4.936   3.084  10.554 -0.5076  1.3837 -1.5018
16195TIP3    H270001   4.827   3.132  10.647  0.0890  0.4525 -0.3067
16196TIP3   OH270002   5.351   2.071  11.086  0.2894 -0.7760 -0.5254
16196TIP3    H170003   5.425   2.088  11.028  0.6554  0.1450  0.1845
16196TIP3    H270004   5.311   2.157  11.099  0.9415 -0.7285  1.5133
16197TIP3   OH270005   0.512   3.871   4.920  0.3667 -0.7061 -0.0562
16197TIP3    H170006   0.607   3.882   4.918  0.5493 -1.9058  1.0587
16197TIP3    H270007   0.498   3.777   4.914 -0.7409 -0.5722  0.1835
16198TIP3   OH270008   1.538   2.555   5.017  0.9209 -0.5244  0.2589
16198TIP3    H170009   1.518   2.577   4.926  0.9021 -1.1832  0.0943
16198TIP3    H270010   1.532   2.459   5.020  1.1109 -0.5215  0.9093
16199TIP3   OH270011   0.966   0.721  13.373  0.2667 -0.5590 -0.0773
16199TIP3    H170012   1.008   0.778  13.309 -1.8030  1.2565  0.0615
16199TIP3    H270013   0.950   0.639  13.326  2.1099 -0.6010 -0.6903
16200TIP3   OH270014   1.004   3.309  11.142 -0.2341 -0.6127 -0.3727
16200TIP3    H170015   1.040   3.383  11.191  1.2939 -1.0761 -0.7186
16200TIP3    H270016   0.927   3.282  11.192  1.0807 -0.8700  1.6180
16201TIP3   OH270017   6.428   4.309   5.319  0.3210 -0.6517 -0.0646
16201TIP3    H170018   6.428   4.222   5.358  1.9944 -0.8018 -0.3335
16201TIP3    H270019   6.478   4.363   5.381  0.6302 -0.2562 -0.6481
16202TIP3   OH270020   6.223   5.204   3.389 -0.1187 -0.1112  0.2420
16202TIP3    H170021   6.267   5.127   3.424  0.0762  0.1917  0.6774
16202TIP3    H270022   6.195   5.178   3.301  0.4854 -0.4745  0.1511
16203TIP3   OH270023   0.639   2.304  12.638 -0.3701 -0.2831  0.4741
16203TIP3    H170024   0.551   2.269  12.649  0.1561 -1.7085  0.3906
16203TIP3    H270025   0.686   2.237  12.588  0.8320  0.3383  0.7180
16204TIP3   OH270026   6.110   6.047  14.082  0.7949 -0.2846  0.4651
16204TIP3    H170027   6.143   5.999  14.158 -0.4671 -1.1645  0.4841
16204TIP3    H270028   6.127   6.139  14.103  0.3311 -0.4908  1.8933
16205TIP3   OH270029   2.692   5.678  12.773  0.6104 -0.4626  0.5045
16205TIP3    H170030   2.611   5.679  12.824 -0.4941 -0.7532 -1.1697
16205TIP3    H270031   2.698   5.588  12.741  1.5208 -0.4017  0.4986
16206TIP3   OH270032   6.432   0.063  11.497 -0.1939  0.0210  0.6015
16206TIP3    H170033   6.407   0.137  11.552  1.0213  1.0322 -0.1465
16206TIP3    H270034   6.480   0.103  11.424  0.3688 -1.4999  0.1067
16207TIP3   OH270035   1.488   0.550  11.512  0.1474  0.1143  0.2338
16207TIP3    H170036   1.564   0.603  11.485 -0.0037 -0.6155 -1.8421
16207TIP3    H270037   1.526   0.467  11.542  0.2564  0.5315  1.2984
16208TIP3   OH270038   1.959   3.272  11.715  0.0266 -0.6204  0.2136
16208TIP3    H170039   2.030   3.334  11.702 -0.2409 -0.1699  0.8646
16208TIP3    H270040   1.966   3.211  11.641  0.9908 -0.4982  0.1955
16209TIP3   OH270041   4.962   1.165  15.026 -0.2699 -0.3993 -0.0833
16209TIP3    H170042   4.959   1.260  15.029 -4.5042 -0.3463 -0.6964
16209TIP3    H270043   4.943   1.137  15.116  0.6122 -0.6878  0.0220
16210TIP3   OH270044   2.182   3.271  14.953  0.8961 -0.3884  0.3024
16210TIP3    H170045   2.162   3.302  14.865 -0.1201 -0.5869  0.4534
16210TIP3    H270046   2.124   3.322  15.010 -0.1562 -1.8909  0.6328
16211TIP3   OH270047   5.245   3.577  12.896  0.1510  0.9517 -0.1139
16211TIP3    H170048   5.224   3.620  12.813 -0.3389 -1.0318 -1.0918
16211TIP3    H270049   5.340   3.582  12.902  0.1935  1.0701 -0.8215
16212TIP3   OH270050   2.798   5.571   3.951  0.0145  0.4918  0.0646
16212TIP3    H170051   2.783   5.480   3.978 -1.3197  0.3970 -0.8933
16212TIP3    H270052   2.793   5.569   3.856  1.5774  1.3224 -0.0621
16213TIP3   OH270053   3.923   4.438   6.287  0.4286 -0.0194  0.4302
16213TIP3    H170054   3.966   4.524   6.289  0.6194 -0.0155 -1.3940
16213TIP3    H270055   3.830   4.457   6.282  0.4442  0.0788  0.5236
16214TIP3   OH270056   0.374   4.316   6.670  0.1095  0.2828  0.2177
16214TIP3    H170057   0.429   4.394   6.667 -0.7305  0.8784 -1.8691
16214TIP3    H270058   0.427   4.248   6.629 -0.3017  0.6097 -0.8990
16215TIP3   OH270059   2.077   6.374  17.049 -0.6267 -0.4041  0.3325
16215TIP3    H170060   2.096   6.280  17.041 -1.3870 -0.5011 -0.5190
16215TIP3    H270061   2.163   6.416  17.043 -0.1498 -1.0922  1.8713
16216TIP3   OH270062   1.786   6.509   0.304 -0.0179 -0.8515  0.3224
16216TIP3    H170063   1.739   6.592   0.311  1.0652 -0.0350 -1.4454
16216TIP3    H270064   1.734   6.458   0.242  1.2418 -0.0175 -1.4921
16217TIP3   OH270065   2.512   3.425  13.138  0.4585  0.4839 -0.2902
16217TIP3    H170066   2.444   3.359  13.153 -0.6253  1.4445 -0.7999
16217TIP3    H270067   2.469   3.508  13.158  1.4764  1.1221 -0.6857
16218TIP3   OH270068   5.680   1.977  14.984 -0.1517 -0.4844  0.4524
16218TIP3    H170069   5.586   1.974  15.000 -0.7480  0.8429 -2.1940
16218TIP3    H270070   5.692   1.924  14.905  1.3288 -0.6059  0.7345
16219TIP3   OH270071   2.514   5.072  16.887  0.5566 -0.1820  0.1082
16219TIP3    H170072   2.521   5.153  16.836  0.3099 -0.3892 -0.2578
16219TIP3    H270073   2.599   5.030  16.878  0.2990 -0.5507 -0.7051
16220TIP3   OH270074   3.961   3.979   5.375  0.0772 -0.2103  0.4277
16220TIP3    H170075   3.905   3.992   5.452  2.0242  1.3451  1.6611
16220TIP3    H270076   4.018   3.906   5.400 -0.1929 -0.6253 -0.1370
16221TIP3   OH270077   4.676   4.095  11.241  0.2389  0.9933  0.3603
16221TIP3    H170078   4.654   4.149  11.165 -0.3220 -0.7323 -0.7439
16221TIP3    H270079   4.767   4.118  11.261  0.4756  1.3001 -0.9783
16222TIP3   OH270080   5.404   6.332   4.785 -0.1993  0.3319 -0.0435
16222TIP3    H170081   5.362   6.403   4.737 -1.2201  0.6606  1.2711
16222TIP3    H270082   5.457   6.376   4.851  0.2784 -0.1204 -0.1216
16223TIP3   OH270083   2.604   0.653   0.158  0.4281 -0.1208 -0.0133
16223TIP3    H170084   2.543   0.725   0.143  0.8245  0.1935 -0.1369
16223TIP3    H270085   2.646   0.640   0.073  1.9332  0.9644  0.5159
16224TIP3   OH270086   1.108   4.127  11.620 -0.3612 -0.2341 -0.2101
16224TIP3    H170087   1.131   4.202  11.676  0.6821  2.1336 -3.4496
16224TIP3    H270088   1.045   4.163  11.558 -0.1207 -2.1842 -1.6495
16225TIP3   OH270089   5.678   1.736  14.829 -0.2383  0.0397  0.5626
16225TIP3    H170090   5.623   1.691  14.766 -0.1195 -0.0337  0.5106
16225TIP3    H270091   5.716   1.667  14.882 -1.7341  0.1893  1.8946
16226TIP3   OH270092   1.704   3.722   5.225 -0.0563  0.1027 -0.1380
16226TIP3    H170093   1.739   3.700   5.312 -0.6144 -0.4109 -0.0323
16226TIP3    H270094   1.609   3.722   5.237 -0.1187  0.8528 -0.5641
16227TIP3   OH270095   1.615   3.635  13.209  0.0971 -0.6966  0.1161
16227TIP3    H170096   1.572   3.679  13.136  1.5104  0.0045 -0.3311
16227TIP3    H270097   1.586   3.682  13.287 -1.9818 -1.8950  0.1393
16228TIP3   OH270098   5.428   3.234  14.074 -0.0094  0.0115 -0.1476
16228TIP3    H170099   5.414   3.231  14.168 -0.3393  1.6353 -0.1221
16228TIP3    H270100   5.387   3.316  14.046  1.7136  0.4865 -1.4203
16229TIP3   OH270101   4.548   2.329   4.765  0.0539 -0.1801 -0.3564
16229TIP3    H170102   4.485   2.258   4.771 -1.4290  1.0944 -0.3104
16229TIP3    H270103   4.619   2.303   4.824  0.5436 -2.5495 -1.8399
16230TIP3   OH270104   5.328   6.173  16.194 -0.1355  0.1011  0.0248
16230TIP3    H170105   5.395   6.116  16.157  1.0330  1.1802  0.3954
16230TIP3    H270106   5.376   6.250  16.223 -1.5600  0.9488  0.2278
16231TIP3   OH270107   6.325   6.034   0.076  0.4368 -0.0550 -0.3290
16231TIP3    H170108   6.396   6.029   0.139  0.7938 -0.0337 -0.7207
16231TIP3    H270109   6.261   6.093   0.115  0.0062 -1.1144  0.6299
16232TIP3   OH270110   6.793   4.888   1.251 -0.2309 -0.1151 -0.1873
16232TIP3    H170111   6.704   4.914   1.274 -0.4343 -0.9732  0.0253
16232TIP3    H270112   6.836   4.875   1.336  0.9068  2.8389 -0.1966
16233TIP3   OH270113   1.012   6.166   0.603  0.0781 -0.1604 -0.0768
16233TIP3    H170114   1.104   6.149   0.619 -0.3830 -0.7678  2.1784
16233TIP3    H270115   0.968   6.083   0.619 -1.1528  0.7730  1.6925
16234TIP3   OH270116   3.151   2.929  13.008 -0.0918 -0.0210 -0.1996
16234TIP3    H170117   3.142   3.011  12.960  0.2014  0.1235 -0.0137
16234TIP3    H270118   3.219   2.881  12.961  1.8354  1.0607  1.3116
16235TIP3   OH270119   6.208   0.282  10.597 -0.1873  0.1778  0.3264
16235TIP3    H170120   6.175   0.340  10.528  0.4565  0.2884  0.1038
16235TIP3    H270121   6.274   0.334  10.643  0.0363 -0.2041  0.4431
16236TIP3   OH270122   3.015   4.978   4.286 -0.1547  0.1163 -0.2617
16236TIP3    H170123   3.025   4.903   4.228 -1.4473  0.1534 -0.5772
16236TIP3    H270124   3.098   4.985   4.332  1.1477  0.4067 -2.4932
16237TIP3   OH270125   1.827   5.497   5.236 -0.1590  0.5997 -0.1774
16237TIP3    H170126   1.821   5.559   5.309  0.7297  0.4118  0.0640
16237TIP3    H270127   1.754   5.521   5.178 -2.0825 -0.4653  1.6687
16238TIP3   OH270128   0.901   2.177  11.162 -0.0135 -0.4321  0.2867
16238TIP3    H170129   0.944   2.167  11.077  2.0972  0.3094  1.1862
16238TIP3    H270130   0.874   2.089  11.186  2.3055 -1.2292  0.2520
16239TIP3   OH270131   2.883   5.435   1.299 -0.4302 -0.0105 -0.0142
16239TIP3    H170132   2.793   5.464   1.283 -0.0996  0.2717 -1.5256
16239TIP3    H270133   2.921   5.426   1.212  0.4850 -1.8603  0.5220
16240TIP3   OH270134   0.637   6.451   2.427  0.6744  0.0545  0.2327
16240TIP3    H170135   0.691   6.389   2.476  1.5888  1.6901  1.3739
16240TIP3    H270136   0.637   6.416   2.338  2.4847 -0.7420  0.4964
16241TIP3   OH270137   0.993   0.228  15.867 -0.9093  0.5146  0.5241
16241TIP3    H170138   1.035   0.149  15.834 -2.4416  0.2105 -0.8149
16241TIP3    H270139   1.046   0.254  15.942 -0.8748 -2.2837  1.5817
16242TIP3   OH270140   1.436   4.770  14.007 -0.5546 -0.1932 -0.3230
16242TIP3    H170141   1.353   4.793  13.966 -2.0511 -2.1829  1.3146
16242TIP3    H270142   1.412   4.751  14.098  1.5822 -1.3979  0.0464
16243TIP3   OH270143   3.496   0.391  12.004  0.6351 -0.0715 -0.2034
16243TIP3    H170144   3.462   0.474  12.037  0.6900 -0.2149  0.2198
16243TIP3    H270145   3.588   0.390  12.031  0.8749  0.1316 -0.9871
16244TIP3   OH270146   4.895   4.846  11.410 -0.0068 -0.7034  0.2373
16244TIP3    H170147   4.837   4.904  11.360 -0.7849 -1.9796 -0.3999
16244TIP3    H270148   4.980   4.890  11.408 -0.4526  0.1817 -0.6337
16245TIP3   OH270149   3.933   4.427  12.729  0.0483 -0.7671  0.9920
16245TIP3    H170150   3.943   4.339  12.765  0.2334 -1.0088  0.3538
16245TIP3    H270151   4.022   4.453  12.705 -0.0209 -0.4439  1.0829
16246TIP3   OH270152   1.392   0.664   4.675 -0.7903  0.6533  0.0907
16246TIP3    H170153   1.342   0.595   4.631  1.4862 -0.2058 -1.3620
16246TIP3    H270154   1.433   0.620   4.749 -0.6614  0.8708  0.1502
16247TIP3   OH270155   4.460   6.305   4.871  0.4320 -0.0804 -0.1246
16247TIP3    H170156   4.542   6.323   4.825  0.9971 -0.2810  0.7718
16247TIP3    H270157   4.463   6.361   4.949 -0.7124  0.5868 -0.5361
16248TIP3   OH270158   0.535   0.606   1.383  0.4515  0.3587 -0.4696
16248TIP3    H170159   0.474   0.534   1.396  0.5428  0.1305 -1.3168
16248TIP3    H270160   0.542   0.616   1.288  0.3150  1.5827 -0.3654
16249TIP3   OH270161   3.126   6.159   2.943  0.1692  0.3180  0.0882
16249TIP3    H170162   3.090   6.070   2.947  0.1500  0.3513  1.0093
16249TIP3    H270163   3.049   6.215   2.942  0.1749  0.3182 -1.0402
16250TIP3   OH270164   2.038   2.080   3.407 -0.5239  0.2181  0.3591
16250TIP3    H170165   2.093   2.085   3.329  2.3388  1.2751  2.2792
16250TIP3    H270166   2.018   2.171   3.428 -2.3948 -0.1110  0.2023
16251TIP3   OH270167   0.526   0.953   1.288 -0.2098  0.0151 -0.2081
16251TIP3    H170168   0.492   0.922   1.372 -1.8910  4.1993  0.9500
16251TIP3    H270169   0.467   0.915   1.223 -1.3266 -0.2378  0.9170
16252TIP3   OH270170   5.759   2.922   4.463 -0.2037  0.6780  0.3276
16252TIP3    H170171   5.759   2.927   4.558 -0.2039  1.1845  0.3025
16252TIP3    H270172   5.850   2.904   4.440 -0.0502  1.3480  0.3875
16253TIP3   OH270173   1.734   0.801  16.018  0.5493  0.0732  0.1172
16253TIP3    H170174   1.773   0.842  15.940  0.4579 -0.7209 -0.3563
16253TIP3    H270175   1.702   0.716  15.987  1.4512 -0.7041  1.2555
16254TIP3   OH270176   0.459   6.695  10.348 -0.2404 -0.3443 -0.0066
16254TIP3    H170177   0.506   6.777  10.362  0.2328 -0.4357 -0.9814
16254TIP3    H270178   0.373   6.709  10.388 -0.0992  0.5563 -0.0072
16255TIP3   OH270179   3.928   4.879   2.360  0.1690  0.0751 -0.3008
16255TIP3    H170180   3.917   4.972   2.383  0.2684  0.2279 -0.8623
16255TIP3    H270181   3.847   4.838   2.388 -0.2151  0.4822 -0.7982
16256TIP3   OH270182   6.017   4.944  11.998 -0.0212 -0.3538  0.7055
16256TIP3    H170183   6.072   4.888  11.943  0.3907  1.3999 -0.7433
16256TIP3    H270184   5.928   4.929  11.965 -0.2062 -1.6566  1.7029
16257TIP3   OH270185   2.657   0.075  12.492  0.3750  0.3427  0.1261
16257TIP3    H170186   2.597   0.115  12.430 -0.8361  0.6531  1.4315
16257TIP3    H270187   2.601   0.023  12.550  1.5967 -0.9543  0.2229
16258TIP3   OH270188   4.208   3.262  12.416  0.4266 -0.2373  0.3651
16258TIP3    H170189   4.216   3.241  12.323  1.3533 -1.7020  0.7418
16258TIP3    H270190   4.136   3.324  12.420  1.5856  1.3584 -1.5426
16259TIP3   OH270191   1.021   0.398  11.794 -0.0571  0.4470  0.1108
16259TIP3    H170192   1.050   0.489  11.789 -0.4499  0.6764  1.4280
16259TIP3    H270193   0.951   0.399  11.860  1.6264 -1.2056  2.0499
16260TIP3   OH270194   6.311   5.970   5.522 -0.7859  0.0563  0.0411
16260TIP3    H170195   6.236   6.010   5.477 -0.0358 -0.7747 -2.0486
16260TIP3    H270196   6.297   5.876   5.513  0.0906 -0.1143  0.3773
16261TIP3   OH270197   5.248   2.779  11.984  0.5012  0.1440  0.3772
16261TIP3    H170198   5.159   2.815  11.979  0.5630  0.0685 -2.5300
16261TIP3    H270199   5.245   2.701  11.929  2.5727  0.6044 -0.4580
16262TIP3   OH270200   3.297   6.489  11.581  1.1771 -0.5656  0.1833
16262TIP3    H170201   3.226   6.529  11.631  0.9675 -1.8634  0.9546
16262TIP3    H270202   3.267   6.492  11.490 -0.9003 -2.9836  0.6600
16263TIP3   OH270203   0.045   2.134  13.549 -0.3422  0.1911  0.1042
16263TIP3    H170204   0.092   2.089  13.478  1.7729  0.7199  1.0919
16263TIP3    H270205   0.066   2.083  13.627  1.6116  2.4157  1.1545
16264TIP3   OH270206   5.442   2.364   4.227 -0.3698 -0.2412  0.3616
16264TIP3    H170207   5.355   2.337   4.259 -0.7972  0.0129 -0.5630
16264TIP3    H270208   5.503   2.305   4.272 -1.0939 -1.0727  0.2906
16265TIP3   OH270209   4.573   2.567  15.668 -0.2417  0.1113 -0.2400
16265TIP3    H170210   4.499   2.525  15.712  0.0733  0.6652  0.8541
16265TIP3    H270211   4.541   2.655  15.647 -0.7378 -0.4611 -2.0942
16266TIP3   OH270212   6.532   0.368   0.182 -0.2095 -0.5682  0.4437
16266TIP3    H170213   6.598   0.434   0.163 -1.0105  0.0172 -0.3553
16266TIP3    H270214   6.465   0.414   0.233 -0.7431 -0.7720 -0.0676
16267TIP3   OH270215   0.640   0.570  13.421  0.0327 -0.2422  0.5660
16267TIP3    H170216   0.619   0.655  13.460 -1.6472 -0.5407  0.3817
16267TIP3    H270217   0.641   0.509  13.495  1.9838  0.0141  0.8093
16268TIP3   OH270218   4.430   4.995   1.036 -0.5613 -0.3014 -0.3747
16268TIP3    H170219   4.456   5.083   1.008 -1.3538  0.0504 -0.0112
16268TIP3    H270220   4.429   4.944   0.955 -2.6037  0.6564 -1.0292
16269TIP3   OH270221   6.716   5.524  15.829  0.3939  0.0162 -0.0955
16269TIP3    H170222   6.653   5.455  15.805  0.5826  0.2313 -1.3079
16269TIP3    H270223   6.780   5.480  15.885  0.0453 -0.5978 -0.1694
16270TIP3   OH270224   3.890   2.844   4.088  0.5841 -0.1995  0.4931
16270TIP3    H170225   3.805   2.826   4.048  0.7103  0.0678  0.1050
16270TIP3    H270226   3.884   2.934   4.119  0.6237 -0.2784  0.7354
16271TIP3   OH270227   3.944   6.299   0.439  0.2650  0.5097  0.3082
16271TIP3    H170228   3.957   6.391   0.464  1.4460  0.8901 -1.4361
16271TIP3    H270229   3.931   6.303   0.344  0.9641 -1.1825  0.1170
16272TIP3   OH270230   3.162   2.308  14.460 -0.0021  0.9619  0.0354
16272TIP3    H170231   3.110   2.281  14.536  1.6564 -0.8914  0.6020
16272TIP3    H270232   3.239   2.351  14.498  0.1688  1.2998 -0.6783
16273TIP3   OH270233   2.433   2.790  12.554  0.4229  0.1825  0.1839
16273TIP3    H170234   2.477   2.706  12.545  1.9266  0.9026  0.4891
16273TIP3    H270235   2.454   2.818  12.643  1.2846  1.5872 -0.4304
16274TIP3   OH270236   1.230   1.344  14.342  0.1721  0.0316  0.1790
16274TIP3    H170237   1.155   1.351  14.402  0.5669 -1.0531  0.8234
16274TIP3    H270238   1.301   1.313  14.398  0.5360 -1.0628 -0.8717
16275TIP3   OH270239   3.814   0.781   4.001  0.7155 -0.4775 -0.3276
16275TIP3    H170240   3.724   0.815   4.002  0.1518 -1.7894 -1.8073
16275TIP3    H270241   3.863   0.847   3.952  0.0491 -0.7836 -1.4635
16276TIP3   OH270242   6.130   3.775   0.922 -0.5548  0.1160 -0.1224
16276TIP3    H170243   6.133   3.732   1.007 -0.0255  0.1916 -0.1009
16276TIP3    H270244   6.131   3.703   0.859 -0.3364  0.0774 -0.0750
16277TIP3   OH270245   6.368   1.673  10.939  0.7301 -0.5058 -0.3791
16277TIP3    H170246   6.421   1.676  11.019 -2.0101  0.7807  1.5079
16277TIP3    H270247   6.415   1.730  10.878  1.6426  0.4269  1.1287
16278TIP3   OH270248   1.493   3.994  10.936 -0.5579  0.3838 -0.7036
16278TIP3    H170249   1.487   3.928  11.006 -0.3529  1.6080  0.5218
16278TIP3    H270250   1.579   3.980  10.896 -0.6997 -0.3703 -0.7480
16279TIP3   OH270251   5.772   3.708  16.106  0.4659  0.2528 -0.3331
16279TIP3    H170252   5.750   3.800  16.121  1.2185  0.5984 -1.2138
16279TIP3    H270253   5.720   3.660  16.170  0.2106  1.3057  0.2825
16280TIP3   OH270254   4.716   6.375  16.374  0.0710  0.6857  0.2701
16280TIP3    H170255   4.725   6.386  16.468 -0.5159  1.8173  0.2076
16280TIP3    H270256   4.685   6.460  16.342 -2.4823 -0.4784 -0.6014
16281TIP3   OH270257   1.874   4.924  11.749 -0.9380  0.5969  0.5042
16281TIP3    H170258   1.860   4.843  11.798  1.5021  0.0507  0.4250
16281TIP3    H270259   1.874   4.896  11.657 -1.0888  0.8634  0.4227
16282TIP3   OH270260   1.204   1.771  12.618 -0.0769 -0.6457 -0.5752
16282TIP3    H170261   1.121   1.807  12.647  0.2701 -0.0119 -0.3650
16282TIP3    H270262   1.268   1.839  12.637  1.0060 -2.2804  2.1811
16283TIP3   OH270263   5.614   6.022  14.067 -0.3119 -0.4099 -0.3094
16283TIP3    H170264   5.697   6.007  14.022  0.0319 -0.7873  0.4291
16283TIP3    H270265   5.607   6.117  14.075 -0.2799 -0.3512 -0.9734
16284TIP3   OH270266   4.404   3.361   3.599  0.3452  0.4377  0.1455
16284TIP3    H170267   4.343   3.304   3.552 -0.8721  0.3250  1.7438
16284TIP3    H270268   4.425   3.312   3.679  1.2548  1.1708  0.3698
16285TIP3   OH270269   4.188   5.208  12.564  0.9082 -0.2013 -0.0686
16285TIP3    H170270   4.193   5.284  12.621  0.3776  0.0351 -0.3309
16285TIP3    H270271   4.268   5.158  12.583  0.6064 -0.2776  1.0841
16286TIP3   OH270272   6.657   0.700   6.015  0.0676 -0.4358  0.1337
16286TIP3    H170273   6.605   0.664   6.087  1.2168 -1.6886  0.3920
16286TIP3    H270274   6.671   0.791   6.039 -0.3994 -0.5793  1.0013
16287TIP3   OH270275   4.038   2.357   2.425  0.0910  0.1739 -0.1910
16287TIP3    H170276   4.073   2.285   2.373  0.6491  0.7048 -0.5629
16287TIP3    H270277   4.059   2.335   2.515 -0.4568 -0.5168 -0.2242
16288TIP3   OH270278   2.133   1.641   5.636  0.3488 -0.1607 -0.3551
16288TIP3    H170279   2.224   1.668   5.644  0.5995 -0.1785 -2.4519
16288TIP3    H270280   2.127   1.604   5.547 -1.3719 -1.4498  0.2439
16289TIP3   OH270281   1.140   3.739  11.456  0.9662  0.1442  0.5536
16289TIP3    H170282   1.070   3.771  11.514 -0.4312  1.6131 -1.7973
16289TIP3    H270283   1.191   3.680  11.511 -1.1494  0.2891  2.8459
16290TIP3   OH270284   6.030   6.061   2.615  0.3172 -0.5980  0.3131
16290TIP3    H170285   5.988   6.114   2.547 -0.3842  0.2428  1.3585
16290TIP3    H270286   6.099   6.013   2.569 -1.2522 -1.4282 -1.3386
16291TIP3   OH270287   5.357   1.415  15.397  0.2509  0.0364 -0.3343
16291TIP3    H170288   5.381   1.339  15.450  1.9235  0.0318 -1.0162
16291TIP3    H270289   5.328   1.480  15.461  0.6625 -0.5194  0.4369
16292TIP3   OH270290   4.978   3.622  12.435  0.5869 -0.5750  0.0592
16292TIP3    H170291   5.002   3.713  12.413  1.7386 -1.1569 -1.2572
16292TIP3    H270292   5.060   3.582  12.462  0.2962 -1.4986 -0.3857
16293TIP3   OH270293   2.953   3.714  10.425 -0.2524  0.4292  0.5493
16293TIP3    H170294   2.936   3.808  10.419 -0.0819  0.3463 -2.0688
16293TIP3    H270295   2.881   3.681  10.479 -0.9622  1.8952  0.5712
16294TIP3   OH270296   0.509   5.472  12.059  0.4876  0.5500 -0.0387
16294TIP3    H170297   0.429   5.471  12.005  0.3255  0.5834  0.1984
16294TIP3    H270298   0.558   5.547  12.027  0.5966  0.3160 -0.4356
16295TIP3   OH270299   1.430   1.703   0.641 -0.1811 -0.1229 -0.1223
16295TIP3    H170300   1.364   1.762   0.605 -1.2591 -1.0034  0.3622
16295TIP3    H270301   1.504   1.709   0.580 -1.1005  0.1039 -1.2455
16296TIP3   OH270302   0.400   2.368  16.823  0.4802 -0.0207 -0.4693
16296TIP3    H170303   0.410   2.403  16.912 -2.6953  1.0380 -0.4179
16296TIP3    H270304   0.388   2.445  16.768  1.2154 -0.7270 -1.6546
16297TIP3   OH270305   3.243   1.468  11.697  0.3795  0.3382 -0.2058
16297TIP3    H170306   3.178   1.400  11.712 -0.7757  1.7388  1.5500
16297TIP3    H270307   3.209   1.545  11.743  3.7713  0.8779  1.7345
16298TIP3   OH270308   1.695   0.469  13.412 -0.4671 -0.7131 -0.0829
16298TIP3    H170309   1.604   0.490  13.389 -0.6884 -1.1365  0.3948
16298TIP3    H270310   1.690   0.440  13.503  0.5550  2.2199  1.0243
16299TIP3   OH270311   3.238   5.762  16.611  0.3551 -0.4125  0.0048
16299TIP3    H170312   3.248   5.843  16.561  0.2720 -0.4943 -0.1444
16299TIP3    H270313   3.213   5.791  16.699 -0.6567 -0.3083 -0.3039
16300TIP3   OH270314   6.498   2.447   5.887 -0.5227 -0.2107 -0.1464
16300TIP3    H170315   6.420   2.416   5.933 -0.6063  1.0428  0.5708
16300TIP3    H270316   6.559   2.474   5.956 -0.2811  0.7954 -0.7338
16301TIP3   OH270317   0.296   2.268   5.120 -0.1807 -0.4712  0.1964
16301TIP3    H170318   0.255   2.227   5.196  0.1755 -1.8500 -0.3370
16301TIP3    H270319   0.387   2.281   5.145 -0.1433 -0.6122  0.1364
16302TIP3   OH270320   6.668   6.699  13.583  0.0578  0.2095  0.2757
16302TIP3    H170321   6.629   6.773  13.631 -2.1474 -0.5743 -0.1584
16302TIP3    H270322   6.752   6.684  13.626  0.1660  2.3756  0.9555
16303TIP3   OH270323   4.844   5.243   4.233 -0.4027  0.4754 -0.0446
16303TIP3    H170324   4.931   5.252   4.194  0.7793 -1.9936  1.7582
16303TIP3    H270325   4.843   5.308   4.304  0.9397 -0.8959  1.3351
16304TIP3   OH270326   5.325   1.315   0.460 -0.5423  0.2613  0.0469
16304TIP3    H170327   5.323   1.411   0.457 -0.3705  0.2378 -1.4088
16304TIP3    H270328   5.235   1.288   0.439 -0.2936  0.0975 -0.8429
16305TIP3   OH270329   2.373   0.580  10.731 -0.4700 -0.0354 -0.1482
16305TIP3    H170330   2.353   0.594  10.824  0.6644 -0.4336  0.1658
16305TIP3    H270331   2.288   0.560  10.692 -0.6950 -2.3995  1.2839
16306TIP3   OH270332   6.485   5.655  15.975 -0.2023 -0.0799  0.7712
16306TIP3    H170333   6.516   5.602  15.902  0.9075 -1.1031  1.9452
16306TIP3    H270334   6.534   5.737  15.967 -1.5803  0.6480 -0.7763
16307TIP3   OH270335   6.561   4.943  13.222  0.2125  0.3550  0.5043
16307TIP3    H170336   6.572   5.015  13.283 -0.9429 -0.0758  1.2656
16307TIP3    H270337   6.641   4.892  13.230  2.1076  2.6936 -1.7335
16308TIP3   OH270338   5.797   4.052  14.493  0.0011  0.0969 -0.2697
16308TIP3    H170339   5.776   3.971  14.539  0.3007  0.2781  0.1987
16308TIP3    H270340   5.845   4.023  14.415  0.1649 -0.1742 -0.0716
16309TIP3   OH270341   4.502   6.339  17.048 -0.1964  0.6028  0.0840
16309TIP3    H170342   4.570   6.406  17.056  0.3009 -0.0352  1.6800
16309TIP3    H270343   4.474   6.322  17.138 -1.4959 -0.1455 -0.4298
16310TIP3   OH270344   3.075   5.531  16.528 -0.3357  0.6297 -0.0160
16310TIP3    H170345   3.113   5.446  16.549 -1.0881  0.4528  0.7035
16310TIP3    H270346   3.121   5.593  16.585 -0.2216  0.6127 -0.0895
16311TIP3   OH270347   2.974   6.547  10.264 -0.1727  0.6033  0.1245
16311TIP3    H170348   2.939   6.588  10.343 -0.9039 -0.0189  0.1398
16311TIP3    H270349   2.921   6.583  10.193 -1.7378 -1.2212  0.2613
16312TIP3   OH270350   0.303   3.477   6.307  0.2834  0.0747  0.1754
16312TIP3    H170351   0.297   3.573   6.312  0.7363  0.1579 -0.6505
16312TIP3    H270352   0.226   3.450   6.258  0.1570  0.0062  0.4064
16313TIP3   OH270353   0.118   1.094   3.581  0.0648  0.2201 -0.1486
16313TIP3    H170354   0.148   1.184   3.593  2.1663 -0.4905  0.5038
16313TIP3    H270355   0.077   1.071   3.664  2.3761 -0.3629  0.9233
16314TIP3   OH270356   3.052   5.157   3.903  0.3383  0.0178  0.8203
16314TIP3    H170357   3.105   5.235   3.913 -1.3947  1.1031  2.2163
16314TIP3    H270358   3.034   5.151   3.809  1.2921  0.7291  0.5845
16315TIP3   OH270359   6.511   0.638  16.411 -0.2003  0.3188  0.2350
16315TIP3    H170360   6.591   0.652  16.359 -0.4894 -0.9012 -0.5757
16315TIP3    H270361   6.497   0.544  16.408 -1.1393  0.4184  1.2022
16316TIP3   OH270362   0.115   4.912   5.430  0.4581 -0.2251  0.4827
16316TIP3    H170363   0.200   4.896   5.470  0.6624 -2.6160 -0.7440
16316TIP3    H270364   0.073   4.826   5.427 -0.6883  0.3267 -1.8053
16317TIP3   OH270365   6.678   1.779   0.340 -0.3024 -0.4473  0.1230
16317TIP3    H170366   6.686   1.862   0.388 -0.5060 -0.0537 -0.5198
16317TIP3    H270367   6.658   1.805   0.250 -0.0890 -1.1885 -0.1428
16318TIP3   OH270368   5.428   2.646   5.473 -0.5173 -0.5762  0.9131
16318TIP3    H170369   5.456   2.555   5.487 -2.2794 -1.2468  0.4821
16318TIP3    H270370   5.467   2.670   5.389  1.5498 -0.2030  1.9157
16319TIP3   OH270371   4.374   5.705   1.855 -0.4021  0.3857 -0.5421
16319TIP3    H170372   4.390   5.770   1.923  1.5262  0.2207 -0.7738
16319TIP3    H270373   4.432   5.632   1.878  0.5749  0.4788 -2.5507
16320TIP3   OH270374   6.438   0.371  15.045  0.0169  0.0627 -0.1826
16320TIP3    H170375   6.377   0.329  14.984  0.9005 -2.4382  0.5213
16320TIP3    H270376   6.382   0.419  15.106 -1.0073  0.5867 -1.4867
16321TIP3   OH270377   2.399   1.048  15.723  0.2808 -0.1140  1.1341
16321TIP3    H170378   2.426   0.962  15.756  1.4213  0.5104  1.9069
16321TIP3    H270379   2.458   1.109  15.767 -0.3424  1.0433  0.3875
16322TIP3   OH270380   0.381   5.718   0.055 -0.3670  0.5285 -0.0103
16322TIP3    H170381   0.399   5.668   0.135 -0.6077  0.2378 -0.1348
16322TIP3    H270382   0.431   5.673  -0.013 -0.0678  0.8465 -0.0054
16323TIP3   OH270383   3.672   4.102   0.006  0.0539 -0.0151 -0.4126
16323TIP3    H170384   3.747   4.147  -0.032 -0.0789  1.8466  1.3411
16323TIP3    H270385   3.648   4.155   0.082 -2.3635 -1.1537 -0.2735
16324TIP3   OH270386   0.203   3.992  15.252 -0.6015 -0.0369 -0.0468
16324TIP3    H170387   0.228   3.909  15.213 -1.1606  0.0783 -0.6784
16324TIP3    H270388   0.226   4.058  15.186 -1.3491  0.1818 -0.0974
16325TIP3   OH270389   1.504   0.364   1.236 -0.0126 -0.1780 -0.4936
16325TIP3    H170390   1.451   0.284   1.233 -1.5700  0.7055  1.3011
16325TIP3    H270391   1.592   0.333   1.257 -0.5120 -1.4538 -0.1499
16326TIP3   OH270392   1.866   2.064   4.065 -0.6688  0.0462  0.5861
16326TIP3    H170393   1.841   2.063   3.973 -1.6000  0.1596  0.8350
16326TIP3    H270394   1.920   1.985   4.076  1.6769  1.3797 -0.6453
16327TIP3   OH270395   4.386   0.765  16.601 -0.6706 -0.0218  0.3532
16327TIP3    H170396   4.339   0.822  16.540 -0.9175 -1.2896 -0.6832
16327TIP3    H270397   4.386   0.813  16.684  0.3041  2.0782 -0.7829
16328TIP3   OH270398   1.237   6.191   5.797  0.0579  0.2556  0.8503
16328TIP3    H170399   1.214   6.139   5.875 -1.3054  1.1397  1.0680
16328TIP3    H270400   1.329   6.213   5.810  0.4324 -1.3576  1.1787
16329TIP3   OH270401   0.008   2.387   5.160  0.1213 -0.0370  0.3327
16329TIP3    H170402  -0.012   2.320   5.225  0.4704  0.1964  0.6842
16329TIP3    H270403   0.087   2.355   5.115  0.5610  0.3491  0.8135
16330TIP3   OH270404   0.695   5.452   2.222 -0.1954  0.1973  0.3562
16330TIP3    H170405   0.709   5.547   2.221  0.7264  0.0641 -0.1749
16330TIP3    H270406   0.632   5.436   2.151 -0.2299  0.3894  0.3428
16331TIP3   OH270407   4.104   1.816   0.922  0.7200 -0.4818  0.0525
16331TIP3    H170408   4.178   1.857   0.878 -0.1553 -0.2522 -1.2599
16331TIP3    H270409   4.045   1.791   0.851  0.0613 -1.7054  0.9959
16332TIP3   OH270410   0.950   6.143   3.839 -0.4098 -0.0036 -0.1955
16332TIP3    H170411   0.895   6.073   3.874 -0.7704  0.3241 -0.1143
16332TIP3    H270412   1.004   6.171   3.913  0.6495 -1.0555 -0.5220
16333TIP3   OH270413   2.188   5.561   1.304  0.0063  0.4796  0.0411
16333TIP3    H170414   2.133   5.638   1.320 -0.7980  0.0367 -0.5180
16333TIP3    H270415   2.126   5.490   1.289  0.7253  0.0976 -1.2660
16334TIP3   OH270416   6.126   2.323   0.031  0.3421 -0.1671  0.3703
16334TIP3    H170417   6.180   2.303   0.107 -0.9666  2.4315  2.1089
16334TIP3    H270418   6.036   2.318   0.063 -0.2583  0.7932 -1.0628
16335TIP3   OH270419   3.881   2.223  16.960  0.1137 -0.4335  0.1357
16335TIP3    H170420   3.843   2.309  16.976  0.4727 -0.7709  3.6464
16335TIP3    H270421   3.973   2.240  16.939 -0.5546  0.0927 -2.8554
16336TIP3   OH270422   3.885   5.635  10.977 -0.4892 -0.7270  0.1525
16336TIP3    H170423   3.955   5.651  11.041 -1.3779  0.0861  0.9453
16336TIP3    H270424   3.927   5.582  10.909  0.8647 -0.3776  0.6788
16337TIP3   OH270425   2.695   2.034  15.721 -0.6285  0.6294 -0.2856
16337TIP3    H170426   2.615   1.984  15.735 -0.6849  0.4376 -1.2193
16337TIP3    H270427   2.765   1.978  15.756 -0.6710 -0.2126 -1.4928
16338TIP3   OH270428   1.334   0.543  15.589 -0.3435  0.2920  0.3348
16338TIP3    H170429   1.278   0.490  15.532 -0.0870  0.8148 -0.4095
16338TIP3    H270430   1.354   0.485  15.663 -2.8238  0.4729  1.2537
16339TIP3   OH270431   2.499   2.014   5.214  0.6301  0.3349 -0.2349
16339TIP3    H170432   2.563   2.054   5.155 -0.1202  0.0590 -1.2552
16339TIP3    H270433   2.552   1.974   5.283  1.5036  1.0196 -0.4855
16340TIP3   OH270434   0.959   3.792   1.669 -0.1025  0.1119  0.2008
16340TIP3    H170435   0.888   3.815   1.609 -2.1658  1.4315  2.9011
16340TIP3    H270436   0.923   3.721   1.722  1.3900 -0.5633  0.3651
16341TIP3   OH270437   4.831   0.075  11.639 -0.5020 -0.3701  0.4032
16341TIP3    H170438   4.779   0.043  11.713 -0.0294 -0.5062  0.6769
16341TIP3    H270439   4.921   0.071  11.669 -0.2935 -0.5672 -0.2348
16342TIP3   OH270440   3.133   0.803   0.898 -0.4542 -0.1653 -0.2072
16342TIP3    H170441   3.092   0.838   0.819 -0.3859 -0.9936 -0.6211
16342TIP3    H270442   3.064   0.752   0.941 -0.8159  1.1818  0.8618
16343TIP3   OH270443   5.548   2.526  14.272  0.0418 -0.2738  0.2376
16343TIP3    H170444   5.638   2.556  14.257 -0.6812  1.2925 -1.2634
16343TIP3    H270445   5.520   2.572  14.350  0.9801 -1.9001  1.6059
16344TIP3   OH270446   6.664   5.691  15.277 -0.1557  0.3138 -0.1920
16344TIP3    H170447   6.705   5.738  15.205 -1.3407  1.9266  0.1356
16344TIP3    H270448   6.573   5.681  15.250 -0.2708 -0.4325  0.4408
16345TIP3   OH270449   3.623   3.231   0.311  0.1970 -0.7782 -0.8416
16345TIP3    H170450   3.594   3.211   0.222  0.9235  0.3914 -1.3694
16345TIP3    H270451   3.605   3.324   0.321 -1.3157 -1.2017  0.8302
16346TIP3   OH270452   4.236   5.951  14.148  0.3434 -0.5428  0.2627
16346TIP3    H170453   4.195   5.907  14.222  0.9767 -1.7056 -0.0372
16346TIP3    H270454   4.307   6.002  14.186  0.0150 -0.3090  0.5608
16347TIP3   OH270455   6.443   6.374  15.263 -0.4412 -0.3567 -0.4531
16347TIP3    H170456   6.490   6.458  15.256 -1.9596  0.4744 -1.0572
16347TIP3    H270457   6.422   6.367  15.356  1.2378 -0.9894 -0.0707
16348TIP3   OH270458   0.508   1.113   5.894 -0.4788 -0.0721 -0.4449
16348TIP3    H170459   0.449   1.151   5.960 -0.4532 -0.7307 -0.0404
16348TIP3    H270460   0.555   1.044   5.940  1.0498  0.8184 -0.6034
16349TIP3   OH270461   3.266   5.804  13.297 -0.3380  0.0153 -0.2112
16349TIP3    H170462   3.250   5.868  13.228  0.1898  0.4472  0.0618
16349TIP3    H270463   3.274   5.720  13.251  1.3748  0.4780 -0.8381
16350TIP3   OH270464   1.217   2.031   3.573 -0.3764 -0.3691 -0.4017
16350TIP3    H170465   1.312   2.022   3.564 -0.2602  0.3683  0.0010
16350TIP3    H270466   1.201   2.125   3.565 -0.9858 -0.3990  0.3752
16351TIP3   OH270467   3.130   0.370   1.253  0.0855  0.5321  0.2008
16351TIP3    H170468   3.081   0.362   1.172  0.2579 -1.6942  0.2453
16351TIP3    H270469   3.155   0.280   1.275  0.4474  1.1188  2.4758
16352TIP3   OH270470   2.241   1.043  16.999 -0.4299 -0.6123  0.1686
16352TIP3    H170471   2.321   1.088  17.027 -1.6218  3.5026 -2.2534
16352TIP3    H270472   2.264   1.004  16.915 -0.7144 -0.1150 -0.1460
16353TIP3   OH270473   3.496   6.160   4.027  0.0237  0.8868  0.8618
16353TIP3    H170474   3.520   6.227   4.091  0.4846  1.0186  0.5516
16353TIP3    H270475   3.467   6.210   3.950  0.7016  0.7302  0.5047
16354TIP3   OH270476   3.156   5.779  11.009  0.0553  0.3316 -0.1840
16354TIP3    H170477   3.202   5.856  10.975  0.1409  1.3271  2.0303
16354TIP3    H270478   3.215   5.706  10.991  1.8590  1.3594  1.1803
16355TIP3   OH270479   2.606   2.625   2.574  0.5752 -0.1680 -0.6262
16355TIP3    H170480   2.526   2.678   2.566 -0.4305 -1.7123 -1.4863
16355TIP3    H270481   2.637   2.640   2.663 -0.2934  0.9920 -0.4985
16356TIP3   OH270482   2.251   1.106   0.625 -0.2745 -0.1368 -0.0990
16356TIP3    H170483   2.171   1.143   0.661 -1.2687  1.4660 -3.5013
16356TIP3    H270484   2.231   1.090   0.533  2.8330 -1.2574 -0.7181
16357TIP3   OH270485   0.664   1.049  12.595 -0.0415  0.1556 -0.2714
16357TIP3    H170486   0.637   1.137  12.622 -0.8034 -0.1048 -0.1636
16357TIP3    H270487   0.618   0.991  12.655  0.2903 -0.3302 -0.4858
16358TIP3   OH270488   6.540   2.057   4.160 -0.1142  0.1994  0.1604
16358TIP3    H170489   6.599   2.109   4.215 -0.6944  0.7751  0.2605
16358TIP3    H270490   6.587   2.047   4.077  0.9417 -1.0162  0.8681
16359TIP3   OH270491   1.476   5.649   4.681 -0.2412  0.1046 -0.6502
16359TIP3    H170492   1.503   5.686   4.597 -0.1215  0.8252 -0.3043
16359TIP3    H270493   1.556   5.614   4.719 -0.0497  0.9391 -0.2685
16360TIP3   OH270494   4.447   3.803   2.302  0.5398 -0.2815  0.2078
16360TIP3    H170495   4.499   3.792   2.222 -4.6715  1.2842 -3.9859
16360TIP3    H270496   4.406   3.718   2.315  0.5963 -0.2431  0.6500
16361TIP3   OH270497   4.606   0.963  13.611  0.2925  0.3715 -0.1532
16361TIP3    H170498   4.645   1.041  13.571 -0.7713  0.2983 -1.3723
16361TIP3    H270499   4.651   0.889  13.570  0.1874  0.3214 -0.1790
16362TIP3   OH270500   0.306   0.828   1.188 -0.2811 -0.1131  0.5313
16362TIP3    H170501   0.277   0.760   1.248 -1.4242 -1.1497 -1.1068
16362TIP3    H270502   0.320   0.783   1.105  2.9463  0.9562  0.3821
16363TIP3   OH270503   4.151   4.414  14.057  0.4069  0.0522  0.4339
16363TIP3    H170504   4.185   4.326  14.044  1.0392  0.4842 -1.0365
16363TIP3    H270505   4.225   4.463  14.094  0.7712  0.4793 -0.8075
16364TIP3   OH270506   4.560   2.908   3.215 -0.2216 -0.0957  0.0537
16364TIP3    H170507   4.492   2.883   3.152 -0.8074  1.2503  0.1358
16364TIP3    H270508   4.640   2.911   3.162 -0.4545 -0.3543 -0.3241
16365TIP3   OH270509   2.106   3.214  15.257  0.2523  0.1946  0.0900
16365TIP3    H170510   2.168   3.182  15.322  0.1027 -1.8161 -0.6962
16365TIP3    H270511   2.158   3.227  15.178  0.2699  1.8020  0.3283
16366TIP3   OH270512   1.233   5.247   4.605  0.2396  0.1792  0.6487
16366TIP3    H170513   1.181   5.259   4.684 -1.4115  0.2642 -0.4009
16366TIP3    H270514   1.212   5.159   4.575  1.6953 -0.2608  0.8799
16367TIP3   OH270515   6.587   1.548   4.981 -0.0615 -0.2027  0.3883
16367TIP3    H170516   6.492   1.549   4.965  0.0315 -0.4199 -0.2316
16367TIP3    H270517   6.621   1.614   4.920  0.2997 -0.9589 -0.2442
16368TIP3   OH270518   4.407   0.284  12.500  0.1203 -0.2981 -0.0269
16368TIP3    H170519   4.497   0.316  12.510 -0.6483  2.1848 -0.2527
16368TIP3    H270520   4.393   0.228  12.576  1.6721 -0.2612  0.3286
16369TIP3   OH270521   0.291   3.695  14.874  0.0659  0.0005  0.7033
16369TIP3    H170522   0.376   3.655  14.855  0.2903  0.8780 -0.2049
16369TIP3    H270523   0.227   3.632  14.841  0.4051  0.2011 -0.3652
16370TIP3   OH270524   6.000   3.564   1.132 -0.3521 -0.4686  0.3359
16370TIP3    H170525   5.945   3.514   1.192  0.2217 -0.3221  0.9982
16370TIP3    H270526   6.037   3.634   1.186 -1.1259  0.6795 -0.5720
16371TIP3   OH270527   3.055   0.284  15.233  0.0242 -0.2024  0.3276
16371TIP3    H170528   2.961   0.294  15.217  0.3055 -0.1005 -1.5442
16371TIP3    H270529   3.061   0.234  15.314 -1.6301  0.3501  0.8255
16372TIP3   OH270530   0.752   5.581  15.494  0.4775  0.1231 -0.0549
16372TIP3    H170531   0.682   5.517  15.484  0.4507 -0.5371  3.3714
16372TIP3    H270532   0.706   5.666  15.499  0.3048  0.1663 -1.8012
16373TIP3   OH270533   5.987   4.356  15.914 -0.1317  0.2369  0.3513
16373TIP3    H170534   5.958   4.316  15.996 -1.1083  0.7258  0.2604
16373TIP3    H270535   5.907   4.391  15.875  0.2878 -0.1742 -0.9222
16374TIP3   OH270536   6.001   6.692  11.743  0.5211 -0.3408 -0.0751
16374TIP3    H170537   5.996   6.691  11.648  0.2458  0.6781 -0.0756
16374TIP3    H270538   6.091   6.716  11.762  0.4984 -0.2575 -0.0748
16375TIP3   OH270539   2.046   1.670   0.566  0.2836  0.5311  0.3696
16375TIP3    H170540   1.985   1.597   0.556  0.2464  0.3375  1.7535
16375TIP3    H270541   2.131   1.635   0.538  0.2986 -0.1073  1.1808
16376TIP3   OH270542   4.073   6.659  14.526 -0.4063 -0.5726  0.2755
16376TIP3    H170543   4.149   6.657  14.583 -0.0715 -0.7419 -0.1670
16376TIP3    H270544   4.086   6.585  14.466 -0.3271  0.0879 -0.5461
16377TIP3   OH270545   5.103   1.844   1.177 -0.2749 -0.3923  0.4167
16377TIP3    H170546   5.074   1.902   1.107  1.7435  0.5483  0.3077
16377TIP3    H270547   5.124   1.762   1.133  1.3213  0.3057 -0.1829
16378TIP3   OH270548   3.845   3.590  15.858  0.3096 -0.7603 -0.2315
16378TIP3    H170549   3.766   3.560  15.902  0.4673 -0.4257  0.2865
16378TIP3    H270550   3.905   3.613  15.929  1.3517 -2.2249 -0.5892
16379TIP3   OH270551   1.487   1.956  16.577  0.4770  0.0439  0.1896
16379TIP3    H170552   1.482   1.929  16.485  0.4355 -0.7617  0.4279
16379TIP3    H270553   1.526   1.882  16.622 -1.8019 -0.6028  1.2480
16380TIP3   OH270554   0.744   4.590   5.285 -0.9709 -0.7282 -0.1469
16380TIP3    H170555   0.683   4.536   5.335 -0.8753  0.3656  1.1882
16380TIP3    H270556   0.826   4.586   5.334  0.1539 -2.3261 -2.0085
16381TIP3   OH270557   5.189   6.061  16.876 -0.6602  0.2825  0.4732
16381TIP3    H170558   5.137   6.002  16.930 -0.7625 -0.9601 -0.9291
16381TIP3    H270559   5.278   6.052  16.909 -0.6143 -0.9519  0.0320
16382TIP3   OH270560   2.211   3.241  15.996 -0.1255  0.4332 -0.2196
16382TIP3    H170561   2.146   3.184  16.037 -0.6860  0.4403 -1.0685
16382TIP3    H270562   2.159   3.304  15.945  0.5497  0.2837 -1.1194
16383TIP3   OH270563   5.098   4.854   4.105 -0.4955  0.4196  0.2228
16383TIP3    H170564   5.143   4.879   4.186  0.0078  1.6307 -0.4124
16383TIP3    H270565   5.013   4.822   4.134 -0.4582  1.1870  1.2100
16384TIP3   OH270566   4.343   6.148  13.763 -0.1380 -0.3060 -0.3238
16384TIP3    H170567   4.267   6.201  13.739 -0.6755 -0.7231  0.4312
16384TIP3    H270568   4.352   6.085  13.691 -0.6371 -0.3872 -0.3150
16385TIP3   OH270569   0.424   0.919  12.992 -0.4866 -0.0176  0.7606
16385TIP3    H170570   0.331   0.909  12.969 -0.1496 -1.7792  0.0046
16385TIP3    H270571   0.433   0.870  13.074 -0.7168  2.3880  2.3322
16386TIP3   OH270572   3.796   0.453   6.252  0.1241 -0.4648 -0.4790
16386TIP3    H170573   3.802   0.479   6.160 -0.3561 -1.1228 -0.7027
16386TIP3    H270574   3.738   0.519   6.291 -0.7503 -0.9425 -0.9466
16387TIP3   OH270575   3.101   5.694  11.963 -0.7847 -0.6293 -0.4754
16387TIP3    H170576   3.143   5.663  12.043 -1.0509  0.1263 -0.0283
16387TIP3    H270577   3.056   5.617  11.928  2.2597 -1.9193 -1.8781
16388TIP3   OH270578   2.280   6.413   4.871 -0.9588  0.0528  0.0363
16388TIP3    H170579   2.311   6.324   4.858 -0.3588  0.3404 -0.6036
16388TIP3    H270580   2.247   6.439   4.785  0.7731  1.1515 -0.3412
16389TIP3   OH270581   1.676   5.721   5.296 -0.1695  0.4041  0.2324
16389TIP3    H170582   1.611   5.710   5.366 -1.5276  0.8032 -0.9060
16389TIP3    H270583   1.624   5.747   5.220  1.4281  1.3770 -0.5694
16390TIP3   OH270584   6.124   1.885   0.246 -0.2694  0.5909 -0.1937
16390TIP3    H170585   6.168   1.919   0.168 -0.8242 -0.4731 -1.0033
16390TIP3    H270586   6.039   1.927   0.247 -0.0300  1.0735  0.1972
16391TIP3   OH270587   5.340   1.122   2.370 -0.1799 -0.3934 -0.3335
16391TIP3    H170588   5.260   1.175   2.375 -0.4347 -0.7514 -0.5674
16391TIP3    H270589   5.379   1.146   2.286  0.2324  0.1611  0.0093
16392TIP3   OH270590   5.144   5.580   2.510 -0.4676 -0.2697 -0.0787
16392TIP3    H170591   5.132   5.643   2.581  0.8982  1.1161 -1.0124
16392TIP3    H270592   5.217   5.524   2.539 -2.0642 -1.9027  1.0148
16393TIP3   OH270593   2.961   5.147  14.898  0.2485 -0.7141  0.0196
16393TIP3    H170594   3.015   5.068  14.903  0.1562 -0.7806 -0.0192
16393TIP3    H270595   3.008   5.205  14.839 -0.1416 -1.1043 -0.6870
16394TIP3   OH270596   5.133   5.458  11.109  0.3837  0.1637 -0.0077
16394TIP3    H170597   5.188   5.533  11.088 -0.5660  0.9671  0.2618
16394TIP3    H270598   5.120   5.413  11.025  1.0389  0.2477 -0.1556
16395TIP3   OH270599   4.842   2.547  10.591  0.2407 -0.1066  0.1152
16395TIP3    H170600   4.809   2.595  10.515  0.1194 -0.2866  0.0530
16395TIP3    H270601   4.770   2.489  10.616  1.1202 -1.9077 -1.2077
16396TIP3   OH270602   2.566   5.076   0.371  0.1352  0.0483 -0.2176
16396TIP3    H170603   2.600   5.083   0.460  1.5215  1.2904 -0.7992
16396TIP3    H270604   2.538   4.985   0.363  0.8468 -0.3234  1.1779
16397TIP3   OH270605   3.099   2.594  12.202 -0.0471 -0.1698  0.0387
16397TIP3    H170606   3.093   2.689  12.194 -0.6373 -0.1898  0.2282
16397TIP3    H270607   3.058   2.574  12.286  0.3712 -0.5646  0.1558
16398TIP3   OH270608   6.318   3.097   3.932 -0.2174 -0.4735 -0.7847
16398TIP3    H170609   6.280   3.183   3.950 -0.4661 -0.3682 -1.7337
16398TIP3    H270610   6.246   3.047   3.893 -0.2684 -1.3555  0.3963
16399TIP3   OH270611   2.803   1.255   5.428  0.6345  0.3927  0.3867
16399TIP3    H170612   2.889   1.214   5.426  0.4716 -0.1211  2.2599
16399TIP3    H270613   2.756   1.210   5.498 -0.9951  1.0052 -0.2555
16400TIP3   OH270614   4.822   6.715   1.957  0.1169  0.0574  0.1794
16400TIP3    H170615   4.765   6.789   1.937  1.0401  0.9479  0.7655
16400TIP3    H270616   4.791   6.645   1.899 -1.0845  0.7318 -0.0374
16401TIP3   OH270617   4.990   2.697   6.501  0.1491  0.0720  0.0528
16401TIP3    H170618   5.009   2.640   6.576  1.7455  0.3311 -0.1149
16401TIP3    H270619   4.911   2.745   6.527 -0.9808 -1.8738  0.3591
16402TIP3   OH270620   3.557   6.524  16.652 -0.1247  0.8060 -0.6735
16402TIP3    H170621   3.646   6.549  16.628 -0.7945  1.7169 -2.3749
16402TIP3    H270622   3.547   6.555  16.743  1.0338  1.3779 -0.7236
16403TIP3   OH270623   5.257   6.676  10.939  0.0268  0.3298  0.1585
16403TIP3    H170624   5.162   6.688  10.940  0.0333  0.6069  2.2168
16403TIP3    H270625   5.290   6.742  10.879 -1.0838  0.1622 -0.6556
16404TIP3   OH270626   2.127   2.270   2.239  0.3863  0.2121 -0.1035
16404TIP3    H170627   2.075   2.193   2.262 -1.4684  0.9923 -1.4597
16404TIP3    H270628   2.092   2.341   2.293  1.6235  0.2952  0.6391
16405TIP3   OH270629   0.578   2.024  12.949  0.5688 -0.1854  0.1926
16405TIP3    H170630   0.502   1.994  12.900 -1.7683  0.7329  3.0287
16405TIP3    H270631   0.590   1.959  13.018  1.2643  0.5791  0.8154
16406TIP3   OH270632   3.134   0.216  12.989  0.1762  0.2200 -0.1407
16406TIP3    H170633   3.182   0.166  13.055 -2.3549 -0.4206  1.3068
16406TIP3    H270634   3.154   0.172  12.906  2.3086  0.2145  0.3093
16407TIP3   OH270635   1.419   5.963   3.363  0.5609  0.3920  0.3104
16407TIP3    H170636   1.391   6.026   3.430 -0.0325 -0.0204  0.4589
16407TIP3    H270637   1.465   6.016   3.298  0.6037  0.8895  0.7377
16408TIP3   OH270638   0.965   5.278  13.358 -0.2942  0.5559 -0.2131
16408TIP3    H170639   0.897   5.212  13.368 -1.5368  1.8016 -0.2077
16408TIP3    H270640   0.960   5.332  13.437  1.9680 -0.4069  0.6819
16409TIP3   OH270641   1.890   6.410  16.687 -0.4280  0.5345 -0.0380
16409TIP3    H170642   1.941   6.463  16.625  0.5943  0.0647  0.3972
16409TIP3    H270643   1.799   6.420  16.656  0.1929 -1.2564 -2.8244
16410TIP3   OH270644   3.055   5.407  14.821 -0.3149 -0.1559 -0.0229
16410TIP3    H170645   2.984   5.393  14.759 -1.2574 -1.1078  1.2112
16410TIP3    H270646   3.062   5.502  14.829 -0.3938 -0.0264 -1.3139
16411TIP3   OH270647   0.765   6.448   1.753 -1.1107  0.3875  0.2332
16411TIP3    H170648   0.803   6.442   1.841 -0.9274  1.4350  0.2362
16411TIP3    H270649   0.754   6.541   1.738 -1.4731  0.1998 -0.7269
16412TIP3   OH270650   6.726   2.167  11.249  0.2370 -0.1527  0.4216
16412TIP3    H170651   6.738   2.201  11.338  0.5170  2.1352 -0.4162
16412TIP3    H270652   6.794   2.100  11.240 -0.1162 -0.7878  2.0702
16413TIP3   OH270653   1.457   6.160   4.261  0.0711 -0.2237 -0.1015
16413TIP3    H170654   1.378   6.202   4.293  0.7725  0.4589  0.7671
16413TIP3    H270655   1.514   6.154   4.337  0.1120 -2.5299 -0.2331
16414TIP3   OH270656   4.270   0.489  13.583  0.3627  0.2064 -0.0530
16414TIP3    H170657   4.180   0.493  13.616  0.6275 -0.5365  0.8030
16414TIP3    H270658   4.297   0.580  13.575  0.0243  0.4262  1.0935
16415TIP3   OH270659   4.770   2.397  14.499  0.4029 -1.1881  0.2207
16415TIP3    H170660   4.715   2.396  14.420  1.4094 -1.8763 -0.5127
16415TIP3    H270661   4.712   2.429  14.568 -0.4500 -0.3280 -0.8379
16416TIP3   OH270662   5.610   5.465   2.382 -0.7059 -0.6927 -0.1152
16416TIP3    H170663   5.569   5.551   2.368 -0.8211 -0.6542  0.4423
16416TIP3    H270664   5.679   5.461   2.316 -1.4815 -0.6796 -0.9420
16417TIP3   OH270665   1.721   3.488   1.948  0.1973 -0.2159  0.3894
16417TIP3    H170666   1.740   3.582   1.960  1.7167 -0.3463 -0.5837
16417TIP3    H270667   1.746   3.448   2.031  0.1125  0.1820  0.6094
16418TIP3   OH270668   1.641   2.016  12.432  0.4134 -0.3734 -1.0311
16418TIP3    H170669   1.696   2.025  12.510 -0.2080  1.1681 -0.7389
16418TIP3    H270670   1.611   1.925  12.435 -2.5486  0.4511  2.6322
16419TIP3   OH270671   2.616   2.362   0.319 -0.3579 -0.2579  0.0425
16419TIP3    H170672   2.580   2.443   0.284 -1.3374 -0.4123  0.6644
16419TIP3    H270673   2.707   2.383   0.341 -0.2973  0.3687 -0.7733
16420TIP3   OH270674   3.874   6.097  14.297 -0.3500  0.2160  0.1050
16420TIP3    H170675   3.942   6.151  14.337  0.7397 -1.1700  0.2082
16420TIP3    H270676   3.888   6.107  14.203 -0.8424  0.9435  0.1045
16421TIP3   OH270677   1.419   3.016   3.719  0.1909 -0.0428 -0.2191
16421TIP3    H170678   1.362   3.092   3.733 -1.4336 -1.2141 -0.2409
16421TIP3    H270679   1.494   3.052   3.672 -0.6680  1.5103 -0.4872
16422TIP3   OH270680   6.039   1.326   0.009  0.1367 -0.2504 -0.1633
16422TIP3    H170681   6.099   1.378  -0.045 -1.6951  0.3708 -1.7418
16422TIP3    H270682   6.013   1.385   0.080  1.1968 -0.4552  0.4095
16423TIP3   OH270683   1.724   3.142  16.391  0.3920  0.5172 -0.4756
16423TIP3    H170684   1.701   3.087  16.316  1.2162  2.0555 -1.9442
16423TIP3    H270685   1.716   3.231  16.358 -2.2009  1.4189  2.1986
16424TIP3   OH270686   0.212   4.397  12.717 -0.0439  0.2249 -0.3374
16424TIP3    H170687   0.159   4.454  12.662 -0.3136  1.9950  1.6270
16424TIP3    H270688   0.150   4.342  12.763  0.2164 -1.8078 -2.2315
16425TIP3   OH270689   5.754   3.806  14.598 -0.0138 -0.2355  0.4591
16425TIP3    H170690   5.776   3.756  14.519  1.1660  0.6052  0.2328
16425TIP3    H270691   5.720   3.740  14.659  2.4697 -1.5644  0.5433
16426TIP3   OH270692   2.580   6.129   5.444  0.1702 -0.2615  0.1563
16426TIP3    H170693   2.532   6.073   5.505 -1.3616 -1.1613 -1.7700
16426TIP3    H270694   2.597   6.210   5.493 -1.9858 -0.5111  1.4075
16427TIP3   OH270695   4.982   3.077   4.689  0.5942 -0.1955 -0.4658
16427TIP3    H170696   4.936   3.128   4.755 -1.3033 -2.4327  0.0817
16427TIP3    H270697   5.043   3.022   4.738 -1.2290 -2.2886 -0.3544
16428TIP3   OH270698   4.391   4.040   4.273 -0.4200 -0.2209  0.5392
16428TIP3    H170699   4.319   4.095   4.304  1.0917  1.7800  0.7000
16428TIP3    H270700   4.469   4.079   4.312  0.7863 -2.3003  0.3492
16429TIP3   OH270701   6.631   1.183  10.692  0.1655 -0.1076 -0.3385
16429TIP3    H170702   6.636   1.087  10.690 -1.3657 -0.4283  3.3966
16429TIP3    H270703   6.557   1.204  10.635  0.6510 -1.1016 -1.3691
16430TIP3   OH270704   5.416   2.095  11.906  0.3744 -0.1957 -0.0119
16430TIP3    H170705   5.395   2.188  11.919 -0.5554 -0.3455 -0.3612
16430TIP3    H270706   5.356   2.048  11.964  0.1370 -0.6114 -0.5775
16431TIP3   OH270707   0.962   0.860  12.202 -0.0269 -0.3257 -0.1319
16431TIP3    H170708   0.916   0.848  12.285 -1.2119  0.2734 -0.6757
16431TIP3    H270709   0.963   0.772  12.163  0.4376 -0.5859  0.4618
16432TIP3   OH270710   6.558   1.875  16.050 -0.0234  0.5031 -0.2803
16432TIP3    H170711   6.467   1.902  16.061  0.2869  1.1204  0.9198
16432TIP3    H270712   6.591   1.867  16.139  0.9922 -0.1170 -0.6979
16433TIP3   OH270713   4.010   3.172  14.640  0.3044 -0.2908  0.9579
16433TIP3    H170714   4.008   3.268  14.633  1.9940 -0.2959  0.0009
16433TIP3    H270715   4.103   3.150  14.643 -0.0599 -1.9100  1.3837
16434TIP3   OH270716   4.598   3.573   4.302 -0.3965 -0.9259 -0.0411
16434TIP3    H170717   4.518   3.573   4.354  1.1321 -0.5575  2.4811
16434TIP3    H270718   4.630   3.483   4.308 -0.0687 -0.8135 -0.0959
16435TIP3   OH270719   1.928   5.046   2.850  0.2253 -0.9960 -0.1451
16435TIP3    H170720   1.954   5.108   2.782 -0.8905 -1.2785 -0.8485
16435TIP3    H270721   2.007   4.994   2.865  0.6057 -0.6667 -0.9370
16436TIP3   OH270722   6.461   6.556   0.747 -0.1110  0.6946 -0.2458
16436TIP3    H170723   6.466   6.648   0.722  0.0744  0.2822 -1.8120
16436TIP3    H270724   6.552   6.528   0.756 -0.1185  0.2387 -1.4686
16437TIP3   OH270725   4.088   0.960  15.955  0.2579 -0.0134  0.1244
16437TIP3    H170726   4.056   1.002  16.034 -2.9378 -0.5814 -0.7097
16437TIP3    H270727   4.111   1.032  15.896 -0.5268  0.4826  0.4134
16438TIP3   OH270728   3.602   4.650  10.862 -0.2384 -0.3653  0.7062
16438TIP3    H170729   3.667   4.585  10.888 -1.2052 -2.0427 -0.8620
16438TIP3    H270730   3.622   4.667  10.769 -0.0052  1.6214  1.0761
16439TIP3   OH270731   1.282   2.832   2.471 -0.0146  0.2007  0.2524
16439TIP3    H170732   1.359   2.788   2.507  0.1204 -1.2298 -1.6255
16439TIP3    H270733   1.236   2.866   2.548  2.1170  0.5215  1.4707
16440TIP3   OH270734   1.286   5.732  12.457  0.6241 -0.2455  0.2066
16440TIP3    H170735   1.282   5.793  12.384  0.9096 -1.3541 -0.7782
16440TIP3    H270736   1.195   5.710  12.474  0.5767 -0.3354 -0.1415
16441TIP3   OH270737   2.526   2.142  13.959 -0.2251  0.1316 -0.3828
16441TIP3    H170738   2.548   2.181  14.044  1.2954  1.0854 -1.1736
16441TIP3    H270739   2.529   2.048  13.975 -1.3532  0.2927  0.9429
16442TIP3   OH270740   0.095   4.929  12.555 -0.5999 -0.1849 -0.0565
16442TIP3    H170741   0.189   4.949  12.559 -0.9380  1.5803 -0.1931
16442TIP3    H270742   0.072   4.906  12.645 -0.2721  0.6250  0.2468
16443TIP3   OH270743   2.456   4.826   0.352  0.2359  0.0240  0.2123
16443TIP3    H170744   2.372   4.812   0.395 -0.5893 -0.7700 -1.5485
16443TIP3    H270745   2.449   4.778   0.269  1.9937  0.9144 -0.5107
16444TIP3   OH270746   1.317   3.001  14.085  0.0458  0.2095 -0.3521
16444TIP3    H170747   1.363   3.056  14.022  0.4780 -0.8668 -1.0016
16444TIP3    H270748   1.249   2.957  14.033 -0.0245 -0.1826  0.0647
16445TIP3   OH270749   5.705   1.822   1.501 -0.4467 -0.0925  0.0482
16445TIP3    H170750   5.778   1.767   1.474 -1.6433 -1.5460 -0.3647
16445TIP3    H270751   5.672   1.780   1.580  0.5247  1.8515  1.5673
16446TIP3   OH270752   2.108   0.777   2.913  0.2416  0.4100 -0.7216
16446TIP3    H170753   2.082   0.791   2.822 -0.0462 -1.5776 -0.9907
16446TIP3    H270754   2.096   0.683   2.927  0.9563  0.5603  1.1647
16447TIP3   OH270755   4.362   1.997  13.204  0.4622  0.4851  0.5283
16447TIP3    H170756   4.382   1.956  13.288  0.5437 -0.3634  0.1053
16447TIP3    H270757   4.301   2.068  13.225 -0.7611 -0.7035  1.1396
16448TIP3   OH270758   1.151   2.054  16.455  0.1797  0.0101  0.6463
16448TIP3    H170759   1.086   2.094  16.397  0.0601  1.0464  1.4690
16448TIP3    H270760   1.232   2.053  16.403 -0.3310 -0.7742 -0.1789
16449TIP3   OH270761   5.305   2.773  16.121  0.3507  0.1370 -0.2080
16449TIP3    H170762   5.220   2.766  16.166  0.0546 -1.2654 -0.9145
16449TIP3    H270763   5.288   2.831  16.047  0.2042  0.4720  0.0862
16450TIP3   OH270764   1.019   3.070   1.780  0.4316  0.3252 -0.3893
16450TIP3    H170765   1.045   2.993   1.728  0.0511 -0.0769  0.0077
16450TIP3    H270766   1.099   3.096   1.825  0.9024  0.9990 -1.5670
16451TIP3   OH270767   2.879   4.235  11.205  0.0550 -0.2096 -0.0870
16451TIP3    H170768   2.805   4.178  11.228  0.4879 -0.9043 -0.3599
16451TIP3    H270769   2.841   4.303  11.150 -0.1111 -1.5560 -1.7001
16452TIP3   OH270770   6.472   3.948  15.770 -0.7740 -0.2618  0.0368
16452TIP3    H170771   6.517   3.934  15.854 -1.6446 -2.1024  0.2582
16452TIP3    H270772   6.542   3.962  15.707 -0.1234  2.2707  1.1912
16453TIP3   OH270773   5.223   3.468   1.265  0.2690 -0.2427  0.1027
16453TIP3    H170774   5.261   3.475   1.177  0.0771 -1.2913 -0.0823
16453TIP3    H270775   5.138   3.427   1.251  0.7296 -1.5192  0.8849
16454TIP3   OH270776   2.096   0.304   5.556 -0.1557  0.3957  0.1418
16454TIP3    H170777   2.014   0.304   5.606  0.9164 -0.5527  2.0570
16454TIP3    H270778   2.092   0.224   5.503  0.3658 -0.8710  1.8824
16455TIP3   OH270779   1.358   5.068  16.894 -0.4036 -0.6093  0.0893
16455TIP3    H170780   1.289   5.110  16.841 -1.0603  0.0056  1.3842
16455TIP3    H270781   1.387   5.137  16.954  0.5811 -1.1856  0.2906
16456TIP3   OH270782   1.893   2.857  14.861  0.6676 -0.0904 -0.3114
16456TIP3    H170783   1.865   2.892  14.777 -0.0232  1.0323  0.3677
16456TIP3    H270784   1.835   2.782  14.877 -0.0100  0.4280 -0.2893
16457TIP3   OH270785   5.222   6.064   2.573  0.1424  0.6904  0.0832
16457TIP3    H170786   5.196   6.142   2.621 -0.7530  1.3577 -1.4005
16457TIP3    H270787   5.142   6.012   2.565  0.5832 -0.0689  0.4882
16458TIP3   OH270788   6.085   3.980   3.653 -0.3497 -0.0642 -0.6695
16458TIP3    H170789   6.161   4.011   3.701 -0.1898  0.5389 -1.2938
16458TIP3    H270790   6.066   3.894   3.690  0.6548 -0.2321 -0.5285
16459TIP3   OH270791   1.077   2.679   0.356 -0.4214  0.1000  0.3519
16459TIP3    H170792   1.006   2.632   0.314 -1.2007  0.6705  1.0048
16459TIP3    H270793   1.138   2.698   0.284 -0.9341 -0.3611 -0.2212
16460TIP3   OH270794   0.023   5.296   5.382  0.0315 -0.5444  0.0310
16460TIP3    H170795  -0.003   5.383   5.352 -2.3708 -1.3809 -0.5422
16460TIP3    H270796   0.064   5.311   5.467  1.5335  1.2981 -0.9365
16461TIP3   OH270797   3.645   6.171   2.674 -0.0061 -0.2057 -0.1138
16461TIP3    H170798   3.730   6.188   2.714  0.3921 -1.4859 -0.3636
16461TIP3    H270799   3.583   6.221   2.726  0.8155  0.1646  0.5218
16462TIP3   OH270800   6.058   6.260  13.106  0.2126 -0.0033  0.0527
16462TIP3    H170801   6.091   6.209  13.032  2.1488  0.5410  0.4773
16462TIP3    H270802   6.106   6.343  13.102  1.7683 -0.6226  2.8809
16463TIP3   OH270803   4.754   4.680   4.490  0.5252  0.0572  0.3393
16463TIP3    H170804   4.741   4.685   4.395 -0.7311  0.3204  0.5085
16463TIP3    H270805   4.845   4.652   4.500  0.5018 -0.5525 -0.9488
16464TIP3   OH270806   3.742   3.105   2.912  0.0861  0.1046 -0.2966
16464TIP3    H170807   3.728   3.112   3.006 -0.2798 -0.2003 -0.3241
16464TIP3    H270808   3.786   3.021   2.900  0.9054  0.5289 -0.3223
16465TIP3   OH270809   4.559   2.092  13.024  0.1873 -0.2552 -0.0840
16465TIP3    H170810   4.468   2.105  13.050  0.4300  2.4811 -0.2419
16465TIP3    H270811   4.569   2.146  12.945  2.0763  0.0757  0.3172
16466TIP3   OH270812   0.584   5.646   2.990  0.0200  0.3035 -0.2878
16466TIP3    H170813   0.550   5.638   2.901  1.4034  0.0851 -0.8271
16466TIP3    H270814   0.613   5.737   2.996  0.2943  0.2129 -0.2109
16467TIP3   OH270815   6.716   1.632  13.039  0.2502  0.1437 -0.8990
16467TIP3    H170816   6.732   1.718  13.079  0.0892  0.1485 -0.8431
16467TIP3    H270817   6.622   1.617  13.053 -0.0402  0.6264 -2.2270
16468TIP3   OH270818   5.530   6.494   4.351  0.2607 -0.0906 -0.0056
16468TIP3    H170819   5.441   6.492   4.315 -0.3200  0.4615  1.3176
16468TIP3    H270820   5.582   6.541   4.286  0.1331 -2.3627 -1.8804
16469TIP3   OH270821   6.299   1.513   4.844  0.1779  0.4789  0.0216
16469TIP3    H170822   6.303   1.596   4.891  1.8298 -0.1134  1.0467
16469TIP3    H270823   6.206   1.492   4.838 -0.2034  1.9296  0.5762
16470TIP3   OH270824   6.487   2.372  16.232 -0.4179 -0.5422  0.0846
16470TIP3    H170825   6.470   2.465  16.248  1.2068 -0.1657 -0.1957
16470TIP3    H270826   6.541   2.345  16.306 -1.4552 -1.4655  0.5310
16471TIP3   OH270827   5.916   1.215  13.562 -0.0395 -0.3843  0.0954
16471TIP3    H170828   5.898   1.309  13.562  0.9561 -0.1812  0.4465
16471TIP3    H270829   5.933   1.195  13.470  2.2476  0.3122  0.3120
16472TIP3   OH270830   4.444   2.839  13.618  0.1190 -0.4913  0.3490
16472TIP3    H170831   4.497   2.790  13.556  0.3518  2.0934 -1.6453
16472TIP3    H270832   4.357   2.799  13.611  0.4862 -1.1821 -0.5302
16473TIP3   OH270833   5.505   1.455   5.946 -0.0885 -0.3646 -0.0339
16473TIP3    H170834   5.508   1.361   5.961  1.9191 -0.3797 -0.3341
16473TIP3    H270835   5.443   1.488   6.011  1.3682 -1.5460  2.0681
16474TIP3   OH270836   3.239   2.176   2.126 -0.0153 -0.1927 -0.2452
16474TIP3    H170837   3.180   2.222   2.067 -1.1748 -0.4895  0.6342
16474TIP3    H270838   3.325   2.214   2.110  0.0838 -1.4577 -3.3603
16475TIP3   OH270839   2.467   5.130   5.100 -0.3859  0.5868  0.3740
16475TIP3    H170840   2.378   5.098   5.117 -1.0434  1.3370 -1.4239
16475TIP3    H270841   2.524   5.056   5.123 -1.5792 -0.4456  0.0868
16476TIP3   OH270842   5.868   1.176  10.685 -0.1941  0.0631  0.0416
16476TIP3    H170843   5.835   1.228  10.759  1.1756  1.0097  0.0267
16476TIP3    H270844   5.957   1.208  10.672  0.1805 -1.3102 -0.9207
16477TIP3   OH270845   0.387   3.294  14.825 -0.7267 -0.1046 -0.5622
16477TIP3    H170846   0.326   3.299  14.899  0.7280  0.2467  0.6565
16477TIP3    H270847   0.330   3.292  14.747 -2.2795  0.2389  0.5153
16478TIP3   OH270848   2.399   6.259   3.626  0.4835 -0.0645  0.3827
16478TIP3    H170849   2.383   6.242   3.719 -1.0389 -1.2751 -0.0461
16478TIP3    H270850   2.311   6.261   3.587  1.1342 -1.5318 -1.3088
16479TIP3   OH270851   0.389   2.972   2.040  0.4801  0.6538 -0.3995
16479TIP3    H170852   0.449   2.915   2.089  0.1826 -0.3445 -1.1367
16479TIP3    H270853   0.391   3.056   2.085 -1.2651 -0.7214  2.4939
16480TIP3   OH270854   6.289   0.387   2.438 -0.0172  0.0482  0.5155
16480TIP3    H170855   6.311   0.404   2.529  0.2724  1.4163  0.2082
16480TIP3    H270856   6.201   0.348   2.441 -1.0113  2.2140  1.2672
16481TIP3   OH270857   2.629   5.572   2.052  0.5109  1.0643  1.0397
16481TIP3    H170858   2.546   5.589   2.096 -0.1460  0.6170  0.0100
16481TIP3    H270859   2.611   5.588   1.959  1.5636  0.9222  0.7968
16482TIP3   OH270860   6.132   1.921   1.965 -0.0153  0.0026  0.8024
16482TIP3    H170861   6.163   1.876   2.044 -1.2123  0.8852  1.8098
16482TIP3    H270862   6.212   1.935   1.914  0.6874 -1.2524  1.4847
16483TIP3   OH270863   5.746   2.058  14.611 -0.4353  0.8410  0.4293
16483TIP3    H170864   5.713   2.004  14.683  0.9691 -0.4393  0.1766
16483TIP3    H270865   5.751   2.146  14.648 -0.1783  0.2951  1.7866
16484TIP3   OH270866   2.824   5.342  11.059 -0.1446  0.2348  0.1914
16484TIP3    H170867   2.737   5.346  11.100  0.7393  3.2541  2.1019
16484TIP3    H270868   2.815   5.395  10.980 -0.6276 -1.6217 -1.0522
16485TIP3   OH270869   5.372   5.588   5.343 -0.4584 -0.0486  0.0905
16485TIP3    H170870   5.426   5.510   5.326 -1.2317 -0.5027 -0.3316
16485TIP3    H270871   5.435   5.655   5.369  0.2376 -0.7796  0.3468
16486TIP3   OH270872   4.694   3.337  15.187  0.0729  0.0910 -0.4450
16486TIP3    H170873   4.696   3.299  15.275  3.5697 -2.1226 -1.2660
16486TIP3    H270874   4.663   3.266  15.131 -1.3623  1.2361 -1.1709
16487TIP3   OH270875   0.786   0.667  13.150  0.1264  0.1536  0.2529
16487TIP3    H170876   0.700   0.644  13.186 -0.7619  0.9314 -1.2920
16487TIP3    H270877   0.797   0.760  13.169  0.8441 -0.0365  0.8282
16488TIP3   OH270878   4.480   5.972   3.811 -0.4721  0.7805 -0.3122
16488TIP3    H170879   4.414   5.911   3.777 -0.8916  0.6993  0.6281
16488TIP3    H270880   4.559   5.918   3.822 -0.4947  0.6827 -0.6085
16489TIP3   OH270881   2.411   4.050  15.068  0.5957 -0.0763  0.2519
16489TIP3    H170882   2.455   4.106  15.131 -1.8744  0.8792  1.2369
16489TIP3    H270883   2.432   4.089  14.983  2.8513 -0.5920  0.5104
16490TIP3   OH270884   0.518   3.938  12.822  0.7395  0.6188 -0.2512
16490TIP3    H170885   0.491   3.848  12.804  0.4512  0.9753 -1.7676
16490TIP3    H270886   0.526   3.943  12.917  1.8146 -1.3043 -0.1896
16491TIP3   OH270887   6.607   3.644   1.944 -0.2823 -0.1197 -0.6550
16491TIP3    H170888   6.587   3.732   1.976 -1.4108 -0.8612  0.7558
16491TIP3    H270889   6.544   3.629   1.874 -1.3915 -0.5209  0.4020
16492TIP3   OH270890   3.751   1.596  11.156 -0.3838 -0.1389  0.2745
16492TIP3    H170891   3.721   1.676  11.112 -2.6860 -1.3656 -0.5301
16492TIP3    H270892   3.725   1.609  11.247  0.0564  0.3693  0.3379
16493TIP3   OH270893   0.682   2.395   1.353  0.1773  0.0913 -0.5487
16493TIP3    H170894   0.740   2.319   1.357 -1.3873 -1.0924  0.5169
16493TIP3    H270895   0.695   2.430   1.265  1.6412 -0.8147 -0.7233
16494TIP3   OH270896   5.726   3.577  14.759  0.5729  0.5842 -0.5113
16494TIP3    H170897   5.805   3.596  14.810  0.7178 -0.3026 -0.3805
16494TIP3    H270898   5.680   3.510  14.810 -0.8269  1.8304 -0.0486
16495TIP3   OH270899   4.740   1.575   2.480  0.3065 -0.3540 -0.3695
16495TIP3    H170900   4.739   1.667   2.455 -0.2348 -0.7536 -1.9152
16495TIP3    H270901   4.728   1.576   2.575  1.5356  1.1992 -0.1876
16496TIP3   OH270902   3.022   0.750  11.374  0.3707  0.0089 -0.1211
16496TIP3    H170903   2.932   0.718  11.366  0.5447 -0.4362 -0.3772
16496TIP3    H270904   3.015   0.830  11.426 -0.1216 -0.2730  0.2565
16497TIP3   OH270905   0.215   0.618   2.911  0.0401  0.1781  0.2257
16497TIP3    H170906   0.195   0.547   2.973  0.2865  0.1220  0.2422
16497TIP3    H270907   0.135   0.628   2.860 -0.5113  0.8753  1.1849
16498TIP3   OH270908   4.276   1.874  10.593  0.2696  0.6501 -0.0103
16498TIP3    H170909   4.360   1.873  10.549  1.2668  0.2547  1.8011
16498TIP3    H270910   4.214   1.904  10.527  2.0239  2.1507 -1.0459
16499TIP3   OH270911   4.312   6.479  12.190  0.6675  0.3499  0.4412
16499TIP3    H170912   4.252   6.434  12.249  0.7916 -1.2454 -0.6001
16499TIP3    H270913   4.260   6.551  12.153  0.0795  0.3147  1.1796
16500TIP3   OH270914   3.450   4.981   0.483 -0.2338  0.1399 -0.1348
16500TIP3    H170915   3.485   4.891   0.485  1.2576  0.6770 -0.7619
16500TIP3    H270916   3.467   5.014   0.571  2.3945  0.9093 -0.8418
16501TIP3   OH270917   0.996   3.722  12.088  0.0877  0.3300  0.2537
16501TIP3    H170918   1.049   3.678  12.021 -1.2845 -1.6465  0.3655
16501TIP3    H270919   0.925   3.660  12.107  0.0311  1.1027  3.0469
16502TIP3   OH270920   3.133   1.703   4.090  0.1049  0.1546 -0.0128
16502TIP3    H170921   3.058   1.647   4.107 -0.3517  0.3699 -1.1968
16502TIP3    H270922   3.184   1.655   4.024 -0.0592  0.9189 -0.7050
16503TIP3   OH270923   5.293   1.297  14.913  0.1562 -0.3675 -0.0071
16503TIP3    H170924   5.305   1.366  14.848 -0.7825 -1.1544 -1.0349
16503TIP3    H270925   5.379   1.255  14.920  0.1904 -0.4803 -0.9744
16504TIP3   OH270926   4.286   6.641  10.970  0.2761 -0.1792  0.1531
16504TIP3    H170927   4.220   6.711  10.977 -0.3384 -0.5530 -1.4820
16504TIP3    H270928   4.369   6.688  10.962 -0.0635  0.3603 -0.3121
16505TIP3   OH270929   4.389   1.003   2.929 -0.7933  0.2583 -0.1175
16505TIP3    H170930   4.304   0.991   2.887 -0.4462 -0.8173 -0.5486
16505TIP3    H270931   4.411   1.095   2.912 -2.4119  0.9244  1.0983
16506TIP3   OH270932   5.522   2.869   1.246 -0.2444 -0.3723 -0.6255
16506TIP3    H170933   5.509   2.793   1.302 -0.2372 -0.3641 -0.6124
16506TIP3    H270934   5.443   2.922   1.259  0.8632  0.9188  1.4047
16507TIP3   OH270935   0.362   5.931  12.476  0.0405  0.2403 -0.2154
16507TIP3    H170936   0.303   5.954  12.548 -1.2633  0.5736 -1.3283
16507TIP3    H270937   0.303   5.901  12.407  0.9877  2.3108 -2.0478
16508TIP3   OH270938   4.931   3.420   0.367 -0.2756  0.5915 -0.0055
16508TIP3    H170939   5.012   3.458   0.399 -0.0624  0.2082 -0.0822
16508TIP3    H270940   4.958   3.342   0.319 -0.7398  0.0235  0.6282
16509TIP3   OH270941   3.438   4.575   1.917 -0.1894  0.2989 -0.2231
16509TIP3    H170942   3.404   4.652   1.962 -1.7297 -0.4751  0.0359
16509TIP3    H270943   3.366   4.548   1.860  0.0737 -1.2811  0.1484
16510TIP3   OH270944   0.650   4.687  11.942 -0.1119  0.0694 -0.9182
16510TIP3    H170945   0.585   4.657  12.005 -0.2346  1.4691 -0.3381
16510TIP3    H270946   0.641   4.628  11.868 -1.5791 -0.1799 -0.5658
16511TIP3   OH270947   1.645   2.703  16.582 -0.5725  0.1472  0.1440
16511TIP3    H170948   1.631   2.610  16.601  0.3124  0.4074  2.4178
16511TIP3    H270949   1.735   2.707  16.549  0.0819  0.3745  1.8811
16512TIP3   OH270950   2.711   5.051  10.957  0.4663  0.2006  0.5618
16512TIP3    H170951   2.619   5.060  10.980  0.8614  1.7512  1.7295
16512TIP3    H270952   2.742   4.976  11.007 -0.0235  0.0384  0.6235
16513TIP3   OH270953   0.204   5.441   2.679  0.5844 -0.0807  0.3737
16513TIP3    H170954   0.299   5.441   2.690  1.1342  0.0552 -3.3115
16513TIP3    H270955   0.183   5.528   2.644 -0.5776 -0.7632 -0.7321
16514TIP3   OH270956   3.452   5.137  11.779 -0.1175  0.5074 -0.2257
16514TIP3    H170957   3.449   5.054  11.731 -1.0116  0.5415 -0.2445
16514TIP3    H270958   3.371   5.138  11.829  1.3324 -0.1035  2.3122
16515TIP3   OH270959   4.826   3.902   4.518 -0.2829 -0.2042  0.4384
16515TIP3    H170960   4.735   3.908   4.545  0.1407 -1.2497  2.2778
16515TIP3    H270961   4.860   3.991   4.529 -1.4243  0.5673 -1.7936
16516TIP3   OH270962   2.458   3.459   0.325  0.6369  0.2992  0.1127
16516TIP3    H170963   2.535   3.503   0.361  1.2191 -1.0896  0.6574
16516TIP3    H270964   2.483   3.435   0.236 -0.1457  2.1188 -0.6596
16517TIP3   OH270965   0.557   0.292   0.938  0.1407 -0.6539 -0.1460
16517TIP3    H170966   0.561   0.322   0.847  0.5555  2.0187  0.6692
16517TIP3    H270967   0.632   0.232   0.946  1.8710  1.2890 -0.8932
16518TIP3   OH270968   1.184   0.453   1.729 -0.4281  0.2031 -0.2656
16518TIP3    H170969   1.117   0.520   1.716  0.0015  0.5052 -0.9567
16518TIP3    H270970   1.266   0.496   1.705  0.3108  0.4415  2.3221
16519TIP3   OH270971   4.474   2.099  12.002 -0.3412  0.2308 -0.4749
16519TIP3    H170972   4.504   2.112  11.912  2.7186 -2.4609  0.0037
16519TIP3    H270973   4.527   2.160  12.053 -2.1934  1.8797 -0.3649
16520TIP3   OH270974   0.494   4.983  16.863 -0.0525  0.1806 -0.8151
16520TIP3    H170975   0.585   5.005  16.840  0.1632 -0.9535 -1.1281
16520TIP3    H270976   0.441   5.047  16.816  0.6469  2.3106  1.1721
16521TIP3   OH270977   6.448   3.006   1.511  0.2916 -0.4538  0.3771
16521TIP3    H170978   6.374   2.946   1.510  0.4477 -0.8459 -3.3565
16521TIP3    H270979   6.418   3.082   1.461  2.2264 -0.4459 -0.8901
16522TIP3   OH270980   4.171   0.443   4.275  0.0068  0.5343  0.0098
16522TIP3    H170981   4.076   0.452   4.276 -0.1536 -0.9434 -0.4088
16522TIP3    H270982   4.188   0.360   4.230  1.4804  0.5700  0.4306
16523TIP3   OH270983   3.072   1.365   1.905 -0.4213 -0.5457 -0.0278
16523TIP3    H170984   3.031   1.279   1.905 -0.9714 -0.3111  1.1332
16523TIP3    H270985   3.166   1.347   1.918 -0.0945 -1.0786 -2.6583
16524TIP3   OH270986   0.164   0.147  15.063  0.0033  0.1136 -0.2478
16524TIP3    H170987   0.069   0.162  15.068 -0.1756 -0.2291 -2.0003
16524TIP3    H270988   0.185   0.098  15.142 -1.7275 -1.8959 -0.9400
16525TIP3   OH270989   6.539   3.594   0.995  0.0041 -0.2169 -0.0209
16525TIP3    H170990   6.470   3.601   0.929 -0.4843  0.9946  0.5918
16525TIP3    H270991   6.618   3.626   0.950 -0.2745  0.3681 -0.1036
16526TIP3   OH270992   1.995   4.456  11.201  0.4386  0.4517 -0.4759
16526TIP3    H170993   1.918   4.405  11.224  1.5503  0.5372  4.4511
16526TIP3    H270994   1.990   4.465  11.106 -3.8656 -2.1787 -0.7579
16527TIP3   OH270995   3.891   1.854   0.696  0.1481 -0.2375  0.4737
16527TIP3    H170996   3.805   1.821   0.722 -0.8083  1.3920 -0.4695
16527TIP3    H270997   3.932   1.781   0.651 -0.3258 -1.3562  1.7992
16528TIP3   OH270998   0.584   5.742  14.605  0.0082 -0.5365 -0.4075
16528TIP3    H170999   0.530   5.674  14.565 -0.6942  0.6467 -1.5283
16528TIP3    H271000   0.607   5.706  14.691 -2.0891 -1.3172 -0.1125
16529TIP3   OH271001   3.939   2.252   1.226 -0.1433  0.0064 -0.4346
16529TIP3    H171002   3.851   2.228   1.197 -0.2634  2.2087 -2.1078
16529TIP3    H271003   3.980   2.168   1.249 -2.3070 -1.1684 -0.5949
16530TIP3   OH271004   0.523   4.420  11.989  0.4878  0.6362 -0.7574
16530TIP3    H171005   0.439   4.442  11.949  0.1403  1.1170  0.2194
16530TIP3    H271006   0.522   4.325  11.996 -0.1831  0.6674 -0.3249
16531TIP3   OH271007   4.328   0.761   3.547  0.5411 -0.4003 -0.0226
16531TIP3    H171008   4.239   0.784   3.519  0.3292 -0.0894  0.8589
16531TIP3    H271009   4.385   0.818   3.496  0.1777  0.0023  0.0111
16532TIP3   OH271010   0.747   0.711  16.666  0.3519  0.2845  0.2598
16532TIP3    H171011   0.660   0.675  16.687 -0.2053  0.7393 -1.1820
16532TIP3    H271012   0.751   0.792  16.717  0.2806 -0.1389  0.9643
16533TIP3   OH271013   4.517   1.661  15.405  0.1174  0.9934  0.3232
16533TIP3    H171014   4.427   1.640  15.382 -0.5664  3.8423  0.0776
16533TIP3    H271015   4.559   1.681  15.321  0.6979  0.6885  0.5357
16534TIP3   OH271016   6.181   2.819  16.087  0.0549 -0.1342  0.9473
16534TIP3    H171017   6.182   2.763  16.165 -0.8141  0.3885  1.3513
16534TIP3    H271018   6.133   2.897  16.115  1.2218  0.8099  0.3818
16535TIP3   OH271019   2.033   3.306  17.063 -0.1448 -0.1004 -0.3290
16535TIP3    H171020   2.016   3.331  16.973  1.3234  1.5217 -0.2227
16535TIP3    H271021   2.128   3.309  17.071 -0.2105 -0.9030  1.0868
16536TIP3   OH271022   1.566   4.627  14.282 -0.3337  0.0171 -0.3217
16536TIP3    H171023   1.474   4.645  14.263 -0.2162  0.4464 -0.5020
16536TIP3    H271024   1.601   4.710  14.314  0.7225  0.7795 -3.1523
16537TIP3   OH271025   2.987   1.314   0.133 -0.1345  0.2527  0.4068
16537TIP3    H171026   2.963   1.222   0.131 -0.8555  0.4388  0.0833
16537TIP3    H271027   3.007   1.332   0.225  1.8673 -0.6612  0.2089
16538TIP3   OH271028   6.471   6.451  11.195 -0.1987  0.2392 -0.1773
16538TIP3    H171029   6.532   6.519  11.166  0.0732  0.0793  0.0119
16538TIP3    H271030   6.404   6.498  11.245  0.3491  0.3031  0.5245
16539TIP3   OH271031   2.630   6.334   3.861  0.4143  0.2717 -0.0934
16539TIP3    H171032   2.704   6.292   3.905  0.0120  0.1708  0.5008
16539TIP3    H271033   2.635   6.426   3.888  0.0720  0.1773  0.3069
16540TIP3   OH271034   1.333   4.852  11.478 -0.5312 -0.4282  0.5090
16540TIP3    H171035   1.248   4.891  11.499 -0.6445  0.2412 -1.0647
16540TIP3    H271036   1.352   4.795  11.552 -1.3670  0.9962  1.8875
16541TIP3   OH271037   3.853   3.471   5.289  0.1848 -0.5425  0.2373
16541TIP3    H171038   3.946   3.475   5.267 -0.1214 -0.6762 -1.1926
16541TIP3    H271039   3.836   3.552   5.337  0.8312  0.0071 -0.4296
16542TIP3   OH271040   6.763   3.716   5.763 -0.2270  0.3296 -0.9637
16542TIP3    H171041   6.778   3.622   5.773 -1.6884  0.0146 -1.3876
16542TIP3    H271042   6.819   3.742   5.690 -0.8232 -0.5229 -1.7458
16543TIP3   OH271043   0.174   4.559   4.385 -0.1787  0.1044  0.0245
16543TIP3    H171044   0.152   4.554   4.479  1.2532 -1.0014  0.3376
16543TIP3    H271045   0.190   4.468   4.360  1.7434  0.6048 -0.7042
16544TIP3   OH271046   6.522   1.031   2.731  0.0923 -0.0485 -0.5933
16544TIP3    H171047   6.585   0.975   2.777  0.1206 -1.3909 -2.1537
16544TIP3    H271048   6.538   1.119   2.765  0.7101 -0.8289  1.2571
16545TIP3   OH271049   5.258   6.248   1.011 -0.1729  0.7275  0.8681
16545TIP3    H171050   5.218   6.334   1.019 -0.8764  0.3246  1.9255
16545TIP3    H271051   5.298   6.247   0.924 -3.4098  0.7647 -0.7506
16546TIP3   OH271052   5.320   4.711   3.674  0.4857 -0.2144 -0.6312
16546TIP3    H171053   5.284   4.625   3.653  0.7131 -0.4422 -0.0854
16546TIP3    H271054   5.251   4.756   3.722  1.2630 -1.0342  1.3538
16547TIP3   OH271055   0.330   3.982  14.232 -0.1644  0.9601  0.2564
16547TIP3    H171056   0.240   4.014  14.227  0.5606  3.0267 -0.1870
16547TIP3    H271057   0.380   4.054  14.271  1.4261  0.1049 -0.0998
16548TIP3   OH271058   2.203   0.499  11.408 -0.7307 -0.0845  0.4026
16548TIP3    H171059   2.191   0.522  11.500 -0.0315 -0.2769  0.5493
16548TIP3    H271060   2.203   0.403  11.408  0.4584 -0.0948  0.3754
16549TIP3   OH271061   3.703   4.747  12.554 -0.4957 -0.1216  0.2179
16549TIP3    H171062   3.639   4.757  12.484  0.7952  1.1041 -0.8620
16549TIP3    H271063   3.786   4.732  12.508  0.2396 -0.1701  1.5149
16550TIP3   OH271064   6.253   3.299  11.130  0.3484 -0.3331 -0.1160
16550TIP3    H171065   6.302   3.342  11.060 -0.9203  1.7904  0.2186
16550TIP3    H271066   6.308   3.224  11.154  1.8079  0.0496 -1.9496
16551TIP3   OH271067   3.774   3.287   5.923 -0.3564  0.0172  0.2588
16551TIP3    H171068   3.698   3.287   5.982 -2.7171  1.9705 -2.4890
16551TIP3    H271069   3.793   3.380   5.908  0.6660 -0.4159 -1.3763
16552TIP3   OH271070   0.577   6.036  12.252 -0.1026 -0.2562  0.0185
16552TIP3    H171071   0.547   6.030  12.343 -2.3947 -0.4558 -0.6876
16552TIP3    H271072   0.589   6.130  12.237 -1.0998 -0.0892  0.1575
16553TIP3   OH271073   2.919   2.825   5.194 -0.5047 -0.7498 -0.5316
16553TIP3    H171074   2.854   2.771   5.149 -0.9463  0.0459 -0.8891
16553TIP3    H271075   2.927   2.903   5.138 -0.5706 -0.0387  0.4227
16554TIP3   OH271076   4.850   2.574   2.761 -0.0912  0.1274 -0.1748
16554TIP3    H171077   4.791   2.536   2.826 -1.2169  0.9457 -0.6965
16554TIP3    H271078   4.926   2.515   2.761  0.2231  0.3874  2.2858
16555TIP3   OH271079   4.717   4.864   3.050 -0.1688 -0.7816  0.0835
16555TIP3    H171080   4.668   4.925   2.995  0.3201 -1.9753 -1.7534
16555TIP3    H271081   4.762   4.920   3.113 -0.9402  0.6204 -0.5532
16556TIP3   OH271082   4.916   3.202   1.226  0.0648 -0.3730  0.6656
16556TIP3    H171083   4.933   3.215   1.319 -0.9009  2.4043  0.5449
16556TIP3    H271084   4.822   3.213   1.217  0.4136  2.3980 -0.9310
16557TIP3   OH271085   1.576   2.246   4.162 -0.2295 -0.1288  0.3799
16557TIP3    H171086   1.645   2.289   4.214 -0.6254  0.7765  0.1732
16557TIP3    H271087   1.503   2.237   4.223 -0.2800 -0.1589  0.3146
16558TIP3   OH271088   5.283   3.327  12.357 -0.1687 -0.4267  0.6934
16558TIP3    H171089   5.222   3.256  12.375 -2.4159  1.3910  0.6106
16558TIP3    H271090   5.352   3.286  12.304 -1.5748 -2.4402  0.3162
16559TIP3   OH271091   4.882   6.154  11.975 -0.4115 -0.0863 -0.4770
16559TIP3    H171092   4.861   6.192  12.061  1.2784  0.5254 -0.2866
16559TIP3    H271093   4.806   6.173  11.921 -0.9386  0.7504  0.5184
16560TIP3   OH271094   2.207   2.791   4.993 -0.1513  0.2363 -0.4655
16560TIP3    H171095   2.124   2.748   4.973 -0.1015 -0.2467  0.3029
16560TIP3    H271096   2.274   2.724   4.976  0.1401  0.8059 -1.6412
16561TIP3   OH271097   0.099   2.917  15.239 -0.1741 -0.5174  0.0313
16561TIP3    H171098   0.071   2.880  15.323 -1.1155 -1.5035 -0.6787
16561TIP3    H271099   0.130   2.842  15.188 -1.9217 -0.3607 -1.3758
16562TIP3   OH271100   4.160   6.368   2.247  0.0627  0.0545 -0.0020
16562TIP3    H171101   4.165   6.287   2.297 -0.6721  0.9741  1.6768
16562TIP3    H271102   4.221   6.427   2.292 -0.2031  0.7429 -0.5318
16563TIP3   OH271103   4.625   2.005   6.469 -0.4633  0.1588  0.4367
16563TIP3    H171104   4.714   1.988   6.436  0.1282  2.7685  0.4947
16563TIP3    H271105   4.635   2.008   6.564 -0.5608  0.6478  0.4336
16564TIP3   OH271106   1.838   4.323  12.805 -0.7363  0.7913 -0.1426
16564TIP3    H171107   1.856   4.399  12.860  1.3561  0.6955 -0.6184
16564TIP3    H271108   1.828   4.358  12.717  0.8428  0.4994 -0.4646
16565TIP3   OH271109   0.305   0.424  16.960  0.1288  0.3049  0.3274
16565TIP3    H171110   0.245   0.350  16.968 -0.2642  0.5036 -0.6815
16565TIP3    H271111   0.339   0.418  16.871  2.5340 -0.4915  1.1899
16566TIP3   OH271112   1.594   5.206  15.333 -0.1017  0.0778  0.0851
16566TIP3    H171113   1.543   5.127  15.315 -0.0624  0.4847 -2.0287
16566TIP3    H271114   1.588   5.217  15.428  1.7402 -3.6914  0.8147
16567TIP3   OH271115   2.546   6.503  16.307 -0.1804 -0.3981  0.1308
16567TIP3    H171116   2.566   6.504  16.401 -0.0092 -0.5218  0.0956
16567TIP3    H271117   2.578   6.418  16.277  2.7010  0.8663 -0.6855
16568TIP3   OH271118   2.567   6.182  11.789 -0.1099  0.0372  0.1431
16568TIP3    H171119   2.621   6.105  11.807 -0.0369  0.2458  0.8415
16568TIP3    H271120   2.555   6.224  11.874 -3.2476 -1.2016  0.4613
16569TIP3   OH271121   2.328   0.553   0.555  0.4959 -0.7636 -0.4961
16569TIP3    H171122   2.350   0.591   0.640 -0.3678 -2.2989  0.4744
16569TIP3    H271123   2.306   0.627   0.499  0.5967  0.2452  0.7718
16570TIP3   OH271124   0.595   6.092  11.228 -0.5475  0.1085  0.0265
16570TIP3    H171125   0.582   6.184  11.254 -1.5974  0.0359 -0.1844
16570TIP3    H271126   0.674   6.093  11.174 -0.5785  0.9006 -0.0157
16571TIP3   OH271127   4.996   1.415  10.739  0.2642 -0.2547 -0.0765
16571TIP3    H171128   5.045   1.485  10.694  0.3507  1.1321  2.0189
16571TIP3    H271129   5.045   1.335  10.719 -0.0833  0.1306 -2.9228
16572TIP3   OH271130   2.277   5.878  13.794  0.3587  0.2061 -0.1240
16572TIP3    H171131   2.206   5.820  13.765  1.1346 -0.7208 -0.1925
16572TIP3    H271132   2.263   5.887  13.888  1.6965 -2.2068  0.3811
16573TIP3   OH271133   5.354   3.211  14.959 -0.5677  0.0702  0.7009
16573TIP3    H171134   5.427   3.150  14.967  1.2551  2.2651  1.8600
16573TIP3    H271135   5.376   3.266  14.884 -1.0345  0.7417  1.0391
16574TIP3   OH271136   4.387   1.002   3.440  0.1637 -0.1701  1.0376
16574TIP3    H171137   4.403   1.080   3.493 -0.8738  1.4020 -0.8416
16574TIP3    H271138   4.292   1.001   3.427  0.3263 -0.8435 -0.2519
16575TIP3   OH271139   5.684   5.247  15.386 -0.0844  0.2410  0.2460
16575TIP3    H171140   5.621   5.315  15.409 -1.8695 -1.7073  1.5551
16575TIP3    H271141   5.736   5.234  15.466 -1.0439 -1.1722  0.6838
16576TIP3   OH271142   4.403   4.246   2.002  0.5427  0.0974 -0.3283
16576TIP3    H171143   4.379   4.223   2.091  0.9223 -1.2929 -0.5657
16576TIP3    H271144   4.403   4.163   1.954 -3.7842  1.1544 -2.6963
16577TIP3   OH271145   6.102   3.480   4.891  0.0686  0.4451  0.3631
16577TIP3    H171146   6.061   3.551   4.840  0.3836  0.4135  0.0604
16577TIP3    H271147   6.189   3.513   4.911  0.7399 -0.3983 -0.9800
16578TIP3   OH271148   3.492   4.422   5.437 -0.3919 -0.0305  0.1633
16578TIP3    H171149   3.412   4.370   5.426 -0.3995 -0.4010  1.7810
16578TIP3    H271150   3.554   4.385   5.374 -0.6248 -1.5559  0.7863
16579TIP3   OH271151   4.856   2.514  13.114  0.6822 -0.5568 -0.0951
16579TIP3    H171152   4.805   2.587  13.079  1.7316 -0.0188 -0.5411
16579TIP3    H271153   4.866   2.534  13.207 -0.0963 -0.7909  0.0526
16580TIP3   OH271154   4.644   5.461   5.722  0.8199 -0.6110 -0.0616
16580TIP3    H171155   4.687   5.538   5.761 -0.3494  0.6262 -1.0960
16580TIP3    H271156   4.628   5.487   5.631  0.3723 -2.0972 -0.4230
16581TIP3   OH271157   6.312   1.413  17.058 -0.1333  0.2081  0.4708
16581TIP3    H171158   6.358   1.394  17.140  2.2982  2.0303 -0.3541
16581TIP3    H271159   6.358   1.360  16.993 -1.2245 -0.2633  0.0790
16582TIP3   OH271160   1.220   0.244   3.724  0.4850 -0.2640  0.4051
16582TIP3    H171161   1.300   0.204   3.759  1.3424  1.6792  0.7791
16582TIP3    H271162   1.230   0.338   3.742 -1.4116  0.1554 -0.4894
16583TIP3   OH271163   6.383   4.093   4.713  0.1981  0.1962  0.4403
16583TIP3    H171164   6.354   4.095   4.804 -0.2308  1.5334  0.2922
16583TIP3    H271165   6.378   4.184   4.684 -0.3237 -0.2888 -1.1123
16584TIP3   OH271166   0.484   1.857   5.191 -0.4001 -0.0431 -0.3447
16584TIP3    H171167   0.571   1.894   5.179 -0.4195  0.6271  1.2656
16584TIP3    H271168   0.474   1.849   5.286 -0.9416 -2.9479 -0.5708
16585TIP3   OH271169   5.460   5.517  14.309 -0.3492  0.0868 -0.1321
16585TIP3    H171170   5.387   5.577  14.323 -1.5460 -0.8791 -1.8167
16585TIP3    H271171   5.529   5.571  14.270  0.3423  1.2493  2.4928
16586TIP3   OH271172   4.815   1.415  15.018 -1.0071 -0.7688 -0.4977
16586TIP3    H171173   4.781   1.335  14.977 -0.1917 -1.7530  0.6620
16586TIP3    H271174   4.779   1.414  15.107  0.2219 -0.6723  0.0307
16587TIP3   OH271175   2.514   5.639  11.598  0.1844  0.2345 -0.0817
16587TIP3    H171176   2.585   5.695  11.566  1.3695 -1.2267 -0.1400
16587TIP3    H271177   2.550   5.597  11.676 -0.7094 -0.3645  0.0203
16588TIP3   OH271178   1.924   3.537   5.993 -0.0224 -0.1816 -0.0696
16588TIP3    H171179   1.918   3.487   6.074  0.5074 -2.5991 -1.4108
16588TIP3    H271180   1.834   3.568   5.978 -0.3570 -0.6528  0.8665
16589TIP3   OH271181   2.235   4.874  15.450 -0.0905 -0.2759  0.0421
16589TIP3    H171182   2.169   4.912  15.509 -0.5454  0.6394 -1.0008
16589TIP3    H271183   2.304   4.940  15.446  0.5019 -0.8638  0.4751
16590TIP3   OH271184   0.237   5.380   1.125 -0.0521 -0.3471  0.3744
16590TIP3    H171185   0.285   5.358   1.045 -1.7311 -0.9067 -0.5169
16590TIP3    H271186   0.211   5.295   1.161 -0.1007 -0.0633  1.0137
16591TIP3   OH271187   3.161   0.974  12.791  0.5896  0.4449 -0.1088
16591TIP3    H171188   3.140   1.066  12.774 -0.3705  0.4781  1.1179
16591TIP3    H271189   3.078   0.928  12.781  1.0297 -0.2729 -0.5348
16592TIP3   OH271190   0.887   2.103   5.373 -0.3461  0.2375  0.4590
16592TIP3    H171191   0.824   2.173   5.391 -0.3875 -0.2735  2.6247
16592TIP3    H271192   0.832   2.028   5.349 -0.4069  0.4119  0.0368
16593TIP3   OH271193   2.303   4.491  12.930 -0.3978 -0.0470 -0.4521
16593TIP3    H171194   2.369   4.535  12.875  0.3766  1.3169  1.4390
16593TIP3    H271195   2.219   4.522  12.895 -0.1119 -1.6237 -2.7531
16594TIP3   OH271196   1.232   2.029  15.850 -0.1192 -0.2803 -0.0936
16594TIP3    H171197   1.259   1.953  15.902 -1.6052  0.5967  2.1217
16594TIP3    H271198   1.148   2.002  15.811  0.0189 -0.2412 -0.4198
16595TIP3   OH271199   5.031   0.301  17.019 -0.0712 -0.8185  0.4516
16595TIP3    H171200   5.019   0.344  17.104  2.3219  1.0651 -0.0866
16595TIP3    H271201   5.119   0.264  17.023  0.3957 -0.0071 -1.4931
16596TIP3   OH271202   2.924   3.081   3.045 -0.1994 -0.6559  0.1985
16596TIP3    H171203   2.981   3.143   3.000 -0.2993 -1.0376 -0.4626
16596TIP3    H271204   2.924   3.111   3.136  0.2872 -0.0864  0.0204
16597TIP3   OH271205   6.171   2.149   3.456  0.3215  0.3883  0.2606
16597TIP3    H171206   6.194   2.125   3.546  0.0983 -1.6558 -0.1792
16597TIP3    H271207   6.205   2.238   3.446  1.1056  0.3511  2.0924
16598TIP3   OH271208   3.292   1.989  11.451  0.0356 -0.3176  0.4249
16598TIP3    H171209   3.246   2.054  11.505 -2.0158 -1.2549 -0.0680
16598TIP3    H271210   3.297   1.911  11.506  0.4095 -0.4287  0.2329
16599TIP3   OH271211   0.843   0.576  12.897  0.2482  0.0421 -0.3965
16599TIP3    H171212   0.822   0.626  12.977  0.4795 -0.4885  0.0024
16599TIP3    H271213   0.824   0.637  12.826 -1.2076  0.0886  0.0023
16600TIP3   OH271214   3.476   1.380   1.217  0.0726 -0.6071 -0.2506
16600TIP3    H171215   3.413   1.308   1.220 -0.1741 -0.3605  0.8794
16600TIP3    H271216   3.470   1.421   1.304  1.2885 -0.1511 -0.3665
16601TIP3   OH271217   2.517   6.308  10.733 -0.6878  0.3110  0.6220
16601TIP3    H171218   2.571   6.387  10.739 -1.8937  1.1046  1.3581
16601TIP3    H271219   2.562   6.254  10.667  0.9864  0.9238  1.2018
16602TIP3   OH271220   6.617   0.339   2.345 -0.1960  0.3826 -0.1471
16602TIP3    H171221   6.637   0.303   2.432 -0.3115  0.4887 -0.0767
16602TIP3    H271222   6.623   0.433   2.356 -0.3993  0.4036 -0.2062
16603TIP3   OH271223   2.795   4.049   3.121  0.2381  0.4487  0.1420
16603TIP3    H171224   2.794   3.981   3.054  0.8913  0.7653 -0.1989
16603TIP3    H271225   2.870   4.104   3.099 -0.6933  1.7064 -0.0161
16604TIP3   OH271226   4.500   3.058  16.273 -0.6736 -0.1163 -0.5636
16604TIP3    H171227   4.521   3.098  16.189 -0.3784  1.0384  0.0257
16604TIP3    H271228   4.458   2.975  16.251  1.4859 -0.9500 -1.8204
16605TIP3   OH271229   3.605   0.108   0.789  0.7691  0.1488 -0.7471
16605TIP3    H171230   3.601   0.142   0.878  2.1754  1.4874 -1.1253
16605TIP3    H271231   3.699   0.104   0.770  0.4867  0.6049 -2.4029
16606TIP3   OH271232   6.483   0.967   3.434  0.6456 -0.4078 -0.0647
16606TIP3    H171233   6.469   1.051   3.479 -2.2448 -0.7908 -0.0713
16606TIP3    H271234   6.500   0.905   3.505  0.9376 -0.1501  0.0945
16607TIP3   OH271235   1.346   0.092  16.928  0.3838 -0.0846  0.9771
16607TIP3    H171236   1.403   0.116  17.002 -0.0168  1.2906  0.8600
16607TIP3    H271237   1.385   0.135  16.852 -1.5871  2.1939  1.1327
16608TIP3   OH271238   1.098   2.875  13.907  0.1918 -0.3973  0.2557
16608TIP3    H171239   1.074   2.800  13.853  3.1346  0.3482 -2.4015
16608TIP3    H271240   1.063   2.951  13.862  1.2562  0.1298  0.2697
16609TIP3   OH271241   5.161   0.143  14.507  0.8389  0.9576  0.1001
16609TIP3    H171242   5.235   0.085  14.524 -0.6545 -0.6080  1.6680
16609TIP3    H271243   5.195   0.209  14.447  3.0712 -0.5756 -0.4223
16610TIP3   OH271244   1.036   3.488  14.747 -0.1431 -0.6135  0.2032
16610TIP3    H171245   1.096   3.493  14.821 -1.8005 -1.5581  1.7067
16610TIP3    H271246   1.055   3.403  14.707  0.7987 -0.0742 -0.5369
16611TIP3   OH271247   3.546   2.826  13.221 -0.4846 -0.4454  0.5297
16611TIP3    H171248   3.625   2.852  13.269 -0.1956  0.1336 -0.2371
16611TIP3    H271249   3.543   2.731  13.229  0.9781 -0.6012 -0.4673
16612TIP3   OH271250   3.675   4.871  14.086 -0.0157 -0.2489 -0.2348
16612TIP3    H171251   3.738   4.887  14.156  1.0617 -1.4600 -0.8821
16612TIP3    H271252   3.632   4.789  14.111  0.7093 -0.9435 -1.1926
16613TIP3   OH271253   2.144   4.066  13.784 -0.5374  0.2941  0.1226
16613TIP3    H171254   2.188   4.057  13.869 -0.1654 -0.7345 -0.1635
16613TIP3    H271255   2.051   4.069  13.806 -0.5705 -1.8137  0.4902
16614TIP3   OH271256   4.799   4.887   4.055 -0.1209  0.0881 -0.3996
16614TIP3    H171257   4.761   4.811   4.013  1.4773 -0.4095 -1.0084
16614TIP3    H271258   4.760   4.888   4.143 -1.4369 -0.4196 -0.9549
16615TIP3   OH271259   0.434   5.139  13.439 -0.1430  0.7747 -0.6065
16615TIP3    H171260   0.341   5.116  13.431  0.4144 -1.0966 -3.0567
16615TIP3    H271261   0.470   5.072  13.497 -0.3108  1.6280  0.5205
16616TIP3   OH271262   1.751   2.956   2.878 -0.3135 -0.1602 -0.1952
16616TIP3    H171263   1.697   3.026   2.841  1.1962 -0.2085 -2.7843
16616TIP3    H271264   1.823   3.003   2.921 -0.4944 -0.1255  0.0737
16617TIP3   OH271265   3.208   3.225   3.797 -0.0393 -0.2382 -0.1703
16617TIP3    H171266   3.181   3.184   3.880 -0.0752  0.5980  0.2351
16617TIP3    H271267   3.126   3.253   3.757  0.1276  1.5241  0.6538
16618TIP3   OH271268   4.869   2.431  10.888  0.1871 -0.4711  0.7785
16618TIP3    H171269   4.816   2.403  10.963 -1.6088 -0.1624 -0.3128
16618TIP3    H271270   4.805   2.450  10.819  1.7830 -0.8903 -0.9008
16619TIP3   OH271271   1.536   1.257  15.431 -0.4110 -0.6598  0.4361
16619TIP3    H171272   1.445   1.278  15.413  0.0818  0.5272 -0.7706
16619TIP3    H271273   1.554   1.179  15.378 -0.1899  0.2599 -0.8723
16620TIP3   OH271274   2.793   6.212  11.053 -0.0899  0.0570  0.4198
16620TIP3    H171275   2.767   6.183  10.966 -0.0831  0.9996  0.0945
16620TIP3    H271276   2.853   6.144  11.084 -0.7582 -0.7144  0.0461
16621TIP3   OH271277   2.327   4.624  11.482 -0.6308 -0.2565 -0.7583
16621TIP3    H171278   2.339   4.717  11.499 -0.5416 -0.6690  1.6840
16621TIP3    H271279   2.414   4.586  11.496 -1.2041 -1.0396  0.8112
16622TIP3   OH271280   2.813   0.890  13.821 -0.0157  0.0295  0.3450
16622TIP3    H171281   2.749   0.949  13.779 -1.3517 -0.6154  1.3718
16622TIP3    H271282   2.879   0.949  13.856 -0.5987  0.8246  0.1587
16623TIP3   OH271283   2.913   1.199  13.444  0.0544 -0.5164  0.0198
16623TIP3    H171284   2.922   1.104  13.435  2.7843 -0.4579  1.2432
16623TIP3    H271285   2.946   1.219  13.532  1.4995  1.7238 -0.9190
16624TIP3   OH271286   0.550   6.697  13.239  0.3511 -0.0787  0.3927
16624TIP3    H171287   0.580   6.717  13.151  0.5587  1.8367  0.8725
16624TIP3    H271288   0.454   6.691  13.231  0.4499 -1.2115 -0.1775
16625TIP3   OH271289   5.577   6.098  11.552 -0.2060  0.8301 -0.1007
16625TIP3    H171290   5.494   6.057  11.579 -0.0944  0.8790  0.3145
16625TIP3    H271291   5.615   6.034  11.491 -0.1918  0.4634  0.2877
16626TIP3   OH271292   3.287   3.581   1.032 -0.0211  0.0221  0.4250
16626TIP3    H171293   3.338   3.539   0.963  0.3467 -0.2884  0.8836
16626TIP3    H271294   3.322   3.546   1.114 -2.0130 -1.4116  0.7316
16627TIP3   OH271295   6.245   5.454   3.566 -0.1277  0.8511 -0.3817
16627TIP3    H171296   6.223   5.367   3.533  0.6498  0.4741  0.0812
16627TIP3    H271297   6.234   5.511   3.490 -1.8409  0.5741 -0.4036
16628TIP3   OH271298   3.566   5.736  16.312 -0.2283  1.0940  0.4476
16628TIP3    H171299   3.599   5.810  16.261 -0.8722  0.2102 -1.3301
16628TIP3    H271300   3.533   5.674  16.247  0.9041 -1.0976  1.8269
16629TIP3   OH271301   4.056   5.319   1.304  0.1282  0.0645  0.1638
16629TIP3    H171302   4.054   5.231   1.341 -0.1201 -0.2834 -0.6603
16629TIP3    H271303   3.966   5.351   1.314  0.0899  0.0161 -0.0215
16630TIP3   OH271304   1.792   6.361   3.136  0.6339 -0.7344  0.2680
16630TIP3    H171305   1.876   6.322   3.110  0.2206 -0.4649 -1.6296
16630TIP3    H271306   1.763   6.408   3.058 -0.4417  0.6717  1.4546
16631TIP3   OH271307   5.319   0.072   4.490 -0.5486  0.8468 -0.8090
16631TIP3    H171308   5.390   0.105   4.545 -0.9218 -0.3109  0.4464
16631TIP3    H271309   5.304   0.141   4.426  1.3444  1.3488 -0.7914
16632TIP3   OH271310   2.253   2.222   1.501  0.5302 -0.6177 -0.1044
16632TIP3    H171311   2.328   2.213   1.443  1.0243  0.7845  0.2659
16632TIP3    H271312   2.182   2.178   1.456  1.1000 -0.2390 -1.4093
16633TIP3   OH271313   1.505   2.562  11.476 -0.1480  0.8451  0.2530
16633TIP3    H171314   1.580   2.619  11.459  1.8779 -1.5061  0.7597
16633TIP3    H271315   1.458   2.559  11.392 -0.3866  3.1950  0.2141
16634TIP3   OH271316   0.416   4.319   0.567 -1.0757  0.0241 -0.0889
16634TIP3    H171317   0.479   4.250   0.548 -1.7176 -0.7102  0.3897
16634TIP3    H271318   0.453   4.365   0.642 -1.4128 -0.8197  0.6105
16635TIP3   OH271319   5.701   2.237   6.365  0.4870  0.4028 -0.0199
16635TIP3    H171320   5.706   2.207   6.456  1.2915 -0.9423 -0.4738
16635TIP3    H271321   5.633   2.305   6.365 -1.4164 -1.3850  1.1024
16636TIP3   OH271322   1.277   2.142  11.522 -0.0535  0.2862 -0.0504
16636TIP3    H171323   1.346   2.124  11.459 -2.2306 -0.7236 -2.3470
16636TIP3    H271324   1.247   2.056  11.550 -0.5752  0.6880  0.6676
16637TIP3   OH271325   1.576   2.615  13.307 -0.2490  0.2714 -0.3249
16637TIP3    H171326   1.663   2.615  13.268  0.8826  1.5003  2.0367
16637TIP3    H271327   1.545   2.525  13.294  2.3549 -0.8945  0.7739
16638TIP3   OH271328   0.246   1.972   2.107 -0.1527 -0.4458  0.2490
16638TIP3    H171329   0.312   2.031   2.072 -1.3820  0.5248 -0.5382
16638TIP3    H271330   0.218   1.920   2.032 -1.2980  0.1720  0.2233
16639TIP3   OH271331   6.750   3.606  14.273 -0.1925 -0.1450  0.0360
16639TIP3    H171332   6.731   3.605  14.180  0.2247 -0.8034 -0.0467
16639TIP3    H271333   6.680   3.556  14.313  0.6834 -1.5608 -0.1445
16640TIP3   OH271334   1.121   0.748   4.457  0.1532 -0.0412 -0.3127
16640TIP3    H171335   1.096   0.669   4.410  0.7893 -0.0076 -0.7290
16640TIP3    H271336   1.050   0.809   4.441  0.1225 -0.2065 -0.8142
16641TIP3   OH271337   2.834   5.987   1.362  0.7653  0.2439  0.9342
16641TIP3    H171338   2.793   6.021   1.442  0.3278 -1.2596  1.3993
16641TIP3    H271339   2.762   5.980   1.299  0.5144 -1.1403  1.3245
16642TIP3   OH271340   4.140   4.152   4.375  0.1942 -0.1811 -0.0285
16642TIP3    H171341   4.081   4.155   4.299  0.5317 -0.7163 -0.3211
16642TIP3    H271342   4.135   4.239   4.413  2.2897  1.1417 -2.4238
16643TIP3   OH271343   0.623   6.592  10.806 -0.4909  0.2269  0.3016
16643TIP3    H171344   0.719   6.589  10.814 -0.5771 -0.1332  1.3146
16643TIP3    H271345   0.595   6.501  10.815 -0.9283  0.3016 -0.2063
16644TIP3   OH271346   4.779   3.996   0.283  0.4223  0.5463 -0.4737
16644TIP3    H171347   4.685   3.999   0.300  0.3257  2.5980 -1.0731
16644TIP3    H271348   4.786   3.949   0.199 -0.0446  0.1991 -0.3228
16645TIP3   OH271349   1.212   4.423  13.850  0.5886 -0.3098  0.0919
16645TIP3    H171350   1.261   4.378  13.780  1.6221  1.2123 -0.2089
16645TIP3    H271351   1.137   4.463  13.805  1.1382  0.4912 -0.1382
16646TIP3   OH271352   0.452   4.734   5.794 -0.3432 -0.1898 -1.2960
16646TIP3    H171353   0.391   4.719   5.721 -1.6256  1.6334 -0.6866
16646TIP3    H271354   0.397   4.735   5.872  0.8991 -1.2913 -0.3736
16647TIP3   OH271355   2.689   2.951   4.032 -0.0042 -0.0380 -0.6495
16647TIP3    H171356   2.646   2.900   4.101  0.2991  1.7920  0.9868
16647TIP3    H271357   2.617   2.993   3.984 -0.1941 -0.7903 -1.0294
16648TIP3   OH271358   4.640   6.000  11.187  0.3707  0.2684 -0.1092
16648TIP3    H171359   4.608   6.090  11.189  1.8422  0.8159  1.6102
16648TIP3    H271360   4.729   6.007  11.153 -0.0105 -0.7654 -1.4064
16649TIP3   OH271361   4.849   1.644   4.954 -0.5506 -0.6285 -0.0981
16649TIP3    H171362   4.800   1.704   4.898 -0.0573 -1.3727 -1.3591
16649TIP3    H271363   4.834   1.677   5.043  0.7145  2.1226 -0.8004
16650TIP3   OH271364   6.530   2.299   3.659  0.2758 -0.0488 -0.3548
16650TIP3    H171365   6.473   2.375   3.673  0.7601  0.1763  0.4478
16650TIP3    H271366   6.523   2.280   3.565 -0.5415  0.4319 -0.3962
16651TIP3   OH271367   0.518   1.284  13.330 -0.2864 -0.2617  0.4664
16651TIP3    H171368   0.440   1.281  13.386 -0.6112 -0.6240  0.0098
16651TIP3    H271369   0.587   1.243  13.382 -0.8867 -1.7370  0.1589
16652TIP3   OH271370   4.331   1.484  16.387  0.0940  0.3044  0.2670
16652TIP3    H171371   4.346   1.578  16.396  0.7292  0.3173 -0.7695
16652TIP3    H271372   4.344   1.467  16.294  0.8583 -0.9523  0.5780
16653TIP3   OH271373   0.841   0.516   3.490 -0.2681  0.0332  0.5321
16653TIP3    H171374   0.755   0.551   3.514 -1.5005 -2.1385 -0.5118
16653TIP3    H271375   0.825   0.458   3.416  2.3281  0.6257 -0.6370
16654TIP3   OH271376   4.989   1.480   1.508  0.0639  0.1600 -0.2380
16654TIP3    H171377   5.082   1.460   1.507 -0.2704 -1.5650 -0.5237
16654TIP3    H271378   4.982   1.560   1.560  1.7728  0.8216 -0.9524
16655TIP3   OH271379   4.144   5.073  14.473  0.0565  0.2352  0.5162
16655TIP3    H171380   4.169   5.055  14.383 -0.9765  2.4638 -0.2833
16655TIP3    H271381   4.226   5.067  14.523  0.8123 -0.0773 -0.7366
16656TIP3   OH271382   6.535   4.560  14.749 -0.5019 -0.4435  0.5337
16656TIP3    H171383   6.556   4.499  14.820  2.3921 -0.8084 -0.4971
16656TIP3    H271384   6.573   4.643  14.778 -0.4328 -0.2844 -0.0047
16657TIP3   OH271385   3.956   5.167  10.514  0.2135  0.2853 -0.8664
16657TIP3    H171386   3.885   5.197  10.571  0.3529 -1.1451  0.1221
16657TIP3    H271387   4.033   5.216  10.543  0.0800  0.2548 -0.4490
16658TIP3   OH271388   5.227   2.576  12.774 -0.2276 -0.5567 -0.4638
16658TIP3    H171389   5.201   2.668  12.764  1.0564 -0.1408 -0.1413
16658TIP3    H271390   5.212   2.538  12.687  1.1995  0.5007 -1.2246
16659TIP3   OH271391   6.340   2.073   4.522 -0.5666 -0.5516  0.4080
16659TIP3    H171392   6.320   1.998   4.465 -2.6879  0.7696 -0.7341
16659TIP3    H271393   6.327   2.150   4.466 -1.5435  0.7774  2.3282
16660TIP3   OH271394   4.578   2.343  12.186  0.0558 -0.2208 -0.0574
16660TIP3    H171395   4.526   2.407  12.235  0.2706  0.4785 -0.7229
16660TIP3    H271396   4.602   2.388  12.105  0.5366 -1.0152 -0.3712
16661TIP3   OH271397   2.075   3.257   1.964  0.3761 -0.6675  0.3563
16661TIP3    H171398   2.043   3.192   1.901  1.3537 -2.5923  1.7578
16661TIP3    H271399   2.151   3.296   1.921 -0.9918  0.5969 -1.0518
16662TIP3   OH271400   2.255   3.700  14.583  0.6131  0.1226 -0.2223
16662TIP3    H171401   2.286   3.664  14.666 -0.8456 -0.6717  0.0148
16662TIP3    H271402   2.275   3.631  14.519 -1.3358 -0.7658  0.0737
16663TIP3   OH271403   1.147   6.396  11.832  0.1051  0.0112  0.6561
16663TIP3    H171404   1.060   6.432  11.816 -0.1381 -0.1120  1.6360
16663TIP3    H271405   1.170   6.427  11.920  1.0180 -0.0246  0.4393
16664TIP3   OH271406   3.541   2.413   4.174  0.2076  0.8064  0.2838
16664TIP3    H171407   3.485   2.487   4.149  0.1867  0.6739 -0.0764
16664TIP3    H271408   3.610   2.414   4.108 -0.1746  0.0829 -0.1425
16665TIP3   OH271409   1.522   1.576  11.745  0.1490 -0.1266  0.1706
16665TIP3    H171410   1.450   1.526  11.782  0.1103  0.8531  1.5169
16665TIP3    H271411   1.599   1.520  11.757  0.0276 -0.1021  1.2240
16666TIP3   OH271412   3.957   5.781   5.830 -0.0774 -0.2408 -0.4182
16666TIP3    H171413   4.034   5.806   5.778 -0.1153 -1.0751 -0.8964
16666TIP3    H271414   3.919   5.708   5.782 -2.7107  1.7460 -1.6412
16667TIP3   OH271415   5.113   2.055   0.083 -0.1925  0.2856 -0.3038
16667TIP3    H171416   5.114   2.125   0.017 -0.3082  0.9099  0.3400
16667TIP3    H271417   5.206   2.044   0.107 -0.1052 -0.2263 -0.8546
16668TIP3   OH271418   3.835   6.794  14.449  0.2499  0.3155 -0.3172
16668TIP3    H171419   3.859   6.844  14.371  0.8657 -0.5850 -0.7090
16668TIP3    H271420   3.919   6.768  14.487 -0.0389  0.8258  0.7122
16669TIP3   OH271421   0.966   5.281   1.864  0.4514 -0.0059 -0.0979
16669TIP3    H171422   0.890   5.262   1.810  0.3957 -0.6140  0.1812
16669TIP3    H271423   0.930   5.288   1.953  0.6349  0.3154 -0.0492
16670TIP3   OH271424   4.093   6.585   5.752 -0.0007 -0.2274  0.0911
16670TIP3    H171425   4.102   6.519   5.821  0.9740  0.1766  0.3547
16670TIP3    H271426   4.167   6.643   5.764 -1.0098  1.1064  0.0464
16671TIP3   OH271427   6.251   2.347   1.075  0.7437 -0.0101 -0.0588
16671TIP3    H171428   6.268   2.355   1.169  1.7521 -0.9833 -0.1366
16671TIP3    H271429   6.211   2.261   1.066 -0.3643  0.5285 -0.4049
16672TIP3   OH271430   6.067   0.987  12.967 -0.2468 -0.2208  0.3389
16672TIP3    H171431   6.022   1.066  12.996 -0.4992  0.3828 -1.5577
16672TIP3    H271432   6.155   0.994  13.003 -0.7023  0.1971  1.3872
16673TIP3   OH271433   2.546   4.299   0.129  0.2250 -0.2802  0.0999
16673TIP3    H171434   2.475   4.346   0.085  0.2284 -0.6811 -0.3442
16673TIP3    H271435   2.578   4.238   0.063  0.6007 -0.5052  0.4885
16674TIP3   OH271436   3.730   5.968  15.146 -0.1954  0.6436  0.1402
16674TIP3    H171437   3.681   6.050  15.152  1.5069  1.8280 -0.9715
16674TIP3    H271438   3.669   5.906  15.106 -1.1910  1.6823  0.0072
16675TIP3   OH271439   4.762   3.259  13.517 -0.8669 -0.0317  0.5812
16675TIP3    H171440   4.718   3.208  13.585 -1.3970 -1.1907 -0.5901
16675TIP3    H271441   4.756   3.204  13.439  0.9191  0.6721 -0.0886
16676TIP3   OH271442   1.411   5.364  13.306  0.3943  0.0484  0.9099
16676TIP3    H171443   1.358   5.299  13.260  0.5026  0.2420  0.5146
16676TIP3    H271444   1.439   5.319  13.386 -0.3125 -0.0809  1.0918
16677TIP3   OH271445   1.766   6.243  15.858  0.0603 -0.4574  0.0897
16677TIP3    H171446   1.809   6.202  15.933 -2.6903 -1.1431  1.4254
16677TIP3    H271447   1.818   6.216  15.783  0.5712 -3.2733  1.3142
16678TIP3   OH271448   3.221   4.156   2.461  0.3246  0.4010 -0.0149
16678TIP3    H171449   3.263   4.072   2.440  1.4527  0.7290  0.8362
16678TIP3    H271450   3.274   4.192   2.532 -0.6209  1.4737  0.1698
16679TIP3   OH271451   2.375   3.744  10.247 -0.0368 -0.6065  0.7856
16679TIP3    H171452   2.290   3.699  10.254  0.2367 -1.0852  1.0324
16679TIP3    H271453   2.401   3.760  10.337  0.8240 -1.7674  0.7638
16680TIP3   OH271454   3.399   4.504   3.224  0.3282  0.5583 -0.1321
16680TIP3    H171455   3.391   4.526   3.131 -1.1629  2.4612  0.3811
16680TIP3    H271456   3.405   4.408   3.225  1.4854  0.5447 -2.2134
16681TIP3   OH271457   6.616   0.881  10.626  0.1138  0.0192 -0.3092
16681TIP3    H171458   6.682   0.882  10.557  0.7640  0.5803  0.2987
16681TIP3    H271459   6.591   0.789  10.634 -0.7706  0.0894 -2.0104
16682TIP3   OH271460   1.107   2.035  17.009  0.5661  0.0001  0.1703
16682TIP3    H171461   1.071   1.953  17.043  1.2309 -0.1131  0.6259
16682TIP3    H271462   1.168   2.008  16.941 -2.0985  0.2940 -2.5175
16683TIP3   OH271463   0.521   2.346  10.539  0.1284  0.4968  0.1182
16683TIP3    H171464   0.504   2.420  10.597 -0.2544  1.8051 -1.5931
16683TIP3    H271465   0.591   2.376  10.482 -0.3931 -0.2478 -0.9472
16684TIP3   OH271466   3.122   1.715  13.774 -0.1524  0.7216 -0.2178
16684TIP3    H171467   3.141   1.788  13.715  2.3470  2.0459  2.0341
16684TIP3    H271468   3.185   1.724  13.845 -0.8490 -2.7101  1.0287
16685TIP3   OH271469   4.568   2.606  10.472  0.4114 -0.9814  0.4180
16685TIP3    H171470   4.492   2.575  10.520  0.3619 -1.0632  0.2870
16685TIP3    H271471   4.542   2.692  10.437  0.0332 -1.4366 -0.4464
16686TIP3   OH271472   3.840   2.009   2.014 -0.0687  0.1429  0.4498
16686TIP3    H171473   3.856   2.022   1.921  2.3027  0.3118  0.8242
16686TIP3    H271474   3.859   1.917   2.030  0.5858  0.3513  0.9320
16687TIP3   OH271475   1.073   1.641  12.118 -0.2165 -0.2710  0.1877
16687TIP3    H171476   1.092   1.571  12.055 -0.8919 -0.0646 -0.2588
16687TIP3    H271477   0.992   1.681  12.085 -0.8816 -0.4996  1.4696
16688TIP3   OH271478   5.130   0.070  14.897 -0.3124 -0.2656 -0.5899
16688TIP3    H171479   5.159  -0.019  14.913 -0.9479 -0.7454 -1.9195
16688TIP3    H271480   5.055   0.061  14.838 -1.8352  1.0233  1.0185
16689TIP3   OH271481   2.233   3.674  13.080  0.2334  0.1255 -0.1361
16689TIP3    H171482   2.214   3.757  13.124 -0.6649  1.3348 -2.5952
16689TIP3    H271483   2.153   3.622  13.091  0.2216  0.2014  0.1379
16690TIP3   OH271484   0.796   1.524   1.404 -0.0030 -0.4392 -0.4671
16690TIP3    H171485   0.770   1.610   1.369  0.7030 -0.0605 -0.0853
16690TIP3    H271486   0.827   1.476   1.327  0.4303 -0.0343 -0.5536
16691TIP3   OH271487   0.456   1.904  15.598  0.0512  0.3397 -0.3137
16691TIP3    H171488   0.541   1.862  15.584  0.1419  0.4600 -0.1308
16691TIP3    H271489   0.422   1.919  15.510  0.7064  1.2667 -0.4281
16692TIP3   OH271490   2.017   5.152   2.608 -0.6616  0.2976  0.1605
16692TIP3    H171491   1.975   5.069   2.587 -0.2688  0.5402 -1.7036
16692TIP3    H271492   2.075   5.170   2.534  0.1059  1.6876  1.0532
16693TIP3   OH271493   3.771   0.692  11.826 -0.0113  0.1067  0.2579
16693TIP3    H171494   3.786   0.738  11.744  3.1571  1.6179  1.5183
16693TIP3    H271495   3.801   0.603  11.809 -0.3957  0.1158 -0.5067
16694TIP3   OH271496   5.761   5.303   5.742 -0.2969 -0.1171 -0.3844
16694TIP3    H171497   5.700   5.375   5.731  2.2811  1.9797 -2.2494
16694TIP3    H271498   5.744   5.246   5.667 -0.3374  0.1671 -0.5932
16695TIP3   OH271499   4.376   6.231  10.858 -0.3325 -0.2936  0.2829
16695TIP3    H171500   4.307   6.289  10.892 -1.0745 -1.7495  1.3707
16695TIP3    H271501   4.445   6.235  10.925  0.3385  0.5679 -0.4361
16696TIP3   OH271502   1.054   0.084  16.103  0.4656  0.8642 -0.4268
16696TIP3    H171503   0.961   0.068  16.086  0.6567  0.6532 -1.2815
16696TIP3    H271504   1.092  -0.004  16.112  0.1928  0.9381  2.1875
16697TIP3   OH271505   5.527   5.470  12.890 -0.4366  0.6075  0.3987
16697TIP3    H171506   5.512   5.418  12.969  1.4077  3.1396  2.5950
16697TIP3    H271507   5.473   5.548  12.902  0.1834  1.2226 -0.6549
16698TIP3   OH271508   6.061   5.228  12.032 -0.0624 -0.2048  0.4541
16698TIP3    H171509   6.035   5.137  12.018 -2.1100  0.4218 -0.2422
16698TIP3    H271510   6.136   5.240  11.974  0.0505 -1.3719  0.3279
16699TIP3   OH271511   5.080   5.921  10.806  0.5525 -0.5141 -0.0304
16699TIP3    H171512   5.150   5.951  10.748 -0.7472  0.5354 -1.1229
16699TIP3    H271513   5.064   5.995  10.865  2.5744 -1.9311  2.4823
16700TIP3   OH271514   3.769   2.192   6.607  0.0470 -0.0213 -0.1012
16700TIP3    H171515   3.795   2.132   6.677  1.6847  0.5462 -0.1790
16700TIP3    H271516   3.850   2.237   6.582 -0.5742  0.1000 -2.0832
16701TIP3   OH271517   3.252   1.717  12.441  0.1159  0.3574 -0.5768
16701TIP3    H171518   3.308   1.680  12.372 -2.1253 -1.1114 -1.7416
16701TIP3    H271519   3.268   1.661  12.517 -0.4789 -0.7236 -1.2132
16702TIP3   OH271520   1.343   5.456  12.480  1.0213  0.0954 -0.2303
16702TIP3    H171521   1.310   5.541  12.453  0.9301  0.2210  0.2650
16702TIP3    H271522   1.388   5.473  12.563 -0.6201 -0.6281  0.8718
16703TIP3   OH271523   5.457   4.036  15.552  0.5841 -0.0778  0.0734
16703TIP3    H171524   5.518   4.038  15.625  1.1099 -1.1348 -0.3128
16703TIP3    H271525   5.507   4.069  15.478  0.8359 -1.2988 -0.3271
16704TIP3   OH271526   5.619   0.313  11.799 -0.6023 -0.0822  0.0250
16704TIP3    H171527   5.681   0.380  11.829 -0.5166  0.6748 -1.7135
16704TIP3    H271528   5.647   0.233  11.842  1.2149  0.3844 -0.2130
16705TIP3   OH271529   1.394   6.391  11.656  0.2808  0.2083 -0.6284
16705TIP3    H171530   1.475   6.366  11.612  1.1494  0.5958  0.6865
16705TIP3    H271531   1.385   6.484  11.638  1.1364  0.5855  0.6873
16706TIP3   OH271532   0.255   4.918   4.697 -0.2725 -0.1221 -0.3782
16706TIP3    H171533   0.272   5.007   4.664 -0.3714 -0.9616 -2.8903
16706TIP3    H271534   0.160   4.917   4.714  0.1178  1.0560  2.5377
16707TIP3   OH271535   0.702   0.536   6.270 -0.0941 -0.0649 -0.2555
16707TIP3    H171536   0.785   0.528   6.316 -0.0046  1.1522 -0.1861
16707TIP3    H271537   0.713   0.611   6.212 -1.6362  1.1015  0.8706
16708TIP3   OH271538   3.336   3.806  16.859 -0.1414  0.3429 -0.0957
16708TIP3    H171539   3.355   3.722  16.902 -0.4505  0.4273  0.2105
16708TIP3    H271540   3.363   3.872  16.923 -2.0546  0.4732  0.6514
16709TIP3   OH271541   0.782   3.155  16.576 -0.2033  0.1125 -0.2718
16709TIP3    H171542   0.858   3.157  16.519 -0.5809 -1.8673 -0.9546
16709TIP3    H271543   0.745   3.067  16.563 -0.7366 -0.1708  2.4776
16710TIP3   OH271544   0.588   1.664  11.296 -0.0872 -0.3068  0.2306
16710TIP3    H171545   0.499   1.691  11.275 -1.0241 -2.5051  1.1371
16710TIP3    H271546   0.583   1.629  11.385  1.6013 -0.7915  0.1721
16711TIP3   OH271547   4.107   3.877   1.901 -0.1199  0.2999 -0.0269
16711TIP3    H171548   4.101   3.807   1.966  0.0015  0.7956  0.5198
16711TIP3    H271549   4.197   3.908   1.908 -0.4028  1.0589  0.3067
16712TIP3   OH271550   5.804   1.589  15.316 -0.2252  0.2254 -0.3312
16712TIP3    H171551   5.807   1.493  15.324 -0.7351  0.2870  0.7334
16712TIP3    H271552   5.880   1.619  15.365 -0.4724  0.4040 -0.0606
16713TIP3   OH271553   4.272   4.208   6.064 -0.6782  0.0058  0.1794
16713TIP3    H171554   4.193   4.219   6.115 -0.1016 -1.2203  1.4044
16713TIP3    H271555   4.276   4.114   6.045  1.3950 -0.2968  1.7603
16714TIP3   OH271556   4.978   6.287  13.877  0.1442 -0.0339 -0.0255
16714TIP3    H171557   5.032   6.364  13.862  0.0807 -0.1355 -0.8301
16714TIP3    H271558   5.039   6.220  13.907  0.4153 -0.0510 -0.6066
16715TIP3   OH271559   2.801   0.939  10.558 -0.3583 -0.2134 -0.6447
16715TIP3    H171560   2.765   0.852  10.539  1.8766 -1.0136 -1.4945
16715TIP3    H271561   2.856   0.959  10.483  0.2317  1.3438  0.1666
16716TIP3   OH271562   2.096   2.760  16.772  0.1571  0.4389  0.2297
16716TIP3    H171563   2.181   2.719  16.785 -0.1848  0.0899  1.4284
16716TIP3    H271564   2.107   2.811  16.691  0.7407 -1.5673 -1.0502
16717TIP3   OH271565   6.215   4.928   3.716 -0.0676 -0.3223  0.2367
16717TIP3    H171566   6.228   4.996   3.782  3.7736 -0.2145 -0.3912
16717TIP3    H271567   6.179   4.975   3.640  1.5491  0.8949  0.1619
16718TIP3   OH271568   5.109   1.691   0.012  0.4532 -0.5907  0.3849
16718TIP3    H171569   5.175   1.629  -0.019  1.1709  0.2162  0.2720
16718TIP3    H271570   5.055   1.709  -0.064  0.8847 -0.2780  0.1495
16719TIP3   OH271571   3.195   2.187  11.634  0.2877 -0.4283 -0.3755
16719TIP3    H171572   3.223   2.260  11.689 -1.9190  0.9607 -0.9576
16719TIP3    H271573   3.126   2.144  11.684 -1.1613  0.3452 -1.6048
16720TIP3   OH271574   3.527   3.466   1.816 -0.1477 -0.0293  0.5889
16720TIP3    H171575   3.602   3.432   1.767  0.4210 -1.0224  2.0894
16720TIP3    H271576   3.464   3.394   1.818 -0.9836  0.6446 -0.2583
16721TIP3   OH271577   3.531   4.334   2.011  0.0692 -0.0825  0.4938
16721TIP3    H171578   3.604   4.296   1.963 -0.7708 -1.7400  0.4449
16721TIP3    H271579   3.508   4.413   1.962  0.7395 -0.4590 -0.4463
16722TIP3   OH271580   3.613   4.619   4.368  0.2156 -1.2269 -0.1179
16722TIP3    H171581   3.670   4.692   4.344 -0.2798 -0.0973  1.8858
16722TIP3    H271582   3.606   4.567   4.289  1.9743 -0.0264 -1.1390
16723TIP3   OH271583   4.008   4.728   6.317 -0.0475  0.0115  0.7079
16723TIP3    H171584   4.063   4.795   6.278  0.5959 -0.2885  1.0890
16723TIP3    H271585   3.920   4.748   6.285  0.3087  0.3630 -0.0856
16724TIP3   OH271586   5.838   3.850   0.261  0.4087  0.7993 -0.2575
16724TIP3    H171587   5.841   3.879   0.352  1.7014  0.3584 -0.1359
16724TIP3    H271588   5.919   3.800   0.249 -0.4864 -0.4955 -1.2104
16725TIP3   OH271589   0.575   0.217   0.349 -0.0556 -0.0726 -0.3917
16725TIP3    H171590   0.531   0.133   0.340  0.9804 -0.4494 -2.5853
16725TIP3    H271591   0.668   0.195   0.357  0.2464  0.8466 -1.1846
16726TIP3   OH271592   2.305   6.790  15.644  0.0699 -0.6990 -0.0681
16726TIP3    H171593   2.318   6.883  15.665 -1.1112 -0.4143 -0.5137
16726TIP3    H271594   2.381   6.766  15.591  0.0889  0.1725 -0.4464
16727TIP3   OH271595   2.842   4.366  11.885  0.2291 -0.3300  0.7121
16727TIP3    H171596   2.859   4.375  11.979 -2.2289 -1.3657  1.3540
16727TIP3    H271597   2.771   4.428  11.868  1.4228  0.6852 -0.7591
16728TIP3   OH271598   3.675   5.660  16.842  0.5982 -0.0702 -0.4272
16728TIP3    H171599   3.677   5.733  16.905 -1.5759 -0.5696  0.2951
16728TIP3    H271600   3.659   5.702  16.758 -0.6430  0.3301 -0.0158
16729TIP3   OH271601   1.989   3.925   6.172  0.2097 -0.5088 -0.9796
16729TIP3    H171602   1.978   4.007   6.219 -3.4592 -0.4405 -1.6249
16729TIP3    H271603   2.081   3.922   6.148  0.9677  2.1979  1.1762
16730TIP3   OH271604   6.353   5.058   2.010  0.6834  0.5005 -0.5117
16730TIP3    H171605   6.341   5.050   1.915  0.8490 -1.0488 -0.4261
16730TIP3    H271606   6.346   5.152   2.027  1.4358  0.8868 -2.1582
16731TIP3   OH271607   3.259   1.840   2.884 -0.5382 -0.3701 -0.7479
16731TIP3    H171608   3.343   1.886   2.888 -0.8092  0.0180  1.4442
16731TIP3    H271609   3.281   1.749   2.903 -0.4276 -0.6033 -1.8932
16732TIP3   OH271610   3.320   2.758  12.585  0.0798 -0.3940 -0.5224
16732TIP3    H171611   3.288   2.819  12.518  3.7430  0.5730 -1.6344
16732TIP3    H271612   3.324   2.674  12.540  2.9057  0.3289 -1.8171
16733TIP3   OH271613   0.687   6.417  15.272  0.0686 -0.6074 -0.9585
16733TIP3    H171614   0.748   6.376  15.211  1.5994 -1.3233  0.9363
16733TIP3    H271615   0.715   6.385  15.358 -0.8652  1.7267  0.2899
16734TIP3   OH271616   2.476   5.342  15.630  0.0219 -0.3121 -0.2517
16734TIP3    H171617   2.402   5.400  15.646  0.5339  0.2742  0.0420
16734TIP3    H271618   2.523   5.383  15.557  0.4009 -0.3362 -0.0255
16735TIP3   OH271619   4.342   3.179   2.343  0.1211 -0.9003 -0.2536
16735TIP3    H171620   4.264   3.234   2.356  0.8349 -0.1341  0.9410
16735TIP3    H271621   4.407   3.216   2.402  0.8724 -2.5777  0.0043
16736TIP3   OH271622   2.877   1.730   2.261 -0.5163 -0.2097 -0.3737
16736TIP3    H171623   2.854   1.756   2.351  1.7579  1.0537 -0.0833
16736TIP3    H271624   2.941   1.659   2.272 -1.4415 -1.1787 -1.0600
16737TIP3   OH271625   4.985   5.779   5.387  0.0783  0.5520  0.2836
16737TIP3    H171626   4.899   5.740   5.404 -1.8408  3.8574 -0.7574
16737TIP3    H271627   5.045   5.705   5.383 -2.9311 -2.0916 -0.3429
16738TIP3   OH271628   0.469   6.478   4.143 -0.0539  0.6480 -0.1843
16738TIP3    H171629   0.395   6.521   4.187  0.1422  1.8933 -1.0198
16738TIP3    H271630   0.543   6.537   4.156  0.3411  0.3454 -0.9872
16739TIP3   OH271631   4.107   5.934   3.591 -0.1489  0.0479 -0.1979
16739TIP3    H171632   4.102   5.874   3.516 -0.7106  1.1617 -1.0839
16739TIP3    H271633   4.035   5.996   3.576  1.0019  1.5125  0.1802
16740TIP3   OH271634   6.453   1.954  14.430  0.3642 -0.4702 -0.2587
16740TIP3    H171635   6.502   2.022  14.475  0.0645 -0.5306  0.1610
16740TIP3    H271636   6.361   1.974  14.448  0.2050 -0.1437 -1.3405
16741TIP3   OH271637   2.658   2.689  11.224 -0.1458  0.1106  0.1455
16741TIP3    H171638   2.592   2.622  11.209 -1.9227  1.7227  0.2850
16741TIP3    H271639   2.662   2.738  11.142  0.4342  0.4071  0.3430
16742TIP3   OH271640   6.629   2.264   1.467  0.0347 -0.3273  0.1883
16742TIP3    H171641   6.563   2.309   1.415 -0.1207 -1.4361 -0.6248
16742TIP3    H271642   6.615   2.295   1.557 -0.5729  0.6071 -0.2242
16743TIP3   OH271643   5.444   4.429  16.252  0.4134 -0.0885 -0.0407
16743TIP3    H171644   5.459   4.395  16.340  0.4189  0.1451  0.0498
16743TIP3    H271645   5.408   4.355  16.203 -2.2629  0.5002  0.8767
16744TIP3   OH271646   5.714   3.790   1.600  0.3372  0.5004  0.4206
16744TIP3    H171647   5.695   3.882   1.585 -2.3946  0.0475  0.5867
16744TIP3    H271648   5.644   3.743   1.553  0.2792 -1.3883  2.2506
16745TIP3   OH271649   0.609   3.425   0.364  0.8786 -0.0682 -0.4026
16745TIP3    H171650   0.680   3.371   0.399  0.3780 -0.1882  0.4408
16745TIP3    H271651   0.622   3.510   0.405  0.0394 -0.3294  0.4248
16746TIP3   OH271652   4.824   2.754  13.690 -0.3899 -0.0804  0.2333
16746TIP3    H171653   4.865   2.728  13.608  0.3201  0.5182  0.3898
16746TIP3    H271654   4.736   2.714  13.687 -0.5037  0.2351 -0.9644
16747TIP3   OH271655   2.344   2.340   4.727 -0.1932 -0.7447  0.5862
16747TIP3    H171656   2.390   2.258   4.706  2.7691  0.8443  0.3021
16747TIP3    H271657   2.414   2.401   4.751 -2.2711  1.7544  0.7238
16748TIP3   OH271658   1.770   4.171  12.376  0.4282 -0.9433 -0.3045
16748TIP3    H171659   1.681   4.136  12.377 -0.0611  0.2507  1.1685
16748TIP3    H271660   1.801   4.154  12.287 -1.6634 -0.4453 -1.1998
16749TIP3   OH271661   6.440   3.563  13.252 -0.0197 -0.1001  0.2735
16749TIP3    H171662   6.376   3.633  13.266 -1.8286 -1.8918  1.8127
16749TIP3    H271663   6.448   3.522  13.338  2.7380 -0.4084 -0.0583
16750TIP3   OH271664   5.181   6.121  13.384  0.3404  0.1799 -0.2618
16750TIP3    H171665   5.262   6.139  13.431 -1.0746 -1.7743  3.4217
16750TIP3    H271666   5.189   6.029  13.357 -0.3648  0.1536 -0.4061
16751TIP3   OH271667   2.434   5.626   1.324 -0.4989  0.3000  0.1554
16751TIP3    H171668   2.345   5.597   1.304 -0.1478 -0.0464 -0.9746
16751TIP3    H271669   2.423   5.713   1.362 -1.3852 -0.1717  1.0073
16752TIP3   OH271670   1.571   6.380  11.958 -0.1511 -1.0256 -0.2349
16752TIP3    H171671   1.567   6.373  12.054  0.5759 -1.2725 -0.2139
16752TIP3    H271672   1.658   6.346  11.936  0.4300  0.7319 -0.8218
16753TIP3   OH271673   3.224   0.778   3.350  0.6426  0.1204 -0.6246
16753TIP3    H171674   3.257   0.749   3.435 -1.1869 -1.7719 -0.4994
16753TIP3    H271675   3.304   0.789   3.297  1.9779  2.9932  1.6887
16754TIP3   OH271676   1.634   2.954   4.942  0.0257 -0.3649  0.1366
16754TIP3    H171677   1.642   3.023   5.008  0.8678  0.2879 -0.6423
16754TIP3    H271678   1.544   2.963   4.910  0.2792  0.7073 -0.3160
16755TIP3   OH271679   2.709   6.706  16.760  0.0797  0.0529 -0.1389
16755TIP3    H171680   2.704   6.682  16.667  0.3839 -2.0558  0.3357
16755TIP3    H271681   2.675   6.795  16.763 -2.0644 -0.5972 -1.9808
16756TIP3   OH271682   6.050   5.873   0.538 -0.3706 -0.3930  0.1364
16756TIP3    H171683   6.046   5.904   0.447 -0.6363 -0.3251  0.1693
16756TIP3    H271684   6.030   5.951   0.590  0.0383 -0.3724  0.2634
16757TIP3   OH271685   5.413   5.860   2.975 -0.2714 -0.3893  0.7321
16757TIP3    H171686   5.461   5.882   3.054  0.6415  0.1607  0.0436
16757TIP3    H271687   5.399   5.945   2.932  1.2241 -0.8676 -0.8026
16758TIP3   OH271688   4.126   2.448  13.698 -0.2149  0.2798 -0.8363
16758TIP3    H171689   4.034   2.420  13.699  0.3228 -1.6951  0.9301
16758TIP3    H271690   4.141   2.485  13.785  0.4608  1.4011 -1.4066
16759TIP3   OH271691   4.470   4.853   0.134 -0.6517  0.0030 -0.2081
16759TIP3    H171692   4.379   4.865   0.161 -0.3721 -1.0717  1.3316
16759TIP3    H271693   4.521   4.877   0.211  0.4759  1.9769 -1.4961
16760TIP3   OH271694   5.286   5.312   5.177 -0.2328 -0.4705 -0.1359
16760TIP3    H171695   5.229   5.241   5.207  0.0831 -1.2472 -1.3053
16760TIP3    H271696   5.373   5.289   5.211  0.2186 -1.5880 -1.8818
16761TIP3   OH271697   1.105   3.216  15.009  0.0424 -0.3838  0.5427
16761TIP3    H171698   1.029   3.270  15.027 -0.1951 -1.2679  2.4494
16761TIP3    H271699   1.174   3.279  14.987 -0.1896  0.7679  2.7799
16762TIP3   OH271700   2.787   4.508  12.914 -0.2843  0.0480  0.5371
16762TIP3    H171701   2.880   4.521  12.931 -0.3408  0.6473  0.4178
16762TIP3    H271702   2.752   4.471  12.995 -0.2154  1.1781  1.0908
16763TIP3   OH271703   0.758   4.080  13.377 -0.2074 -0.2320  0.4168
16763TIP3    H171704   0.819   4.009  13.360 -0.8421 -0.9269  0.9643
16763TIP3    H271705   0.686   4.039  13.426 -0.8512  0.6714  0.2587
16764TIP3   OH271706   6.621   5.126  11.484 -0.1436 -0.3609  0.2468
16764TIP3    H171707   6.649   5.196  11.424 -0.1671  0.4426  1.1505
16764TIP3    H271708   6.544   5.162  11.528 -0.7315 -1.3444  0.0405
16765TIP3   OH271709   2.885   6.607  13.972 -0.0985  0.3180  0.1250
16765TIP3    H171710   2.866   6.524  13.928 -0.1199  1.0982 -1.4305
16765TIP3    H271711   2.928   6.660  13.905 -1.0744  1.9518  0.7218
16766TIP3   OH271712   6.307   2.378  12.626  0.3504 -0.2096 -0.3996
16766TIP3    H171713   6.250   2.444  12.587  2.4441  0.7593 -1.9669
16766TIP3    H271714   6.384   2.426  12.655  0.4500 -1.4935  1.6833
16767TIP3   OH271715   6.668   3.090  13.877  0.3469 -0.1544  0.3010
16767TIP3    H171716   6.676   3.100  13.972 -0.9963  1.5794  0.2842
16767TIP3    H271717   6.719   3.011  13.857  0.5502 -0.6489  2.4651
16768TIP3   OH271718   1.401   2.580   5.876  0.1002  0.4497  0.3552
16768TIP3    H171719   1.365   2.664   5.849  1.1923  0.0357 -2.8229
16768TIP3    H271720   1.490   2.601   5.905 -0.3708  0.6178  1.7610
16769TIP3   OH271721   1.598   4.888  13.264 -0.3817 -0.3799 -0.1179
16769TIP3    H171722   1.683   4.925  13.287 -0.9159  0.3637  0.7319
16769TIP3    H271723   1.550   4.887  13.347 -0.3344 -3.2232 -0.0026
16770TIP3   OH271724   5.568   4.021   0.401 -0.2624 -0.4743 -0.1445
16770TIP3    H171725   5.524   3.945   0.440  0.3819 -0.1356  1.3120
16770TIP3    H271726   5.631   4.049   0.468 -0.1464  1.0474 -0.8519
16771TIP3   OH271727   2.568   3.004   3.038  0.0273 -0.2378 -0.2410
16771TIP3    H171728   2.650   2.961   3.013 -0.5261 -0.3891 -1.9541
16771TIP3    H271729   2.595   3.081   3.088  1.1582 -0.8486  0.1209
16772TIP3   OH271730   2.988   3.300  17.031  0.2019  0.1007 -0.0712
16772TIP3    H171731   2.911   3.356  17.026 -0.0357 -0.1809  0.3191
16772TIP3    H271732   2.973   3.232  16.966  0.2996  0.2570 -0.2594
16773TIP3   OH271733   1.223   6.547   1.237  0.7044  0.4351  0.1323
16773TIP3    H171734   1.165   6.617   1.268 -0.3337 -0.5117  0.3529
16773TIP3    H271735   1.178   6.466   1.260  3.3775 -0.4630  2.9851
16774TIP3   OH271736   6.649   3.856  14.600 -0.1615  0.1195  0.4763
16774TIP3    H171737   6.599   3.808  14.666 -1.2689  0.8418  0.1998
16774TIP3    H271738   6.729   3.881  14.645 -0.7858  0.3815  1.4832
16775TIP3   OH271739   2.745   3.529   5.239 -0.5820 -0.2253  0.4927
16775TIP3    H171740   2.706   3.549   5.324  0.4405  0.7297  0.7633
16775TIP3    H271741   2.837   3.510   5.259 -0.5015 -0.7259 -0.3171
16776TIP3   OH271742   2.086   1.083  13.060 -0.2505 -0.2986 -0.4054
16776TIP3    H171743   2.139   1.005  13.043 -0.7004 -0.5037 -0.8758
16776TIP3    H271744   2.148   1.147  13.096  0.7029  0.0646 -2.5145
16777TIP3   OH271745   6.285   1.423   2.341  0.0324  0.2504  0.1047
16777TIP3    H171746   6.295   1.421   2.246  0.2122 -0.3830  0.1373
16777TIP3    H271747   6.334   1.347   2.373  1.3781  1.3606  0.8356
16778TIP3   OH271748   2.037   4.641  16.631  0.0349 -0.1834  0.2405
16778TIP3    H171749   1.965   4.579  16.645  0.1470  0.0436  1.9442
16778TIP3    H271750   2.047   4.644  16.536 -0.0535 -2.6820  0.0770
16779TIP3   OH271751   0.776   6.734   4.032 -0.1405  0.1439 -0.5127
16779TIP3    H171752   0.684   6.731   4.056  0.3546 -2.4471  1.6065
16779TIP3    H271753   0.812   6.806   4.083 -0.6426 -0.1330  0.2485
16780TIP3   OH271754   0.838   2.348  14.348  0.6580 -0.1575 -0.2846
16780TIP3    H171755   0.901   2.287  14.311  1.5579  1.2768 -1.2167
16780TIP3    H271756   0.859   2.432  14.307  1.2759  1.4181  2.9640
16781TIP3   OH271757   4.997   6.418  12.840 -0.2228  0.0436 -0.3647
16781TIP3    H171758   4.929   6.352  12.854 -0.7860  1.0242  1.9486
16781TIP3    H271759   4.959   6.479  12.777 -2.1946  1.3608  1.9414
16782TIP3   OH271760   1.211   6.588   5.312 -0.0119 -0.5123 -0.1112
16782TIP3    H171761   1.254   6.503   5.320 -0.7959 -0.7484  2.4394
16782TIP3    H271762   1.283   6.651   5.309  0.5551 -1.1691 -0.8774
16783TIP3   OH271763   3.376   3.682  12.848 -0.3222  0.1468  0.0200
16783TIP3    H171764   3.304   3.620  12.859  0.0962 -0.5980 -1.1998
16783TIP3    H271765   3.438   3.659  12.917 -0.1063 -0.9169 -0.5000
16784TIP3   OH271766   4.693   0.505  14.086  0.0114  0.2121 -0.1447
16784TIP3    H171767   4.763   0.446  14.114 -0.6910 -0.6902 -0.2440
16784TIP3    H271768   4.615   0.472  14.130 -0.4135  1.0285 -0.2696
16785TIP3   OH271769   2.292   3.100   5.968  0.2789  0.4704 -0.2011
16785TIP3    H171770   2.298   3.061   6.055 -0.3970  0.1444 -0.2886
16785TIP3    H271771   2.378   3.086   5.928  0.5640  0.5552  0.3877
16786TIP3   OH271772   3.077   3.136   0.162  0.0924  0.1232  0.6805
16786TIP3    H171773   3.168   3.139   0.189  0.8045 -0.6788 -1.4688
16786TIP3    H271774   3.069   3.202   0.093 -0.2975 -1.4482 -0.8552
16787TIP3   OH271775   0.487   0.441  11.230 -0.0975 -0.4663 -0.5555
16787TIP3    H171776   0.513   0.479  11.314 -2.4682 -2.3159  1.1287
16787TIP3    H271777   0.570   0.422  11.186  1.2169  0.3066  1.4629
16788TIP3   OH271778   5.183   3.598  11.002  0.1202  0.1385  0.7821
16788TIP3    H171779   5.105   3.633  11.044 -2.3331 -0.3464 -2.9182
16788TIP3    H271780   5.181   3.504  11.022 -0.9263 -0.0616 -0.1912
16789TIP3   OH271781   5.188   5.127   1.847 -0.1853  0.5916 -0.1099
16789TIP3    H171782   5.228   5.075   1.917 -0.2715 -0.3946 -0.7850
16789TIP3    H271783   5.262   5.161   1.797 -0.1546  0.4311 -0.1710
16790TIP3   OH271784   2.511   2.247   0.624 -0.2963  0.0485  0.0990
16790TIP3    H171785   2.495   2.322   0.567  2.2044  0.2063 -0.5541
16790TIP3    H271786   2.455   2.262   0.700 -2.1502  0.9303 -1.3552
16791TIP3   OH271787   1.980   6.350   4.451  0.1191  0.1571 -0.2578
16791TIP3    H171788   1.949   6.291   4.519 -0.6517 -0.2835 -0.9799
16791TIP3    H271789   1.937   6.434   4.470  0.5594  0.2653  0.2769
16792TIP3   OH271790   5.973   4.334   0.976  0.3180  0.8801 -0.1267
16792TIP3    H171791   5.932   4.351   0.891  0.3999  3.3174  0.2359
16792TIP3    H271792   5.907   4.284   1.025 -1.0577  2.1950 -0.5627
16793TIP3   OH271793   2.903   6.748  10.104 -0.1949 -0.2049  0.3669
16793TIP3    H171794   2.865   6.836  10.111 -1.0273 -0.3602 -1.6059
16793TIP3    H271795   2.927   6.739  10.012  1.9533 -1.2478  0.9730
16794TIP3   OH271796   5.104   0.157  16.585 -0.5327 -0.8706 -0.0017
16794TIP3    H171797   5.142   0.206  16.513 -1.9957 -0.1016 -0.2993
16794TIP3    H271798   5.166   0.167  16.657 -0.2540  0.4809 -0.4079
16795TIP3   OH271799   2.288   2.139  15.665 -0.0969 -0.7507  0.3444
16795TIP3    H171800   2.300   2.173  15.753  1.2671 -0.3908  0.0534
16795TIP3    H271801   2.355   2.071  15.656  1.3972  0.7782 -1.1422
16796TIP3   OH271802   0.876   4.269  14.040 -0.2938 -0.4520 -0.0263
16796TIP3    H171803   0.890   4.175  14.036  0.8941 -0.3965  1.7510
16796TIP3    H271804   0.803   4.285  13.980  2.2645 -1.8415 -3.8526
16797TIP3   OH271805   5.700   4.946   0.256 -0.0430 -0.0164 -0.3839
16797TIP3    H171806   5.642   5.020   0.239 -2.1396 -1.6556 -0.7337
16797TIP3    H271807   5.725   4.955   0.348 -2.4110 -0.2813  0.3280
16798TIP3   OH271808   2.592   4.643  11.506  0.0769 -0.0688  0.5047
16798TIP3    H171809   2.661   4.665  11.443  1.3030 -1.8597  1.1313
16798TIP3    H271810   2.548   4.726  11.523  1.9115  1.1025 -0.1357
16799TIP3   OH271811   3.436   1.441  13.086 -0.6391  0.3593 -1.0084
16799TIP3    H171812   3.365   1.495  13.123 -0.8030 -0.8550  0.5634
16799TIP3    H271813   3.431   1.457  12.992 -1.6573  1.8945 -0.7420
16800TIP3   OH271814   4.232   0.622   2.936 -0.8558 -0.6606  0.1487
16800TIP3    H171815   4.160   0.653   2.990 -2.3056 -1.8781 -0.9689
16800TIP3    H271816   4.193   0.610   2.849  0.7116 -1.2841 -0.5085
16801TIP3   OH271817   0.440   3.120   2.504 -0.2312  0.2841  0.3333
16801TIP3    H171818   0.351   3.155   2.501 -0.3348  0.0386  0.4959
16801TIP3    H271819   0.474   3.131   2.415 -0.5444  0.0732  0.1847
16802TIP3   OH271820   0.746   2.085   1.350 -0.2237  0.0960 -0.0233
16802TIP3    H171821   0.754   2.023   1.423  0.9457  1.6807  1.2631
16802TIP3    H271822   0.725   2.030   1.274 -3.0840 -1.4552  1.7429
16803TIP3   OH271823   5.729   1.971  16.540  0.1334 -0.7830  0.2194
16803TIP3    H171824   5.719   2.040  16.474  3.3577 -0.6057 -0.2506
16803TIP3    H271825   5.706   2.013  16.623  0.0563  0.2375 -0.3055
16804TIP3   OH271826   0.983   4.651   1.281 -0.3340 -0.0989 -0.1327
16804TIP3    H171827   0.946   4.705   1.350 -2.9642 -0.8730 -0.8391
16804TIP3    H271828   0.963   4.561   1.307 -1.8584 -0.3893 -2.0819
16805TIP3   OH271829   5.576   3.286   0.009 -0.5426  0.1926  0.2636
16805TIP3    H171830   5.656   3.337   0.018  1.6582 -3.1793  2.1577
16805TIP3    H271831   5.607   3.198  -0.013 -3.9707 -0.6833 -1.8177
16806TIP3   OH271832   6.213   0.438   6.122  0.1509  0.2694  0.2450
16806TIP3    H171833   6.192   0.376   6.052 -0.4600  1.4436 -0.6573
16806TIP3    H271834   6.185   0.394   6.202  1.2332 -1.2680 -0.1879
16807TIP3   OH271835   1.239   5.310   5.808 -0.8680 -0.1908 -0.4118
16807TIP3    H171836   1.254   5.250   5.735  1.7331 -1.5580  1.1065
16807TIP3    H271837   1.194   5.258   5.874  0.5804 -0.2637  0.5595
16808TIP3   OH271838   4.550   2.278  16.343 -0.3913 -0.1088  0.6901
16808TIP3    H171839   4.493   2.350  16.369 -0.5936 -0.3866  1.0301
16808TIP3    H271840   4.605   2.262  16.420 -0.5291 -0.4916  0.7119
16809TIP3   OH271841   6.002   5.900   2.909 -0.2287 -0.6337  0.1811
16809TIP3    H171842   6.053   5.949   2.846 -1.8129  0.3965 -0.3716
16809TIP3    H271843   6.052   5.904   2.990 -0.7754  2.9377  0.4964
16810TIP3   OH271844   1.218   3.851   1.724 -0.2373  0.0980  0.3743
16810TIP3    H171845   1.262   3.776   1.683  1.4536  1.6191 -0.7656
16810TIP3    H271846   1.132   3.854   1.682 -0.2213 -1.0153  0.2283
16811TIP3   OH271847   5.538   5.757   5.531 -0.1410 -0.2794 -0.0320
16811TIP3    H171848   5.473   5.827   5.521 -2.2960 -1.8361  2.0683
16811TIP3    H271849   5.604   5.777   5.464 -0.9957  3.3077 -0.0305
16812TIP3   OH271850   2.293   0.637  16.765  0.0811 -0.4224  0.1869
16812TIP3    H171851   2.331   0.645  16.677 -1.7847  1.1382 -0.5544
16812TIP3    H271852   2.223   0.572  16.755  1.4563 -2.1255  1.1678
16813TIP3   OH271853   5.893   4.190   1.258  0.6655 -0.4660 -0.9552
16813TIP3    H171854   5.918   4.106   1.297 -0.5823 -0.5235 -0.2187
16813TIP3    H271855   5.963   4.250   1.284  2.3751 -1.5657 -2.7689
16814TIP3   OH271856   6.206   3.996   2.343 -0.7018 -0.0284  0.3310
16814TIP3    H171857   6.178   4.046   2.267 -0.4388  0.1545  0.3558
16814TIP3    H271858   6.285   4.040   2.374 -0.6827 -0.2326  0.5775
16815TIP3   OH271859   4.700   6.697   1.207 -0.0080 -0.2157  0.4706
16815TIP3    H171860   4.664   6.783   1.185  4.8025  1.8925 -0.4046
16815TIP3    H271861   4.651   6.670   1.285 -2.0686  3.0448  0.5050
16816TIP3   OH271862   4.000   6.392  14.772  0.7732  0.9429  0.2589
16816TIP3    H171863   3.928   6.420  14.714  1.5350  1.6132 -0.3903
16816TIP3    H271864   4.004   6.460  14.839 -0.4031 -0.0641  1.4101
16817TIP3   OH271865   5.528   0.296   0.042 -0.4543  0.4005 -0.5560
16817TIP3    H171866   5.554   0.325   0.129 -0.5465  1.1014 -0.7588
16817TIP3    H271867   5.573   0.355  -0.018  0.2746 -0.6011 -1.0210
16818TIP3   OH271868   1.415   0.095  16.518 -0.2795 -0.2775  0.1049
16818TIP3    H171869   1.415   0.022  16.580  1.1328  0.1423  0.6348
16818TIP3    H271870   1.324   0.123  16.514 -0.2387  0.6835  3.2132
16819TIP3   OH271871   0.694   2.180   5.951 -0.3276 -0.2709 -0.1914
16819TIP3    H171872   0.637   2.231   5.894 -0.1988  0.5505  0.4006
16819TIP3    H271873   0.782   2.210   5.931 -0.0409 -1.6842 -1.2525
16820TIP3   OH271874   2.942   5.940   5.901  0.5841  0.1723 -0.1989
16820TIP3    H171875   3.009   5.894   5.951  0.2979  0.0624  0.0863
16820TIP3    H271876   2.871   5.953   5.963  1.2831  2.4331  0.1932
16821TIP3   OH271877   5.825   3.026   5.776  0.3222  0.6548 -0.4346
16821TIP3    H171878   5.807   2.939   5.739 -0.9013  0.5422  0.3488
16821TIP3    H271879   5.815   3.085   5.701  0.4859  0.1823 -0.8376
16822TIP3   OH271880   3.411   2.627   6.885  0.2337 -0.6232  1.0617
16822TIP3    H171881   3.331   2.663   6.922 -0.2340 -1.4247  0.8524
16822TIP3    H271882   3.425   2.678   6.805  1.2064  1.0618  2.2438
16823TIP3   OH271883   5.300   6.711   5.555 -0.4738 -0.1259  0.1853
16823TIP3    H171884   5.285   6.794   5.511 -0.2041 -0.7041 -1.0466
16823TIP3    H271885   5.357   6.733   5.629 -1.2690  0.9289  0.5090
16824TIP3   OH271886   5.338   1.947   4.507 -0.3384 -0.3873  0.0390
16824TIP3    H171887   5.426   1.935   4.543 -1.1578  0.3190  2.4320
16824TIP3    H271888   5.312   1.860   4.478  0.9602 -0.6914 -0.2878
16825TIP3   OH271889   3.115   3.786   1.932  0.0629 -0.1719  0.3398
16825TIP3    H171890   3.089   3.745   2.014  1.4170  0.2140  0.9807
16825TIP3    H271891   3.184   3.729   1.897 -0.7516 -0.5403 -0.7339
16826TIP3   OH271892   6.646   3.752   0.335 -0.0632 -0.4028  0.5488
16826TIP3    H171893   6.601   3.762   0.419  1.7206  0.2026  1.4832
16826TIP3    H271894   6.739   3.757   0.356  0.4650 -0.9257 -1.3919
16827TIP3   OH271895   4.389   4.604  12.541  0.2252  0.8230 -0.2981
16827TIP3    H171896   4.413   4.695  12.527  0.6772  0.9972  1.3620
16827TIP3    H271897   4.471   4.562  12.568  0.4007 -0.4753 -2.5720
16828TIP3   OH271898   2.552   1.657  16.053  0.4269 -0.3967 -0.7927
16828TIP3    H171899   2.506   1.726  16.006  1.5192 -0.1536 -1.5381
16828TIP3    H271900   2.491   1.631  16.122  0.0846  1.5019 -0.3149
16829TIP3   OH271901   5.594   2.069  16.768 -0.0880 -0.4312  0.2586
16829TIP3    H171902   5.605   2.036  16.857  0.2383 -0.2684  0.2797
16829TIP3    H271903   5.601   2.164  16.776 -1.4351 -0.3067  0.2573
16830TIP3   OH271904   6.025   1.598  11.144  0.1269 -0.3179  0.7141
16830TIP3    H171905   5.957   1.606  11.077 -0.4409  1.5322  1.4666
16830TIP3    H271906   6.001   1.521  11.194 -0.8410 -0.2675  0.3421
16831TIP3   OH271907   1.595   2.015  15.570  0.1577  0.6977  0.6921
16831TIP3    H171908   1.581   2.097  15.617  0.7793  0.2251  1.7380
16831TIP3    H271909   1.537   1.952  15.614 -0.1363  0.5122  0.0529
16832TIP3   OH271910   4.868   4.048  11.547  0.3427  0.2233 -0.0730
16832TIP3    H171911   4.801   4.104  11.586  1.2667  2.4689 -1.4755
16832TIP3    H271912   4.868   3.969  11.601 -1.9047  1.0457  1.2658
16833TIP3   OH271913   3.296   0.754  12.661  0.5205 -0.1847  0.1025
16833TIP3    H171914   3.266   0.822  12.721  1.2608 -0.5353  0.8998
16833TIP3    H271915   3.329   0.685  12.719  2.6065  0.0672 -0.7092
16834TIP3   OH271916   2.115   5.341  12.270  0.3929  0.0740  0.5000
16834TIP3    H171917   2.095   5.301  12.354 -0.4651  0.5994  0.5621
16834TIP3    H271918   2.054   5.299  12.208  1.2293 -0.5360  0.0768
16835TIP3   OH271919   0.934   0.790   3.889 -0.5830 -0.5336 -0.2976
16835TIP3    H171920   0.849   0.832   3.877 -0.9874 -1.3616 -0.3932
16835TIP3    H271921   0.928   0.746   3.974  0.5599  1.2550  0.7707
16836TIP3   OH271922   0.419   2.616  16.724 -0.1981  0.0929  0.0432
16836TIP3    H171923   0.448   2.578  16.640 -1.7104  0.9217 -0.8969
16836TIP3    H271924   0.425   2.711  16.710  1.1792  0.2675  1.5089
16837TIP3   OH271925   2.391   1.877   4.274  0.6653  0.2191 -0.6131
16837TIP3    H171926   2.406   1.848   4.184 -0.6313  0.5307 -0.9486
16837TIP3    H271927   2.350   1.963   4.265  0.0196  0.0177  0.2570
16838TIP3   OH271928   0.636   6.595   3.090  0.1632  0.1582  0.5582
16838TIP3    H171929   0.669   6.674   3.132  0.2320  1.9839 -2.5705
16838TIP3    H271930   0.710   6.564   3.037 -0.6136 -0.5539 -0.1399
16839TIP3   OH271931   5.545   1.776   0.852 -0.2230 -0.2444  0.6536
16839TIP3    H171932   5.508   1.692   0.825  1.4328 -1.1114  0.9305
16839TIP3    H271933   5.510   1.839   0.789 -1.4595 -1.1363  0.4082
16840TIP3   OH271934   5.678   4.628   5.248  0.1375 -0.6829 -1.3758
16840TIP3    H171935   5.705   4.678   5.171  0.8315 -0.2733 -0.8804
16840TIP3    H271936   5.754   4.574   5.270  0.5171  0.2959 -0.1189
16841TIP3   OH271937   2.879   0.395   6.085  0.3302 -0.4911  0.3593
16841TIP3    H171938   2.906   0.454   6.014 -3.0672 -0.2756 -0.9450
16841TIP3    H271939   2.917   0.310   6.062 -1.2467 -0.5968 -2.2312
16842TIP3   OH271940   4.118   4.327   3.173  0.3509  0.2066 -0.1514
16842TIP3    H171941   4.084   4.382   3.243  0.5643  0.1851 -0.0303
16842TIP3    H271942   4.211   4.314   3.195  1.1296  2.3228 -1.7578
16843TIP3   OH271943   5.423   3.772  11.296 -0.6132 -0.6395  0.0186
16843TIP3    H171944   5.494   3.717  11.263 -0.5982 -0.8263  0.3683
16843TIP3    H271945   5.415   3.841  11.230  0.3608 -0.2163  0.3205
16844TIP3   OH271946   0.641   5.176  13.070  0.0653 -0.0843 -0.4805
16844TIP3    H171947   0.697   5.103  13.042  0.1560 -1.1160  2.0833
16844TIP3    H271948   0.556   5.157  13.030  0.1375 -1.5224 -0.0034
16845TIP3   OH271949   1.469   6.076   5.295  0.1777  0.1110 -0.2888
16845TIP3    H171950   1.386   6.070   5.342  1.6985 -1.6672  2.4115
16845TIP3    H271951   1.482   5.989   5.258 -0.2731  1.0792 -2.9183
16846TIP3   OH271952   0.498   2.721   3.611 -0.0579  0.3226  0.3095
16846TIP3    H171953   0.528   2.640   3.570 -1.7367 -0.5129  0.6452
16846TIP3    H271954   0.470   2.775   3.538 -1.0297 -0.3085  0.1977
16847TIP3   OH271955   1.034   1.973   1.715  0.0406 -0.2126  0.2378
16847TIP3    H171956   0.946   1.996   1.687  0.1282 -2.2223 -1.9602
16847TIP3    H271957   1.092   2.028   1.661  0.1822  0.0111  0.6075
16848TIP3   OH271958   5.644   4.180   3.903  0.7614 -0.0567  0.0470
16848TIP3    H171959   5.680   4.241   3.968 -2.5343 -1.3252  3.4342
16848TIP3    H271960   5.658   4.093   3.943 -1.7441 -0.8726 -0.7066
16849TIP3   OH271961   0.771   5.733   2.239 -0.0420 -0.0439 -0.5691
16849TIP3    H171962   0.863   5.712   2.224  0.6289  2.6938 -0.8589
16849TIP3    H271963   0.749   5.794   2.168 -2.5179 -1.6001 -1.2857
16850TIP3   OH271964   3.603   2.543  12.181 -0.1139 -0.5092 -0.3489
16850TIP3    H171965   3.534   2.483  12.210  0.5868 -1.5507 -0.7656
16850TIP3    H271966   3.557   2.611  12.132 -0.8902 -0.9687 -0.2756
16851TIP3   OH271967   6.712   4.799  14.060  0.5863 -0.1452  0.0670
16851TIP3    H171968   6.695   4.893  14.050 -0.6723 -0.3765 -0.0935
16851TIP3    H271969   6.734   4.769  13.972  0.5262 -0.0915  0.0336
16852TIP3   OH271970   6.781   5.529  10.529 -0.0409 -0.3552 -0.3626
16852TIP3    H171971   6.867   5.488  10.536 -0.0576 -0.2952  0.2961
16852TIP3    H271972   6.744   5.521  10.617 -0.1086  0.9313 -0.2633
16853TIP3   OH271973   0.791   3.277   2.662 -0.0395 -0.5283 -0.3333
16853TIP3    H171974   0.882   3.297   2.681  0.1451 -0.9590 -0.7495
16853TIP3    H271975   0.769   3.203   2.719 -0.5265  0.4005  0.7227
16854TIP3   OH271976   5.091   6.790   2.371  0.4140  0.0303  0.1126
16854TIP3    H171977   5.074   6.705   2.329 -0.1796 -0.3240  1.0262
16854TIP3    H271978   5.052   6.854   2.311  2.0589 -0.1976 -1.2654
16855TIP3   OH271979   4.546   3.128  16.016 -0.4319  0.5409 -0.1176
16855TIP3    H171980   4.616   3.188  15.992 -0.2644  0.6294  0.5759
16855TIP3    H271981   4.474   3.150  15.957 -0.1819  1.0542 -0.2316
16856TIP3   OH271982   1.669   1.072   5.332  0.0823 -0.4223 -0.0902
16856TIP3    H171983   1.756   1.058   5.370  0.4059  2.3046  0.3742
16856TIP3    H271984   1.687   1.108   5.245 -0.5770 -0.2859 -0.1720
16857TIP3   OH271985   4.163   0.889  13.054  0.2658  0.6054 -0.3216
16857TIP3    H171986   4.185   0.946  12.980 -1.2682  1.4578 -0.1426
16857TIP3    H271987   4.069   0.876  13.047  0.5115 -1.6713 -0.1544
16858TIP3   OH271988   6.616   3.663   2.998 -0.4047  0.0912 -0.3728
16858TIP3    H171989   6.708   3.643   2.981 -0.5429 -0.0864 -0.9476
16858TIP3    H271990   6.582   3.585   3.042 -0.2059  0.2886  0.1411
16859TIP3   OH271991   3.335   4.503  13.030  0.3117 -0.0326  0.4715
16859TIP3    H171992   3.388   4.582  13.042 -1.8868  1.7489 -0.6663
16859TIP3    H271993   3.398   4.431  13.034  2.2165  1.5496  3.3706
16860TIP3   OH271994   6.047   4.960  11.466  0.0753 -0.1020 -0.5390
16860TIP3    H171995   6.012   5.031  11.412 -0.0501  1.9976  2.0960
16860TIP3    H271996   5.972   4.904  11.482 -0.5786  0.8454 -0.1901
16861TIP3   OH271997   3.466   0.208   0.472 -0.7481  0.5499 -0.3207
16861TIP3    H171998   3.469   0.152   0.549  1.0550  0.0807 -0.6875
16861TIP3    H271999   3.470   0.297   0.507  1.6656  0.3252  0.1417
16862TIP3   OH272000   5.098   6.162   3.303  0.2738  0.6713  0.2327
16862TIP3    H172001   5.128   6.161   3.394  3.3244  1.2718 -0.6587
16862TIP3    H272002   5.068   6.252   3.289  1.2544  1.0266  0.2840
16863TIP3   OH272003   2.968   6.407  15.530 -0.1000 -0.1079 -0.1779
16863TIP3    H172004   3.030   6.335  15.529 -0.4604 -0.4795 -2.7723
16863TIP3    H272005   2.903   6.384  15.463 -1.2709  1.7522  0.2378
16864TIP3   OH272006   6.613   1.451   2.931 -0.2346 -0.2450 -0.3472
16864TIP3    H172007   6.549   1.401   2.881 -0.5121  0.5035 -0.7582
16864TIP3    H272008   6.562   1.495   2.999  0.1009 -1.0376  0.4330
16865TIP3   OH272009   6.715   3.110   5.971 -0.1739  0.3051 -0.0922
16865TIP3    H172010   6.733   3.188   6.024 -1.0645 -0.8883  2.0824
16865TIP3    H272011   6.697   3.144   5.883 -2.1996  2.7045  1.1519
16866TIP3   OH272012   0.167   1.990  10.892  0.1165 -0.0592 -0.1094
16866TIP3    H172013   0.252   2.021  10.923  0.0742  0.8982 -0.8860
16866TIP3    H272014   0.188   1.935  10.816 -0.0280  3.9311 -3.3961
16867TIP3   OH272015   3.504   4.595   2.711 -0.3278 -0.0217 -0.1590
16867TIP3    H172016   3.460   4.600   2.627  1.5734  2.0963 -1.1426
16867TIP3    H272017   3.581   4.541   2.695 -0.9282 -1.1887  0.7460
16868TIP3   OH272018   2.501   2.871   0.998  0.6741 -0.0298 -0.2119
16868TIP3    H172019   2.408   2.861   0.977  0.3797 -2.1707  1.7071
16868TIP3    H272020   2.502   2.935   1.069  0.2201 -2.2262  1.9155
16869TIP3   OH272021   3.043   4.142   2.140 -0.0471 -0.1607  0.0980
16869TIP3    H172022   3.116   4.176   2.090 -1.1319 -1.2967 -2.4672
16869TIP3    H272023   3.078   4.065   2.185  1.0835  1.1874  1.5820
16870TIP3   OH272024   4.101   5.734  11.577 -0.0285 -0.3523  0.3097
16870TIP3    H172025   4.023   5.733  11.521 -1.5282  0.8629  2.2517
16870TIP3    H272026   4.070   5.769  11.661  2.4296 -0.7133  1.4542
16871TIP3   OH272027   3.842   1.467   3.001 -0.3793  0.1984 -0.0207
16871TIP3    H172028   3.837   1.533   2.932  2.4186  0.0535 -0.5146
16871TIP3    H272029   3.856   1.517   3.082  0.4534  0.2941 -0.2087
16872TIP3   OH272030   6.222   0.435  13.814  0.5073 -0.9018 -0.6376
16872TIP3    H172031   6.276   0.477  13.746  1.8357 -1.5700 -0.0398
16872TIP3    H272032   6.221   0.499  13.886 -0.6673 -0.3127 -1.1517
16873TIP3   OH272033   6.790   5.859  15.099 -0.4045 -0.2665  0.3024
16873TIP3    H172034   6.815   5.791  15.037 -0.3149  1.8188 -2.0834
16873TIP3    H272035   6.861   5.922  15.096 -1.1418  0.6630  1.3497
16874TIP3   OH272036   2.625   6.203  12.665  0.2614 -0.2854  0.0473
16874TIP3    H172037   2.625   6.241  12.753 -0.3209  0.4612 -0.2620
16874TIP3    H272038   2.608   6.110  12.679 -0.6995 -0.0286  0.6888
16875TIP3   OH272039   5.708   2.615  15.857 -0.4557 -0.5514 -0.3499
16875TIP3    H172040   5.634   2.634  15.800 -1.4035 -1.4932  0.5221
16875TIP3    H272041   5.672   2.619  15.945  0.6027 -0.7175  0.1005
16876TIP3   OH272042   4.034   2.056  15.639 -0.1740  0.3804 -0.4501
16876TIP3    H172043   3.940   2.050  15.623  0.0028 -1.1289 -1.0822
16876TIP3    H272044   4.045   2.033  15.731 -0.2154 -2.0986 -1.0196
16877TIP3   OH272045   5.312   4.384   4.437 -0.0463 -0.6327  0.3586
16877TIP3    H172046   5.346   4.385   4.526 -1.0868 -0.1854  0.7583
16877TIP3    H272047   5.223   4.349   4.445 -0.6441  0.6882 -0.3150
16878TIP3   OH272048   6.316   4.956   4.399  0.3149  0.3721 -0.0353
16878TIP3    H172049   6.405   4.946   4.433  0.0033 -0.7784  0.4686
16878TIP3    H272050   6.267   4.883   4.436 -1.5151  2.3872  1.7804
16879TIP3   OH272051   4.363   0.396  16.781 -0.1306 -0.2371 -0.6099
16879TIP3    H172052   4.457   0.394  16.799 -0.0144 -1.5499 -1.2339
16879TIP3    H272053   4.331   0.312  16.814 -1.0630  0.1575 -0.5002
16880TIP3   OH272054   4.961   2.324  10.423 -0.0844  0.0127 -0.3820
16880TIP3    H172055   5.050   2.311  10.390  0.6150 -0.5438  1.6123
16880TIP3    H272056   4.955   2.270  10.501 -2.3110 -0.2223 -0.6379
16881TIP3   OH272057   3.694   1.378   3.296  0.2306 -0.0320  0.1517
16881TIP3    H172058   3.611   1.347   3.334  1.0784 -0.5141  1.6711
16881TIP3    H272059   3.684   1.474   3.294  0.2813  0.0418  1.9512
16882TIP3   OH272060   1.316   6.765  14.346 -0.1413  0.0598 -0.3343
16882TIP3    H172061   1.330   6.683  14.298  0.1013 -0.1041  0.0109
16882TIP3    H272062   1.383   6.764  14.414 -0.1249  0.5580 -0.3426
16883TIP3   OH272063   2.227   6.608  10.328  0.3279 -0.0001  0.1681
16883TIP3    H172064   2.209   6.536  10.268  1.6984 -0.7044  0.5727
16883TIP3    H272065   2.174   6.589  10.406 -1.9943  1.2696 -0.9882
16884TIP3   OH272066   1.755   2.168  16.217  0.2355  0.1706  0.2427
16884TIP3    H172067   1.797   2.180  16.131 -0.6966 -2.1068 -0.6193
16884TIP3    H272068   1.824   2.134  16.273  0.9961  2.2120  0.6023
16885TIP3   OH272069   6.089   6.116  11.531  0.0563 -0.0053 -0.4401
16885TIP3    H172070   6.174   6.141  11.497 -0.2914  1.2899 -0.3868
16885TIP3    H272071   6.027   6.173  11.486 -0.7170 -0.4799  0.0039
16886TIP3   OH272072   2.145   6.038   4.415  0.0602 -0.1238 -0.0141
16886TIP3    H172073   2.214   6.007   4.474 -0.0242  1.2683  0.8612
16886TIP3    H272074   2.090   5.961   4.400  0.6547 -0.7520  0.9167
16887TIP3   OH272075   0.121   0.618  17.045 -0.4362  0.0467  0.4453
16887TIP3    H172076   0.034   0.582  17.058 -0.8617 -0.2107 -2.4657
16887TIP3    H272077   0.179   0.542  17.046 -0.3389  0.1207  1.4598
16888TIP3   OH272078   6.115   4.459   4.783  0.3354  0.1085 -0.1503
16888TIP3    H172079   6.091   4.550   4.802  0.0398 -0.3395  1.8377
16888TIP3    H272080   6.167   4.432   4.858  0.7265 -1.2826 -0.8847
16889TIP3   OH272081   0.879   6.682  13.698 -0.3611 -0.3822  0.4168
16889TIP3    H172082   0.867   6.594  13.661  0.1010  0.1921 -1.2013
16889TIP3    H272083   0.857   6.741  13.626  3.7194  0.7987 -0.1117
16890TIP3   OH272084   3.325   2.581  15.691 -0.4256  0.2389  0.0925
16890TIP3    H172085   3.386   2.515  15.659  0.0683  0.9115 -0.3757
16890TIP3    H272086   3.256   2.584  15.625 -0.6395 -0.0643  0.2994
16891TIP3   OH272087   2.314   4.550   3.538 -0.2289  0.6115  0.3568
16891TIP3    H172088   2.319   4.608   3.613 -0.8753 -1.1143  1.8213
16891TIP3    H272089   2.246   4.587   3.482 -0.1749  1.5811  0.9266
16892TIP3   OH272090   4.599   5.581  12.111 -0.1984 -0.5674  0.1572
16892TIP3    H172091   4.511   5.582  12.073 -0.9181  0.0519  1.7590
16892TIP3    H272092   4.588   5.540  12.197  0.8116  0.7093  0.9355
16893TIP3   OH272093   6.445   2.039  15.160  0.1192 -0.4684 -0.1524
16893TIP3    H172094   6.435   2.075  15.072 -0.8747  0.6897  0.3952
16893TIP3    H272095   6.358   2.049  15.199  0.5188 -1.0703  0.9153
16894TIP3   OH272096   1.283   2.463   6.422  0.6763 -0.0231 -0.7151
16894TIP3    H172097   1.241   2.487   6.504  0.6622 -2.7765  0.1884
16894TIP3    H272098   1.352   2.528   6.411  0.5845  0.5237  1.4048
16895TIP3   OH272099   4.973   6.573  14.920 -0.2611  0.5227 -0.2013
16895TIP3    H172100   4.930   6.493  14.889  1.1219  0.3597 -1.8999
16895TIP3    H272101   4.982   6.627  14.841  0.0277  1.7928  0.6718
16896TIP3   OH272102   5.110   4.661  14.716 -0.5105  0.2335  0.2126
16896TIP3    H172103   5.091   4.568  14.726 -0.5063  0.3451  1.5775
16896TIP3    H272104   5.055   4.704  14.782 -0.0839  1.1371  0.0074
16897TIP3   OH272105   3.238   3.437  12.884 -0.3130 -0.3589 -1.1615
16897TIP3    H172106   3.218   3.350  12.919 -0.4386  0.1674  0.1447
16897TIP3    H272107   3.154   3.484  12.887 -0.1711 -0.0770 -1.5180
16898TIP3   OH272108   5.266   3.687   0.810 -0.8206  0.3105 -0.2087
16898TIP3    H172109   5.256   3.592   0.818  0.9530  0.2437  3.5081
16898TIP3    H272110   5.177   3.720   0.800 -1.4583 -1.6824 -1.9071
16899TIP3   OH272111   2.428   0.484  15.659 -0.2041 -0.2078 -0.5005
16899TIP3    H172112   2.417   0.514  15.568 -0.2949  0.5733 -0.2358
16899TIP3    H272113   2.511   0.522  15.687  0.4003 -1.3877 -0.6168
16900TIP3   OH272114   0.976   3.753  14.686 -0.4844  0.2869  0.5306
16900TIP3    H172115   0.996   3.662  14.709  0.2985  0.6282  1.2408
16900TIP3    H272116   1.008   3.805  14.760 -1.5745  1.0976  0.4659
16901TIP3   OH272117   5.090   6.231  14.439 -0.1530 -0.0326  0.5026
16901TIP3    H172118   5.097   6.284  14.518  0.0578  0.8480 -0.0966
16901TIP3    H272119   5.124   6.287  14.369 -1.3654 -0.3777 -0.3948
16902TIP3   OH272120   6.430   5.248   4.942 -0.7296 -0.6802  0.9873
16902TIP3    H172121   6.497   5.312   4.965 -0.5265 -0.8259  0.8103
16902TIP3    H272122   6.354   5.300   4.916 -0.9424 -0.5110  1.9115
16903TIP3   OH272123   4.920   6.520   3.795  0.3571 -0.2130  0.1606
16903TIP3    H172124   4.994   6.460   3.782 -0.3749 -0.8760 -1.1199
16903TIP3    H272125   4.891   6.502   3.884 -1.0689 -3.2584 -0.7810
16904TIP3   OH272126   0.654   2.326  11.735  0.0308  0.2420  0.5228
16904TIP3    H172127   0.608   2.257  11.687 -0.4718  0.3168  0.8891
16904TIP3    H272128   0.742   2.290  11.749 -0.0425 -0.0754  0.1801
16905TIP3   OH272129   0.259   0.930   4.654 -0.2771  0.3677 -0.3663
16905TIP3    H172130   0.310   0.988   4.597 -0.7727  0.7386 -0.4350
16905TIP3    H272131   0.291   0.842   4.634  1.4842  0.7111  0.7305
16906TIP3   OH272132   4.018   2.272  11.733 -0.1167 -0.1698  0.2834
16906TIP3    H172133   4.048   2.230  11.653 -0.7010  0.0424 -0.0501
16906TIP3    H272134   4.054   2.218  11.804 -0.9281 -1.2826 -0.1311
16907TIP3   OH272135   2.937   1.704   4.528  0.0432 -0.0017 -0.0285
16907TIP3    H172136   2.942   1.630   4.588 -0.4245  0.1387  0.1902
16907TIP3    H272137   3.012   1.759   4.552 -0.2574  0.1594  0.5778
16908TIP3   OH272138   2.371   2.823  14.817 -0.5210 -0.1718 -0.0859
16908TIP3    H172139   2.313   2.747  14.814  0.5367 -0.9957 -0.3452
16908TIP3    H272140   2.412   2.826  14.731  1.3909 -0.9152  0.7271
16909TIP3   OH272141   0.188   3.498  13.892  0.1315  0.1575 -0.2521
16909TIP3    H172142   0.253   3.429  13.897  2.1300  2.0162  1.7912
16909TIP3    H272143   0.112   3.463  13.939  0.4981 -1.2049 -0.6349
16910TIP3   OH272144   4.338   5.286   5.406  0.1959  0.3658  0.3209
16910TIP3    H172145   4.352   5.225   5.334  0.7966  0.1551  0.6113
16910TIP3    H272146   4.249   5.320   5.392  0.4681  0.6640 -0.7681
16911TIP3   OH272147   5.683   5.728   0.348  0.1378 -0.1555 -0.4994
16911TIP3    H172148   5.592   5.749   0.369  0.5185  1.8004 -0.6132
16911TIP3    H272149   5.685   5.725   0.252  0.0116 -1.2208 -0.4833
16912TIP3   OH272150   0.545   1.558   3.924 -0.0676  0.4304 -0.0405
16912TIP3    H172151   0.622   1.524   3.880 -0.3349  2.8517 -2.6742
16912TIP3    H272152   0.579   1.606   4.000  0.8671  0.0881 -0.2343
16913TIP3   OH272153   6.608   1.931   1.233  0.4494  0.2127  0.0683
16913TIP3    H172154   6.560   2.013   1.219 -0.4617 -0.4583 -0.9819
16913TIP3    H272155   6.556   1.865   1.185  2.2081 -0.6212 -0.7849
16914TIP3   OH272156   3.088   4.849  12.804 -0.5777 -0.0547  0.4726
16914TIP3    H172157   3.015   4.903  12.775 -0.9286 -0.7473  0.0339
16914TIP3    H272158   3.075   4.839  12.898 -0.9118  0.0196  0.4341
16915TIP3   OH272159   3.165   3.813   0.086 -1.0876 -0.2236 -0.0286
16915TIP3    H172160   3.232   3.772   0.031 -0.4326  0.7517  0.0155
16915TIP3    H272161   3.209   3.888   0.126 -1.9835 -0.0311  0.6362
16916TIP3   OH272162   4.929   5.577   5.784 -0.7518  0.3062 -0.1452
16916TIP3    H172163   4.998   5.540   5.728 -1.5340 -0.1893 -0.8111
16916TIP3    H272164   4.962   5.565   5.873 -0.2414 -0.4859 -0.4238
16917TIP3   OH272165   2.258   5.897   0.128  0.2344 -0.3040  0.3153
16917TIP3    H172166   2.344   5.862   0.107  0.2502 -0.2243  0.2473
16917TIP3    H272167   2.255   5.898   0.224  0.5299  0.2331  0.3207
16918TIP3   OH272168   2.520   2.830   0.023  0.0798  0.1748 -0.2609
16918TIP3    H172169   2.554   2.914   0.053  3.0430 -1.0155  0.0338
16918TIP3    H272170   2.549   2.823  -0.068 -1.5586  0.1163 -0.8210
16919TIP3   OH272171   5.653   4.426   5.797  0.0959  0.0475 -0.8281
16919TIP3    H172172   5.700   4.346   5.822  0.7421  0.4899 -0.6144
16919TIP3    H272173   5.599   4.446   5.874  0.4426  0.1892 -0.6181
16920TIP3   OH272174   1.609   1.671  13.799  0.3320 -0.2525 -0.0782
16920TIP3    H172175   1.650   1.587  13.776  1.2743  0.3789 -0.7897
16920TIP3    H272176   1.659   1.736  13.750 -1.7409  0.5483 -1.2560
16921TIP3   OH272177   0.251   2.716   2.378  0.2518 -0.1240  0.1998
16921TIP3    H172178   0.307   2.666   2.319  0.5686 -1.1161  1.3151
16921TIP3    H272179   0.246   2.664   2.458 -1.0383  0.6745  0.6805
16922TIP3   OH272180   4.496   4.752  15.934  0.0871 -0.3948  0.0156
16922TIP3    H172181   4.512   4.846  15.933 -0.0094 -0.3769 -1.6222
16922TIP3    H272182   4.512   4.726  16.025  3.6321  0.5918 -0.1693
16923TIP3   OH272183   0.636   1.179  16.946  0.4509 -0.2524  0.3826
16923TIP3    H172184   0.548   1.216  16.946  0.1427 -0.9038  1.7829
16923TIP3    H272185   0.657   1.168  17.039  3.7034  3.7704  0.4137
16924TIP3   OH272186   3.061   2.817  10.557  0.1616  0.3775 -0.4255
16924TIP3    H172187   3.057   2.734  10.509  2.4786  0.5935 -1.1520
16924TIP3    H272188   2.970   2.844  10.566 -0.5126 -0.8769 -2.6426
16925TIP3   OH272189   4.038   6.505   1.201  0.1413  0.2847 -0.4259
16925TIP3    H172190   3.972   6.559   1.246 -0.2631 -1.2634  0.9419
16925TIP3    H272191   4.104   6.488   1.268  0.1384 -1.1041 -0.7542
16926TIP3   OH272192   3.509   5.792   4.044 -0.4335 -0.0176  0.1298
16926TIP3    H172193   3.537   5.734   4.115  0.2173 -0.1473 -0.2255
16926TIP3    H272194   3.489   5.734   3.971  2.3417  0.2641 -0.9632
16927TIP3   OH272195   6.149   6.603   4.235  0.5620  0.2913 -0.2985
16927TIP3    H172196   6.189   6.581   4.151 -1.3270  1.1141 -1.4839
16927TIP3    H272197   6.174   6.694   4.251  2.5454 -0.4298  1.0791
16928TIP3   OH272198   5.383   4.720  16.029  0.0940 -0.3852  0.2752
16928TIP3    H172199   5.371   4.722  16.124  0.3327  0.5684  0.2929
16928TIP3    H272200   5.412   4.631  16.011  2.5691  0.1037  1.4187
16929TIP3   OH272201   1.868   1.389   0.494  0.2305  0.0659 -0.1872
16929TIP3    H172202   1.780   1.354   0.508  0.0756 -0.0171 -1.2607
16929TIP3    H272203   1.927   1.317   0.518  0.0065  0.0404  0.3028
16930TIP3   OH272204   5.717   0.381   4.727 -0.0109  0.6751 -0.2426
16930TIP3    H172205   5.748   0.321   4.794 -1.9131  1.1029  1.0901
16930TIP3    H272206   5.758   0.464   4.749 -1.7338  1.1678  1.3294
16931TIP3   OH272207   0.202   2.378   4.622  0.0809 -0.3653 -0.7118
16931TIP3    H172208   0.149   2.433   4.565 -1.1282 -1.8001 -1.0482
16931TIP3    H272209   0.285   2.425   4.631 -0.7648  1.3115 -1.2363
16932TIP3   OH272210   2.739   2.570  17.064  0.3788 -0.4442  0.0325
16932TIP3    H172211   2.739   2.481  17.099  0.6860 -0.0056  1.2173
16932TIP3    H272212   2.728   2.559  16.970  0.8564 -1.7514  0.1075
16933TIP3   OH272213   0.786   4.547   0.781  0.3931  0.7027  0.3672
16933TIP3    H172214   0.764   4.457   0.756  0.2408  0.5874  0.9046
16933TIP3    H272215   0.706   4.582   0.820  0.3847  1.1497 -0.0420
16934TIP3   OH272216   5.970   4.194  12.806 -0.2687 -0.4555  0.8122
16934TIP3    H172217   6.031   4.210  12.734 -0.4907 -0.7206  0.5624
16934TIP3    H272218   6.016   4.226  12.884  0.0372 -0.3151  0.5747
16935TIP3   OH272219   1.706   6.256   1.034 -0.4833 -0.3976 -0.0636
16935TIP3    H172220   1.680   6.275   0.944  0.7843  2.2993  0.0378
16935TIP3    H272221   1.629   6.274   1.086 -1.0111 -1.2825 -0.5084
16936TIP3   OH272222   5.083   5.873   4.372  0.4248 -0.1149 -0.3931
16936TIP3    H172223   5.038   5.833   4.297  1.2676 -1.7149 -0.1001
16936TIP3    H272224   5.043   5.833   4.449  0.8629  0.0687 -0.0635
16937TIP3   OH272225   1.257   6.436  12.083 -0.6680  0.9710  0.2464
16937TIP3    H172226   1.341   6.465  12.118 -1.8802  1.1763  3.2252
16937TIP3    H272227   1.255   6.342  12.099  0.2767  0.2780 -2.9118
16938TIP3   OH272228   5.432   3.527   4.347  0.1839  0.3482  0.2291
16938TIP3    H172229   5.425   3.542   4.441  0.4728  2.0808  0.0077
16938TIP3    H272230   5.523   3.547   4.325  0.3707 -0.9552 -0.2939
16939TIP3   OH272231   2.929   1.329   0.548 -0.1177  0.5857  0.2315
16939TIP3    H172232   2.982   1.397   0.508  0.0341  1.0011  1.1286
16939TIP3    H272233   2.839   1.353   0.527 -0.1296  1.5968  1.3230
16940TIP3   OH272234   0.550   4.181   1.837 -0.1610  0.2321  0.3422
16940TIP3    H172235   0.594   4.118   1.780 -0.5839 -0.9656  1.2943
16940TIP3    H272236   0.563   4.265   1.794 -1.6544 -0.7519 -2.3088
16941TIP3   OH272237   4.805   2.508   0.837 -0.4888  0.2091  0.6288
16941TIP3    H172238   4.897   2.529   0.851  0.2081 -2.6774  1.1935
16941TIP3    H272239   4.799   2.484   0.744 -0.8050  0.9320  0.4596
16942TIP3   OH272240   4.878   5.235   0.691  0.2905  0.1568  0.3412
16942TIP3    H172241   4.906   5.239   0.600 -1.6848 -0.4664 -0.3629
16942TIP3    H272242   4.808   5.300   0.697 -2.1481 -2.2637  0.3445
16943TIP3   OH272243   6.238   2.455  13.911 -0.4187 -0.3468  0.4454
16943TIP3    H172244   6.323   2.440  13.951  0.3832 -0.9559 -1.3467
16943TIP3    H272245   6.226   2.381  13.851 -1.1737  0.8494 -0.9801
16944TIP3   OH272246   4.349   1.699   5.832 -0.4939 -0.0589  0.4135
16944TIP3    H172247   4.314   1.620   5.791 -0.4540  0.2384 -0.2085
16944TIP3    H272248   4.430   1.670   5.875 -0.4830 -0.3543  0.1942
16945TIP3   OH272249   0.147   4.934  16.170 -0.1223 -0.0958 -0.4315
16945TIP3    H172250   0.123   5.023  16.198 -1.2619 -0.4918 -0.0821
16945TIP3    H272251   0.217   4.908  16.230  0.3560  0.6322 -0.6604
16946TIP3   OH272252   2.851   3.936  16.419 -0.4378 -0.2018  0.1216
16946TIP3    H172253   2.897   3.970  16.343 -0.4263  2.0856  1.0600
16946TIP3    H272254   2.920   3.905  16.477 -0.3240 -0.2271 -0.0295
16947TIP3   OH272255   0.572   1.497   2.060 -0.3848  0.0499  0.5861
16947TIP3    H172256   0.647   1.537   2.105  0.4234 -0.4157 -0.3189
16947TIP3    H272257   0.611   1.445   1.990 -1.6005  0.5796 -0.5241
16948TIP3   OH272258   4.071   4.778  13.372 -0.5231  0.6488  0.2047
16948TIP3    H172259   4.015   4.728  13.431  0.0229 -2.5187 -1.7075
16948TIP3    H272260   4.010   4.820  13.311 -1.0844 -2.4986 -1.6584
16949TIP3   OH272261   5.302   4.085   4.154 -0.4066 -0.0865 -0.3629
16949TIP3    H172262   5.280   4.144   4.082  0.8424 -0.0904 -0.7702
16949TIP3    H272263   5.370   4.132   4.204  0.1642 -0.9080 -0.3435
16950TIP3   OH272264   3.136   4.195  15.095 -0.2135  0.0992  0.2466
16950TIP3    H172265   3.122   4.272  15.040  0.3854  1.5771  2.0698
16950TIP3    H272266   3.230   4.195  15.112  0.0653 -1.9864 -0.9862
16951TIP3   OH272267   2.105   6.532  12.286 -0.0440 -0.3018  0.3693
16951TIP3    H172268   2.164   6.602  12.313  0.3515 -0.6659  0.4527
16951TIP3    H272269   2.162   6.464  12.250 -0.5479  0.1908 -1.4774
16952TIP3   OH272270   3.290   6.779   4.088  0.7038 -0.6047 -0.9328
16952TIP3    H172271   3.305   6.699   4.039  0.1850 -1.7653  0.7105
16952TIP3    H272272   3.221   6.756   4.151  0.7804  1.0346 -0.1985
16953TIP3   OH272273   1.759   4.681   4.776 -0.2087 -0.8156 -0.2408
16953TIP3    H172274   1.846   4.709   4.805  0.7106 -0.1458 -3.2859
16953TIP3    H272275   1.762   4.586   4.777  0.8551 -0.8009 -1.0100
16954TIP3   OH272276   5.750   0.799  10.420 -0.2046  0.2686  0.5267
16954TIP3    H172277   5.804   0.735  10.467  0.3688  0.8892  0.7319
16954TIP3    H272278   5.678   0.748  10.383 -0.3818 -0.3177  1.6462
16955TIP3   OH272279   4.840   1.485  13.175 -0.0133  0.0872  0.1050
16955TIP3    H172280   4.868   1.519  13.091 -1.4869  1.3275  0.0659
16955TIP3    H272281   4.768   1.426  13.154  0.5915 -0.7780  0.4038
16956TIP3   OH272282   4.303   4.018  11.048  0.2825 -0.3409 -0.5133
16956TIP3    H172283   4.350   4.101  11.056  0.7246 -0.4802 -1.4696
16956TIP3    H272284   4.244   4.031  10.974 -1.1972 -0.1892  0.6336
16957TIP3   OH272285   6.261   2.206   6.130  0.3892  0.2817 -0.3760
16957TIP3    H172286   6.342   2.243   6.164 -0.6204  1.5645  0.7494
16957TIP3    H272287   6.217   2.170   6.208 -1.5514  2.4644 -0.3489
16958TIP3   OH272288   1.414   4.227   0.279  0.2150  0.0594 -0.1171
16958TIP3    H172289   1.440   4.226   0.371  0.3501 -0.1687 -0.1575
16958TIP3    H272290   1.323   4.196   0.279  0.0313  0.5925 -0.0039
16959TIP3   OH272291   2.850   0.419   4.184  0.1702  0.2500  1.2712
16959TIP3    H172292   2.776   0.424   4.244 -2.5128 -3.0445 -1.3534
16959TIP3    H272293   2.881   0.328   4.192  1.6109  0.5574 -0.2305
16960TIP3   OH272294   5.231   6.097   2.295  0.0619 -0.1286 -0.1284
16960TIP3    H172295   5.222   6.134   2.382 -0.2413 -0.3336 -0.0729
16960TIP3    H272296   5.185   6.014   2.299  1.5702 -0.9862  0.0304
16961TIP3   OH272297   3.116   6.139  12.375  0.4136 -0.5319  0.2892
16961TIP3    H172298   3.120   6.047  12.402  1.2634 -0.0525  1.9425
16961TIP3    H272299   3.204   6.173  12.394  0.4448  0.3653 -1.3239
16962TIP3   OH272300   1.250   3.286   4.838  0.0210 -0.2360 -0.3859
16962TIP3    H172301   1.289   3.373   4.840 -0.3912 -0.0612  0.7088
16962TIP3    H272302   1.244   3.260   4.930  0.5238 -1.6029 -0.7194
16963TIP3   OH272303   2.457   3.759  15.211 -0.1250  0.8730  0.6587
16963TIP3    H172304   2.395   3.702  15.256 -0.2668  1.0854  0.7352
16963TIP3    H272305   2.431   3.848  15.238 -2.4811  1.3245 -2.5308
16964TIP3   OH272306   3.834   1.549  15.739  0.1195 -0.5023 -0.2214
16964TIP3    H172307   3.910   1.518  15.689  0.6103 -0.7316  0.6465
16964TIP3    H272308   3.765   1.485  15.719  0.9919 -1.9504  1.1996
16965TIP3   OH272309   3.132   5.938  14.211  0.7002  0.4758  0.1828
16965TIP3    H172310   3.184   6.018  14.206 -0.7172  1.3399 -2.8054
16965TIP3    H272311   3.113   5.928  14.304  0.9890  3.5829  0.6949
16966TIP3   OH272312   5.742   5.813   1.062 -0.5533 -0.1322  0.1459
16966TIP3    H172313   5.756   5.737   1.005 -0.6472 -2.5422  3.0825
16966TIP3    H272314   5.647   5.819   1.070 -0.5444  0.2868 -0.0495
16967TIP3   OH272315   4.534   5.698   6.576  0.0803  0.2295 -0.5047
16967TIP3    H172316   4.515   5.791   6.587  1.0825  0.2970  0.8634
16967TIP3    H272317   4.519   5.682   6.483 -0.4650  1.6657 -0.6929
16968TIP3   OH272318   5.097   3.817  16.510 -0.2294  0.0174 -0.1478
16968TIP3    H172319   5.129   3.727  16.509 -0.2023  0.0199  0.4926
16968TIP3    H272320   5.007   3.811  16.477 -0.5640 -0.3776  0.8228
16969TIP3   OH272321   4.302   2.400   3.036  0.6364  0.3010  0.1216
16969TIP3    H172322   4.250   2.481   3.034  0.9698  0.5862  1.8314
16969TIP3    H272323   4.297   2.367   2.946 -2.2085  0.4887  0.1393
16970TIP3   OH272324   6.329   1.015   1.622  0.0014  0.1629  0.2104
16970TIP3    H172325   6.253   0.965   1.653  0.6642  0.1583  1.9121
16970TIP3    H272326   6.361   0.966   1.546 -2.0624  0.5266 -0.9723
16971TIP3   OH272327   0.575   4.684   3.707  0.0877 -0.2600 -0.2749
16971TIP3    H172328   0.485   4.705   3.684  0.1399  0.8766  0.4567
16971TIP3    H272329   0.589   4.595   3.675 -1.5497 -0.7723  0.3520
16972TIP3   OH272330   1.443   3.468   1.840  0.3447  0.0923 -0.3016
16972TIP3    H172331   1.394   3.497   1.917  0.2112 -0.3223 -0.2263
16972TIP3    H272332   1.525   3.518   1.844  0.8106 -0.7043  0.7133
16973TIP3   OH272333   0.859   0.561  11.476  0.5124 -0.2449 -0.1412
16973TIP3    H172334   0.904   0.603  11.549 -1.2912  0.9482  0.3310
16973TIP3    H272335   0.921   0.567  11.403  0.4960  2.9958 -0.0163
16974TIP3   OH272336   4.166   2.705  15.520 -0.4140 -0.4307  0.0807
16974TIP3    H172337   4.143   2.615  15.541 -1.1495 -0.1063  0.7180
16974TIP3    H272338   4.170   2.708  15.425 -0.7726 -1.0425  0.0425
16975TIP3   OH272339   4.108   1.162   6.584 -0.3307  0.3356  0.0859
16975TIP3    H172340   4.129   1.251   6.555  0.3999  0.0684 -0.2296
16975TIP3    H272341   4.131   1.106   6.509 -2.5257  0.0333 -0.4356
16976TIP3   OH272342   5.137   3.830  13.006  0.0362  0.2903 -0.4811
16976TIP3    H172343   5.118   3.914  13.047 -0.2847  1.3548 -2.6731
16976TIP3    H272344   5.225   3.807  13.038 -1.2481 -0.3730  2.8960
16977TIP3   OH272345   6.067   4.734   0.008 -0.1148 -0.0830 -0.4439
16977TIP3    H172346   6.010   4.756  -0.066  0.0746 -1.3351 -0.9925
16977TIP3    H272347   6.133   4.803   0.009  1.1545 -1.1417 -2.8272
16978TIP3   OH272348   2.644   2.682  11.516  0.2587 -0.4663 -0.0201
16978TIP3    H172349   2.713   2.641  11.569  0.0531 -0.9500 -0.1202
16978TIP3    H272350   2.669   2.661  11.425 -0.2714 -1.0588 -0.0378
16979TIP3   OH272351   3.742   3.801   1.679 -0.3356 -0.6521 -0.3636
16979TIP3    H172352   3.701   3.880   1.715 -0.7173 -0.5074 -1.0789
16979TIP3    H272353   3.678   3.768   1.616 -0.2347 -1.6198  0.0293
16980TIP3   OH272354   0.649   4.914  13.307 -0.1185  0.2265 -0.0002
16980TIP3    H172355   0.657   4.824  13.338  3.2471  0.0588 -0.9849
16980TIP3    H272356   0.645   4.907  13.212 -1.4260  1.1066 -0.0474
16981TIP3   OH272357   5.025   5.203  11.408 -0.0128 -0.0850  0.2309
16981TIP3    H172358   4.951   5.214  11.468  0.1988 -0.8588  0.6431
16981TIP3    H272359   5.006   5.263  11.335 -0.1754  1.0321  1.1517
16982TIP3   OH272360   4.095   4.042   3.153 -0.0269 -0.1173 -0.4820
16982TIP3    H172361   4.121   4.134   3.154  1.8425 -0.6083  0.2734
16982TIP3    H272362   4.178   3.993   3.152 -0.9116 -1.8041  1.3796
16983TIP3   OH272363   4.743   4.879   5.270  0.3759  0.6374  0.0502
16983TIP3    H172364   4.773   4.901   5.358  0.0916 -0.9294  0.5811
16983TIP3    H272365   4.657   4.839   5.283 -0.1467  1.3548 -1.0546
16984TIP3   OH272366   5.948   2.294  14.714  0.0090 -0.2142 -0.1402
16984TIP3    H172367   5.858   2.311  14.743 -0.2255 -0.7104 -0.5667
16984TIP3    H272368   5.980   2.226  14.773  1.0900  1.8619  1.8381
16985TIP3   OH272369   4.118   2.993  17.009 -0.5656  0.3494  0.0900
16985TIP3    H172370   4.096   3.029  17.095 -1.8271  0.0773 -0.1064
16985TIP3    H272371   4.151   3.069  16.959  1.0001  0.3476  1.0530
16986TIP3   OH272372   3.423   1.749   2.030  0.0181 -0.6116  0.2559
16986TIP3    H172373   3.413   1.656   2.051 -1.2665 -0.4481  0.4896
16986TIP3    H272374   3.334   1.778   2.008  0.3610  0.6203  0.4212
16987TIP3   OH272375   2.988   4.210  12.953 -0.0145 -0.0401  0.1411
16987TIP3    H172376   3.007   4.122  12.987 -2.9377 -0.4856  0.9403
16987TIP3    H272377   2.900   4.203  12.916  0.1178  2.3110 -0.8133
16988TIP3   OH272378   6.061   1.125  12.660  0.1234  0.0024  0.6404
16988TIP3    H172379   6.085   1.162  12.745 -0.7904 -0.4391  1.1109
16988TIP3    H272380   5.970   1.098  12.671 -1.3299  3.3063 -1.6066
16989TIP3   OH272381   6.248   2.321  14.591  0.3370 -0.0583  0.2890
16989TIP3    H172382   6.196   2.244  14.612  1.9441 -1.7303 -1.4417
16989TIP3    H272383   6.199   2.394  14.629 -1.6492 -1.8173  1.3388
16990TIP3   OH272384   3.627   4.522  14.348  0.1321 -0.5479 -1.0187
16990TIP3    H172385   3.636   4.434  14.385  0.4314 -0.8933 -1.8940
16990TIP3    H272386   3.704   4.569  14.380  0.3285 -0.8064 -1.1051
16991TIP3   OH272387   5.896   6.165   2.386 -0.1034 -0.1370  0.5481
16991TIP3    H172388   5.852   6.081   2.398  0.8206 -0.5609  1.1007
16991TIP3    H272389   5.861   6.199   2.304  0.6990 -1.8464 -0.5782
16992TIP3   OH272390   0.725   3.613  14.189  0.1613  0.1099  0.8623
16992TIP3    H172391   0.681   3.696  14.171 -0.2687 -0.1195  0.8545
16992TIP3    H272392   0.705   3.595  14.281  0.6678  0.2588  1.0082
16993TIP3   OH272393   5.332   6.134   5.685  0.0527  0.5668 -0.0429
16993TIP3    H172394   5.251   6.104   5.641  0.6370 -0.8698 -0.2055
16993TIP3    H272395   5.315   6.120   5.778  0.6094 -1.1652 -0.1573
16994TIP3   OH272396   1.579   5.515   0.318  0.1398  0.2804  0.1832
16994TIP3    H172397   1.579   5.531   0.224 -0.0388 -0.8412 -0.0216
16994TIP3    H272398   1.487   5.523   0.344  0.1989  0.6593  0.2718
16995TIP3   OH272399   3.337   3.269   4.107 -0.3766  0.5656 -0.2464
16995TIP3    H172400   3.389   3.250   4.185  2.3343  1.2798 -1.7275
16995TIP3    H272401   3.281   3.193   4.096  1.9338 -1.3471  0.3229
16996TIP3   OH272402   6.524   1.291  13.647 -0.2054 -0.8620  0.0026
16996TIP3    H172403   6.565   1.217  13.693 -1.4312 -2.1698 -0.9021
16996TIP3    H272404   6.597   1.346  13.619  0.7355 -1.6375  0.8600
16997TIP3   OH272405   6.251   5.468   5.561 -0.5398 -0.3091 -0.1880
16997TIP3    H172406   6.256   5.415   5.482 -1.8651 -0.9238  0.1142
16997TIP3    H272407   6.187   5.423   5.616  1.7822 -1.0589  2.1143
16998TIP3   OH272408   6.607   4.547  15.646 -0.3438 -0.5291  0.1501
16998TIP3    H172409   6.603   4.453  15.661  1.2632 -0.5268  0.8461
16998TIP3    H272410   6.616   4.584  15.734 -0.0815  0.2017 -0.1784
16999TIP3   OH272411   3.068   1.853   5.224 -0.1369 -0.0135  0.2421
16999TIP3    H172412   3.101   1.771   5.261  0.3987  1.0336  2.2311
16999TIP3    H272413   3.030   1.899   5.299  1.3814  2.4128 -0.3694
17000TIP3   OH272414   5.123   6.448   3.300 -0.9013  0.7084 -0.1313
17000TIP3    H172415   5.177   6.488   3.232 -0.0375 -4.9867 -3.4770
17000TIP3    H272416   5.186   6.404   3.358 -1.7864  0.4047  0.6341
17001TIP3   OH272417   6.180   4.613   6.004  0.3213  0.8298  0.0387
17001TIP3    H172418   6.127   4.542   5.968 -0.6988  2.4323 -1.8697
17001TIP3    H272419   6.260   4.612   5.951  0.5406  0.7714  0.3691
17002TIP3   OH272420   1.092   2.792   3.305 -0.3704  0.1337 -0.3158
17002TIP3    H172421   1.004   2.792   3.342 -0.4877  2.6241 -0.4224
17002TIP3    H272422   1.145   2.839   3.369  0.7373 -0.6142 -0.6384
17003TIP3   OH272423   3.309   5.687   5.813  0.7549 -0.8704 -0.0349
17003TIP3    H172424   3.220   5.705   5.844 -0.0247 -1.8780 -1.5778
17003TIP3    H272425   3.350   5.638   5.884  0.5257  0.6599  1.2123
17004TIP3   OH272426   1.906   5.581   3.366 -0.2037 -0.1670 -0.2023
17004TIP3    H172427   1.867   5.632   3.437 -1.1061 -0.3555 -0.5574
17004TIP3    H272428   1.915   5.493   3.402  1.4872  0.2260  0.4618
17005TIP3   OH272429   5.714   4.517  16.031 -0.1844 -0.3867 -0.0827
17005TIP3    H172430   5.692   4.426  16.048 -0.6833 -0.2678 -0.0677
17005TIP3    H272431   5.739   4.519  15.938 -0.4037 -0.4996 -0.1460
17006TIP3   OH272432   5.465   1.600  16.848 -0.7633 -0.2604  0.3848
17006TIP3    H172433   5.521   1.630  16.776  0.8875  1.5926  2.3072
17006TIP3    H272434   5.394   1.552  16.805  0.8634 -0.4202 -2.3512
17007TIP3   OH272435   3.486   6.126   3.585  0.6415 -0.4293 -0.5251
17007TIP3    H172436   3.438   6.056   3.540 -1.2716 -0.7402  1.8197
17007TIP3    H272437   3.577   6.098   3.583  0.1281 -2.1675 -1.0806
17008TIP3   OH272438   3.580   5.612   5.396  0.2248  0.5855 -0.0967
17008TIP3    H172439   3.521   5.600   5.322  0.2642  1.7397 -0.3337
17008TIP3    H272440   3.638   5.683   5.370  2.4418 -1.1630 -0.3127
17009TIP3   OH272441   6.161   6.228  14.848  0.3931  0.4927 -0.1686
17009TIP3    H172442   6.110   6.165  14.900  2.3219 -1.8640 -0.9181
17009TIP3    H272443   6.230   6.258  14.907  0.0751  1.1511 -0.1221
17010TIP3   OH272444   5.605   5.357  11.788  1.0190  0.1803 -0.0541
17010TIP3    H172445   5.681   5.307  11.758  0.5469 -0.1815 -0.6650
17010TIP3    H272446   5.536   5.335  11.726  0.2217 -0.0092  0.8797
17011TIP3   OH272447   0.339   6.644   1.424  0.0715  0.0014 -0.2294
17011TIP3    H172448   0.323   6.577   1.358  1.8325  2.7304 -3.7483
17011TIP3    H272449   0.428   6.626   1.455 -0.0336 -0.1707 -0.0271
17012TIP3   OH272450   1.846   5.990   1.916 -0.1623  0.1388  0.6952
17012TIP3    H172451   1.816   6.077   1.890 -1.7314 -0.8787 -1.1643
17012TIP3    H272452   1.848   5.940   1.834  1.7995 -1.2894  1.5421
17013TIP3   OH272453   0.581   4.487   3.954 -0.1352 -0.5200  0.2444
17013TIP3    H172454   0.494   4.504   3.919 -0.0098 -0.1999  0.0932
17013TIP3    H272455   0.629   4.447   3.881 -0.2048 -0.8478  0.3767
17014TIP3   OH272456   5.906   4.744   4.527  0.1356  0.2509 -0.4902
17014TIP3    H172457   5.944   4.669   4.482 -0.2375 -0.3994  0.2566
17014TIP3    H272458   5.906   4.814   4.461  1.3802 -0.1137 -0.8899
17015TIP3   OH272459   2.955   6.481   5.245  0.5559 -0.0869 -0.7923
17015TIP3    H172460   3.045   6.449   5.247  0.4067 -0.4771  0.2909
17015TIP3    H272461   2.901   6.404   5.258 -0.0716 -0.1868 -3.4518
17016TIP3   OH272462   2.456   5.884   1.993 -0.5922 -0.3370 -0.0248
17016TIP3    H172463   2.437   5.913   1.904 -1.2457 -1.2795 -0.2001
17016TIP3    H272464   2.460   5.965   2.044 -0.5902  0.1843 -0.8275
17017TIP3   OH272465   4.055   5.176   1.929  0.2960  0.3772  0.0900
17017TIP3    H172466   4.048   5.093   1.977  1.1531  1.0435  1.4400
17017TIP3    H272467   3.967   5.214   1.933 -0.5634 -1.2148 -2.0528
17018TIP3   OH272468   4.676   0.277  11.504 -0.6683 -0.4448  0.1342
17018TIP3    H172469   4.592   0.243  11.475 -1.0814 -0.4320  1.2628
17018TIP3    H272470   4.712   0.209  11.561  0.2392 -0.5830 -0.5699
17019TIP3   OH272471   6.773   0.744  15.592  0.3254  0.2607  0.5684
17019TIP3    H172472   6.746   0.802  15.663  0.9172 -0.5570  1.4886
17019TIP3    H272473   6.832   0.798  15.539  0.9094  0.5086  1.4407
17020TIP3   OH272474   3.660   4.966   2.108 -0.6457  0.3760 -0.1855
17020TIP3    H172475   3.643   5.007   2.023  1.0888  1.7200  0.0358
17020TIP3    H272476   3.738   4.913   2.093 -2.1766 -2.0121 -0.1564
17021TIP3   OH272477   3.929   1.219  14.862  0.2957  0.3566 -0.1215
17021TIP3    H172478   3.926   1.123  14.861 -3.6209  0.2716  1.0561
17021TIP3    H272479   3.928   1.244  14.769 -1.0601 -0.8465 -0.4705
17022TIP3   OH272480   2.819   3.428   1.712  0.1700  0.4380  0.2640
17022TIP3    H172481   2.731   3.466   1.723  0.0359  0.7700 -1.6248
17022TIP3    H272482   2.845   3.453   1.623  1.3776 -1.3150  0.0715
17023TIP3   OH272483   1.842   6.357  13.166  0.0711  0.2913  0.1374
17023TIP3    H172484   1.902   6.403  13.225  0.2074  0.3974 -0.0873
17023TIP3    H272485   1.894   6.334  13.090 -0.0177 -0.1712  0.2162
17024TIP3   OH272486   2.922   3.120  16.216 -0.7148  0.2101 -0.3131
17024TIP3    H172487   3.000   3.170  16.192  0.0908 -0.6550  0.4248
17024TIP3    H272488   2.911   3.137  16.309 -1.5015  0.4387 -0.4472
17025TIP3   OH272489   1.400   5.953  13.264  0.7307 -0.1126 -0.6461
17025TIP3    H172490   1.452   5.994  13.333  0.5529 -2.9053  1.2957
17025TIP3    H272491   1.312   5.988  13.277  0.8853  0.0697 -0.0322
17026TIP3   OH272492   6.472   6.543  10.538  0.3753 -0.2747  0.0735
17026TIP3    H172493   6.504   6.488  10.467 -1.0185 -0.2370 -0.6104
17026TIP3    H272494   6.462   6.630  10.499 -0.0670 -0.1761  0.3913
17027TIP3   OH272495   4.201   5.720   2.794 -0.0601 -0.4344 -0.0680
17027TIP3    H172496   4.275   5.765   2.753 -2.5773  3.1620 -1.1292
17027TIP3    H272497   4.171   5.658   2.727  0.2349  0.2103 -0.8197
17028TIP3   OH272498   2.583   5.413   3.612  0.1295  0.2981  0.7828
17028TIP3    H172499   2.529   5.342   3.645  0.6024 -1.0235 -1.1273
17028TIP3    H272500   2.670   5.375   3.603  0.4969  1.2509  0.1640
17029TIP3   OH272501   3.483   0.657   3.831  0.1058  0.6084 -0.7585
17029TIP3    H172502   3.481   0.726   3.898  1.1171 -0.7112  0.6991
17029TIP3    H272503   3.465   0.576   3.879  0.8204 -0.3884 -2.0981
17030TIP3   OH272504   0.242   5.884  14.707  0.1348  0.1702  0.1027
17030TIP3    H172505   0.166   5.932  14.741  1.9169  2.3113  1.2938
17030TIP3    H272506   0.247   5.911  14.615  0.4054  1.3455  0.4504
17031TIP3   OH272507   2.405   5.495  14.052  0.0826  0.1286  0.4796
17031TIP3    H172508   2.340   5.497  13.982 -1.5143  3.0241  1.9000
17031TIP3    H272509   2.361   5.453  14.125  0.4413  0.5072  0.9182
17032TIP3   OH272510   2.288   4.444   0.814 -0.6770  0.4717  0.2420
17032TIP3    H172511   2.292   4.491   0.731 -0.0121  0.1120  0.0677
17032TIP3    H272512   2.232   4.368   0.797 -0.2518  0.2031  0.0179
17033TIP3   OH272513   2.097   3.299   5.031 -0.0181 -0.5625 -0.6872
17033TIP3    H172514   2.010   3.338   5.037 -0.9415 -2.6822  1.2392
17033TIP3    H272515   2.085   3.220   4.978  0.8002 -0.6707 -0.7303
17034TIP3   OH272516   4.859   5.049   1.148 -0.1488 -0.4087 -0.7758
17034TIP3    H172517   4.842   5.046   1.242  0.2984  1.5486 -0.6003
17034TIP3    H272518   4.867   4.957   1.123 -2.6929 -1.1070  0.6060
17035TIP3   OH272519   5.358   3.781   4.989  0.3224  0.6693  0.5342
17035TIP3    H172520   5.321   3.817   5.070 -1.0964 -0.3177  0.3611
17035TIP3    H272521   5.415   3.710   5.018 -0.8442 -0.2430  0.6606
17036TIP3   OH272522   6.716   1.030  17.041 -1.3015  0.6983  0.5550
17036TIP3    H172523   6.688   1.113  17.080 -4.1061 -0.0580  0.3533
17036TIP3    H272524   6.723   0.970  17.116 -1.2218  0.6320  0.4952
17037TIP3   OH272525   1.047   1.281  14.088  0.0074 -0.4144 -0.2566
17037TIP3    H172526   1.060   1.196  14.130 -0.5892 -1.2176 -1.6147
17037TIP3    H272527   0.953   1.286  14.071  0.0693  0.4087 -0.4047
17038TIP3   OH272528   3.033   0.188  12.091  0.0563 -0.0455 -0.0189
17038TIP3    H172529   3.092   0.222  12.024 -1.4324 -0.2518 -1.4941
17038TIP3    H272530   3.042   0.250  12.164  0.2646  1.3246 -1.1691
17039TIP3   OH272531   6.320   6.176  11.386  0.0292 -0.3203  0.3992
17039TIP3    H172532   6.280   6.093  11.359 -1.3038  0.2541  0.5791
17039TIP3    H272533   6.368   6.206  11.308 -3.8334  1.3732 -1.5889
17040TIP3   OH272534   6.510   3.866   3.166 -0.6169  0.4221  0.1919
17040TIP3    H172535   6.570   3.857   3.240 -0.9743 -0.5951  0.3701
17040TIP3    H272536   6.515   3.782   3.121 -1.7401  0.4045  0.0790
17041TIP3   OH272537   1.913   5.272  13.790  0.0342  0.3875 -0.1032
17041TIP3    H172538   1.940   5.331  13.719  0.6172 -0.9065 -0.9893
17041TIP3    H272539   1.994   5.251  13.836 -0.2347  0.5812  0.4773
17042TIP3   OH272540   0.745   3.113   2.072  0.0180 -0.2964 -0.1485
17042TIP3    H172541   0.840   3.119   2.086  0.5978 -1.4714 -2.9708
17042TIP3    H272542   0.728   3.020   2.061 -1.4134 -0.0654 -0.0794
17043TIP3   OH272543   3.428   6.583  13.106 -0.4225 -0.0855  0.0171
17043TIP3    H172544   3.470   6.530  13.038  1.0101  1.4561 -0.3649
17043TIP3    H272545   3.394   6.659  13.060  1.4491  1.4818  1.0811
17044TIP3   OH272546   4.321   1.197   5.625 -0.0281 -0.5912  0.5576
17044TIP3    H172547   4.301   1.197   5.719 -3.2819 -1.3553 -0.0101
17044TIP3    H272548   4.368   1.115   5.611 -1.2561 -1.4593  1.2705
17045TIP3   OH272549   5.907   3.365   1.296  0.1088 -0.6695 -0.0393
17045TIP3    H172550   5.871   3.289   1.252  0.3975 -0.9272  0.1687
17045TIP3    H272551   5.841   3.388   1.362 -0.2388 -0.3936 -0.4739
17046TIP3   OH272552   5.225   6.215   3.541  0.1062  0.5606  0.0244
17046TIP3    H172553   5.283   6.281   3.579 -2.8219  2.9155  0.8151
17046TIP3    H272554   5.232   6.140   3.600  3.2963  0.1445 -0.7193
17047TIP3   OH272555   2.655   4.859  12.319  0.1331  0.4680 -0.1183
17047TIP3    H172556   2.705   4.779  12.334 -0.0115  0.2328 -0.8216
17047TIP3    H272557   2.566   4.837  12.348  0.4596  0.9556  1.3326
17048TIP3   OH272558   0.379   0.300  10.427 -0.0838 -0.1998  0.0649
17048TIP3    H172559   0.369   0.393  10.407  0.7423 -0.4908 -1.9024
17048TIP3    H272560   0.291   0.264  10.416 -0.0976  0.0770 -0.8068
17049TIP3   OH272561   5.925   2.925   6.317 -0.0199  0.3433 -0.2575
17049TIP3    H172562   5.953   2.931   6.408  1.3214  1.3526 -0.6967
17049TIP3    H272563   5.867   3.001   6.305  2.0473  1.9212 -0.9245
17050TIP3   OH272564   2.570   2.965  15.778  0.1627  0.3803 -0.5090
17050TIP3    H172565   2.604   2.876  15.793 -2.8399 -1.4746 -3.3417
17050TIP3    H272566   2.629   3.002  15.712  1.1130  0.3369  0.2833
17051TIP3   OH272567   1.375   4.344   3.920  0.0617 -0.0951  0.0353
17051TIP3    H172568   1.373   4.398   3.841 -1.1450  0.3393  0.3458
17051TIP3    H272569   1.285   4.315   3.932  0.2037 -0.0751  1.3051
17052TIP3   OH272570   0.535   2.478   1.764 -0.2888 -0.3167 -0.6083
17052TIP3    H172571   0.549   2.392   1.725  0.9367 -0.5789  0.3542
17052TIP3    H272572   0.560   2.540   1.696  0.8578 -0.7564 -0.6083
17053TIP3   OH272573   1.253   3.187  16.530  0.6104  0.3018 -0.0361
17053TIP3    H172574   1.343   3.180  16.563 -0.0231 -0.4596  1.6809
17053TIP3    H272575   1.201   3.210  16.607 -0.8397 -0.4921 -0.7276
17054TIP3   OH272576   2.413   5.129   4.390 -0.4362  0.3589 -0.1042
17054TIP3    H172577   2.401   5.222   4.408  2.1733  0.8283 -0.3801
17054TIP3    H272578   2.354   5.085   4.451  0.1800  2.1520  1.9114
17055TIP3   OH272579   2.907   2.606   3.413  0.1270 -0.7295 -0.5356
17055TIP3    H172580   2.846   2.669   3.373 -0.0095 -0.0196  0.7534
17055TIP3    H272581   2.957   2.658   3.476 -0.5238 -2.0572  1.1520
17056TIP3   OH272582   3.716   5.984   3.559 -0.6252 -0.3607  0.4867
17056TIP3    H172583   3.744   5.905   3.605  0.0816 -0.4406 -0.0705
17056TIP3    H272584   3.739   5.969   3.467  0.2164  0.7926  0.4779
17057TIP3   OH272585   3.349   5.793   5.183 -0.1932  0.2989 -0.5679
17057TIP3    H172586   3.403   5.838   5.118  0.3405  0.4879 -0.0026
17057TIP3    H272587   3.260   5.802   5.151 -0.0272  1.2224 -0.7914
17058TIP3   OH272588   1.691   5.825   3.825  0.0172  0.0426 -0.6825
17058TIP3    H172589   1.621   5.836   3.761 -1.3311 -3.5708 -0.0162
17058TIP3    H272590   1.648   5.786   3.902  2.2939  0.4389  0.8965
17059TIP3   OH272591   0.979   3.377  15.967 -0.1383 -0.0026  0.0420
17059TIP3    H172592   0.920   3.382  16.042 -0.3095  0.1487 -0.1023
17059TIP3    H272593   1.061   3.342  16.003 -1.0300 -2.5561 -0.1662
17060TIP3   OH272594   2.130   1.322  13.947 -0.0282  0.0192  0.3169
17060TIP3    H172595   2.185   1.331  14.025 -1.8860 -0.2768  1.7410
17060TIP3    H272596   2.086   1.407  13.938 -0.9269 -0.4095  0.5039
17061TIP3   OH272597   3.616   1.532  14.863 -0.2597  0.5553 -0.0285
17061TIP3    H172598   3.682   1.471  14.897 -0.1847  1.3268  1.3019
17061TIP3    H272599   3.647   1.554  14.776  0.7371  0.1737  0.2099
17062TIP3   OH272600   5.906   2.331  16.170  0.2644  0.1650 -0.5060
17062TIP3    H172601   5.972   2.338  16.101  1.7377 -1.5793  0.6439
17062TIP3    H272602   5.940   2.264  16.229 -1.7826  0.3741  1.0096
17063TIP3   OH272603   0.895   0.535   2.028 -0.1007 -0.0852 -0.2587
17063TIP3    H172604   0.874   0.461   1.971 -0.4857  0.6202 -1.0441
17063TIP3    H272605   0.830   0.530   2.098 -1.1946  0.4640 -1.2001
17064TIP3   OH272606   4.912   0.506   4.675 -0.4594  0.1671  0.6711
17064TIP3    H172607   4.878   0.493   4.764  1.7260  0.8697  1.6716
17064TIP3    H272608   5.005   0.522   4.687 -0.3458  1.6989 -1.6643
17065TIP3   OH272609   4.221   5.753   6.324  0.0259 -0.1373  0.1812
17065TIP3    H172610   4.278   5.825   6.296 -0.1099  0.1116  0.5488
17065TIP3    H272611   4.206   5.768   6.417  1.7112 -1.7992  0.7830
17066TIP3   OH272612   1.084   1.537  10.771  0.3824 -0.2852  0.3075
17066TIP3    H172613   1.063   1.445  10.781 -0.8277 -0.2283 -1.2280
17066TIP3    H272614   1.131   1.542  10.688 -1.1741  0.6656 -0.5669
17067TIP3   OH272615   5.426   2.752  15.791  0.2730  0.0343  0.1694
17067TIP3    H172616   5.385   2.687  15.848  0.8778 -1.3070 -0.8610
17067TIP3    H272617   5.368   2.759  15.716  0.2482  0.6506  0.2401
17068TIP3   OH272618   4.370   5.597   3.823 -0.0643  0.0554 -0.3170
17068TIP3    H172619   4.318   5.672   3.849  1.6070 -0.0746  4.4335
17068TIP3    H272620   4.431   5.631   3.758 -0.1895  2.5576  0.7538
17069TIP3   OH272621   1.318   3.374  15.357 -0.1732  0.1205 -0.1831
17069TIP3    H172622   1.251   3.442  15.366 -1.4744 -0.7902 -2.3888
17069TIP3    H272623   1.378   3.408  15.291  0.5508  0.1402  0.4708
17070TIP3   OH272624   5.629   4.928   5.059  0.2899  0.3920 -0.2853
17070TIP3    H172625   5.577   5.008   5.053 -0.6094 -0.1235  0.3097
17070TIP3    H272626   5.568   4.862   5.093  1.2779 -0.2930  0.2161
17071TIP3   OH272627   5.242   1.962  16.909 -0.2707 -0.3045 -0.1932
17071TIP3    H172628   5.268   1.904  16.837 -0.1568  0.5767 -0.8839
17071TIP3    H272629   5.148   1.974  16.897 -0.1741  0.1971 -0.4662
17072TIP3   OH272630   2.239   0.131   2.733  0.4982 -0.0166 -0.0784
17072TIP3    H172631   2.159   0.082   2.754  1.4139 -1.7394 -0.4189
17072TIP3    H272632   2.278   0.149   2.819 -1.2590  2.7541  0.2563
17073TIP3   OH272633   1.065   6.122   3.006  0.4106  0.0937 -0.3934
17073TIP3    H172634   1.156   6.114   2.979  1.4084 -0.5696  2.7188
17073TIP3    H272635   1.068   6.174   3.087 -2.0988  0.8332 -0.6721
17074TIP3   OH272636   4.272   4.829   4.572  0.4324  0.3674  0.0066
17074TIP3    H172637   4.188   4.789   4.549  0.0611  1.0373  0.1797
17074TIP3    H272638   4.330   4.809   4.498  0.2220 -0.3804  0.0353
17075TIP3   OH272639   4.440   5.346   1.929 -0.1171 -0.7088  0.8723
17075TIP3    H172640   4.521   5.392   1.908 -0.3853 -1.0289 -1.0872
17075TIP3    H272641   4.422   5.294   1.850 -2.0043 -0.9512  1.4322
17076TIP3   OH272642   5.842   6.007  12.929  0.0981 -0.3283 -0.9905
17076TIP3    H172643   5.787   5.941  12.887  0.7393 -2.8131  1.6575
17076TIP3    H272644   5.931   5.971  12.923  0.4562  0.1839  0.6153
17077TIP3   OH272645   5.843   2.578   5.094  0.3162 -0.1304  0.2186
17077TIP3    H172646   5.900   2.568   5.170 -0.0377 -2.0397  0.2830
17077TIP3    H272647   5.901   2.567   5.019  0.0775 -2.2681  0.2845
17078TIP3   OH272648   2.702   3.627  13.354 -0.0439  0.4798 -0.0915
17078TIP3    H172649   2.727   3.719  13.357 -1.0152  0.7546 -0.2138
17078TIP3    H272650   2.753   3.586  13.424 -1.4465  1.5774  1.6312
17079TIP3   OH272651   4.497   3.061  14.832 -0.3896  0.1519  0.0523
17079TIP3    H172652   4.465   3.111  14.757 -1.1155  1.9275  1.4771
17079TIP3    H272653   4.420   3.015  14.865 -0.1300 -0.4111 -0.1044
17080TIP3   OH272654   4.930   3.946  14.067 -0.2926 -0.4694 -0.1702
17080TIP3    H172655   4.969   3.882  14.126 -0.8887  0.3445  1.1489
17080TIP3    H272656   5.002   4.006  14.046  0.4199 -1.8060 -1.8613
17081TIP3   OH272657   5.307   2.591  15.290 -0.8962  0.0251 -0.4269
17081TIP3    H172658   5.219   2.558  15.269 -1.0081 -0.5587  0.8527
17081TIP3    H272659   5.338   2.533  15.360 -0.2753  1.4122  0.4893
17082TIP3   OH272660   2.386   2.519  14.370 -0.7555 -0.4056  0.4177
17082TIP3    H172661   2.336   2.441  14.344  1.4270 -1.7315 -0.0635
17082TIP3    H272662   2.389   2.573  14.291 -0.7204 -0.7162  0.2053
17083TIP3   OH272663   1.029   1.621   4.752  0.4544  0.5682  0.4717
17083TIP3    H172664   1.102   1.659   4.801  1.1132 -0.6422  0.4660
17083TIP3    H272665   1.070   1.565   4.686 -0.4097  2.1246 -1.5001
17084TIP3   OH272666   1.814   0.532  16.865 -0.2155  0.2062 -0.2148
17084TIP3    H172667   1.860   0.611  16.892  0.5837 -0.4281  0.3163
17084TIP3    H272668   1.732   0.564  16.827 -0.2436  1.2424  0.6726
17085TIP3   OH272669   5.345   0.394   1.143 -0.2474 -0.1537 -0.2596
17085TIP3    H172670   5.328   0.472   1.196 -1.2312 -0.3991 -0.1888
17085TIP3    H272671   5.258   0.360   1.121  0.1468 -0.5764 -1.2673
17086TIP3   OH272672   5.444   3.312  14.658  0.0503 -0.5723  0.2358
17086TIP3    H172673   5.435   3.397  14.700  0.8971  0.3244 -1.3007
17086TIP3    H272674   5.355   3.290  14.630 -0.1482 -0.1095  0.4924
17087TIP3   OH272675   0.831   2.244  12.223  0.6038  0.1022  0.3873
17087TIP3    H172676   0.824   2.285  12.137  0.4773  2.3139  1.3677
17087TIP3    H272677   0.742   2.251  12.260  0.9084  0.2197  1.1124
17088TIP3   OH272678   5.764   0.659   2.010  0.6980 -0.2598  0.2608
17088TIP3    H172679   5.834   0.668   1.946 -0.0220 -1.4360 -0.7431
17088TIP3    H272680   5.741   0.749   2.035  2.7832  0.1484  0.9125
17089TIP3   OH272681   2.797   3.307   2.247  0.3367  0.1008 -0.2293
17089TIP3    H172682   2.883   3.288   2.210  0.0379  0.1137 -0.9426
17089TIP3    H272683   2.749   3.352   2.177  0.1375  1.1492  0.5386
17090TIP3   OH272684   2.645   3.501  15.282 -0.3505 -0.6173 -0.0080
17090TIP3    H172685   2.627   3.515  15.189 -2.5878 -1.8845  0.1796
17090TIP3    H272686   2.579   3.439  15.310 -1.5197  1.7566  3.0786
17091TIP3   OH272687   2.380   0.660  13.788 -0.4504  0.1592  0.2056
17091TIP3    H172688   2.314   0.591  13.774 -1.3144  1.3592 -2.2455
17091TIP3    H272689   2.334   0.729  13.835 -0.3103  0.1088  0.4187
17092TIP3   OH272690   0.499   5.747  10.648  0.7775  0.0007  0.0795
17092TIP3    H172691   0.566   5.780  10.588  2.5138 -2.7487  0.3409
17092TIP3    H272692   0.470   5.825  10.696 -0.4911  2.2851 -3.9425
17093TIP3   OH272693   6.365   2.185  15.835  0.8845 -0.3231  0.1323
17093TIP3    H172694   6.445   2.216  15.794  0.6834  0.6742  0.4706
17093TIP3    H272695   6.392   2.150  15.920  0.7818  1.5354  0.9724
17094TIP3   OH272696   4.243   5.677  16.969  0.1233 -0.0167 -0.0580
17094TIP3    H172697   4.186   5.745  16.934  1.0292 -0.0069 -1.6017
17094TIP3    H272698   4.196   5.642  17.045 -0.7279  1.7461  0.2666
17095TIP3   OH272699   0.852   1.789   2.203  0.0852 -1.0835  0.5464
17095TIP3    H172700   0.940   1.816   2.176  1.6443 -4.8000  1.2653
17095TIP3    H272701   0.847   1.814   2.296 -1.1561  2.2739 -0.2861
17096TIP3   OH272702   3.081   2.225  16.978 -0.3346 -1.0520 -0.2437
17096TIP3    H172703   3.000   2.263  17.014 -0.5048 -1.5709 -0.0792
17096TIP3    H272704   3.091   2.142  17.023  1.0888 -0.3465  0.8379
17097TIP3   OH272705   5.712   1.835  11.855 -0.0516  0.0628 -0.1887
17097TIP3    H172706   5.796   1.872  11.883  0.1020  0.5184 -1.1920
17097TIP3    H272707   5.698   1.871  11.767 -2.2541  1.6064  0.6974
17098TIP3   OH272708   1.715   3.541  15.799  0.2722 -1.0741 -0.2557
17098TIP3    H172709   1.632   3.509  15.764  0.4254  0.2560 -1.9852
17098TIP3    H272710   1.701   3.635  15.810  1.0938 -1.0675  0.8154
17099TIP3   OH272711   1.974   6.637  14.514 -0.2295  0.0428  0.4451
17099TIP3    H172712   1.910   6.624  14.444  0.8318 -0.8599 -0.4028
17099TIP3    H272713   2.043   6.689  14.473  0.5681 -0.7833  0.7029
17100TIP3   OH272714   0.726   4.044  10.884 -0.2301 -0.4887 -0.1288
17100TIP3    H172715   0.682   3.966  10.918 -2.9057  0.3512 -1.3623
17100TIP3    H272716   0.707   4.112  10.949  0.6796 -0.4877  0.1380
17101TIP3   OH272717   2.225   2.201  14.904  0.4132  0.1644  0.0334
17101TIP3    H172718   2.277   2.130  14.941  1.2180  1.4100  1.4314
17101TIP3    H272719   2.208   2.259  14.979  0.7878  2.0434 -1.2782
17102TIP3   OH272720   3.280   0.736   0.330  0.4937  0.0349 -0.2115
17102TIP3    H172721   3.356   0.787   0.357  0.2090 -0.5121  1.8503
17102TIP3    H272722   3.316   0.667   0.274  1.8371 -1.1326  1.9186
17103TIP3   OH272723   1.661   1.535   5.086  0.2743  0.3021  0.0348
17103TIP3    H172724   1.720   1.534   5.011 -1.2552  1.6690 -1.2601
17103TIP3    H272725   1.605   1.458   5.075 -1.8052  1.9389 -1.9069
17104TIP3   OH272726   3.438   4.959  13.738  0.0105 -0.0876  0.2000
17104TIP3    H172727   3.473   4.961  13.648  0.4649  0.1663  0.3785
17104TIP3    H272728   3.348   4.990  13.729  0.6543  1.8903  0.0986
17105TIP3   OH272729   5.009   2.832   3.241  0.0963 -0.4163  0.2053
17105TIP3    H172730   5.043   2.742   3.249  1.9787  0.2915  0.8366
17105TIP3    H272731   4.999   2.846   3.147 -0.0737 -1.2358  0.0923
17106TIP3   OH272732   6.394   1.599  15.091  0.0079  0.0899  0.4082
17106TIP3    H172733   6.357   1.656  15.024  0.9928 -0.2435 -0.4457
17106TIP3    H272734   6.487   1.622  15.094  0.2391 -0.8301  0.7031
17107TIP3   OH272735   6.214   0.321   2.837  0.3617 -0.4366  0.6749
17107TIP3    H172736   6.175   0.403   2.808  2.1301  0.2410  0.0857
17107TIP3    H272737   6.209   0.324   2.933  2.8045  1.6557  0.8167
17108TIP3   OH272738   3.328   5.428  16.632  0.1896  0.4926  0.0117
17108TIP3    H172739   3.365   5.341  16.648 -1.3310 -0.3010 -0.5658
17108TIP3    H272740   3.351   5.479  16.710  1.8656 -0.1315 -0.0262
17109TIP3   OH272741   4.791   1.373   4.176 -0.3876 -0.4866 -0.3049
17109TIP3    H172742   4.802   1.458   4.132  0.6462  0.1333  1.1007
17109TIP3    H272743   4.879   1.336   4.180 -0.8579 -1.7893 -1.1329
17110TIP3   OH272744   1.323   0.012  15.452  0.4509 -0.6665  0.5569
17110TIP3    H172745   1.233   0.044  15.454  0.9295  0.7712  3.4979
17110TIP3    H272746   1.368   0.071  15.392 -0.2169 -0.4774  0.2293
17111TIP3   OH272747   5.261   1.412  13.243  0.0011  0.1763  0.6379
17111TIP3    H172748   5.315   1.338  13.274 -0.9802 -1.7338 -1.8555
17111TIP3    H272749   5.192   1.420  13.309  0.7130 -0.4300  1.4933
17112TIP3   OH272750   2.877   4.638  16.771  0.7504  0.3975 -0.0007
17112TIP3    H172751   2.950   4.606  16.717  1.3022  0.6027  0.6026
17112TIP3    H272752   2.920   4.680  16.846  0.0124  1.3265 -0.0869
17113TIP3   OH272753   2.798   5.052   2.854  0.6839 -0.7272  0.2791
17113TIP3    H172754   2.869   4.991   2.837  1.4634  0.5709 -1.4885
17113TIP3    H272755   2.810   5.121   2.789  0.6315  2.0051  2.9403
17114TIP3   OH272756   1.212   5.888  13.513  0.9777 -0.6307 -0.3503
17114TIP3    H172757   1.272   5.889  13.587 -0.8876  0.5035  1.2323
17114TIP3    H272758   1.170   5.802  13.517  1.4871 -0.8987 -0.6369
17115TIP3   OH272759   5.006   3.733  12.782  0.3494 -0.5304  0.0183
17115TIP3    H172760   5.076   3.746  12.718  0.2715  1.8669  0.3193
17115TIP3    H272761   5.044   3.760  12.865 -0.6679  0.0539  0.3185
17116TIP3   OH272762   3.043   2.373   2.602 -0.3384  0.7139 -0.5448
17116TIP3    H172763   3.031   2.424   2.522 -1.3277  0.9723 -0.2391
17116TIP3    H272764   2.984   2.299   2.593  0.5742 -0.0194 -0.6655
17117TIP3   OH272765   0.585   3.036   0.929 -0.2864 -0.5164  0.0701
17117TIP3    H172766   0.535   3.117   0.930 -1.2792 -1.1007 -0.4433
17117TIP3    H272767   0.520   2.968   0.913  0.4424 -1.4857  1.0861
17118TIP3   OH272768   6.546   3.158   5.487  0.0689 -0.1994 -0.3009
17118TIP3    H172769   6.501   3.118   5.412  2.0484  0.3927 -1.9107
17118TIP3    H272770   6.575   3.084   5.539 -0.9695 -0.6427 -0.3194
17119TIP3   OH272771   2.265   4.853  10.780  0.0559 -0.6678  0.2240
17119TIP3    H172772   2.210   4.929  10.799  0.7344 -0.4430  1.3506
17119TIP3    H272773   2.203   4.786  10.749 -0.4843  0.4877 -1.3092
17120TIP3   OH272774   5.287   5.026   2.079 -0.0009 -0.4401  0.3855
17120TIP3    H172775   5.340   5.102   2.101 -0.0202 -0.6639  1.2245
17120TIP3    H272776   5.207   5.036   2.130 -0.9123  0.0380 -1.0863
17121TIP3   OH272777   2.775   3.016  13.210 -0.3763 -0.4722  0.0558
17121TIP3    H172778   2.763   3.111  13.215  1.2070 -0.2715  1.0939
17121TIP3    H272779   2.692   2.982  13.178 -0.8008  1.3119 -0.8515
17122TIP3   OH272780   4.301   1.448   3.971  0.5231  0.6099  0.1071
17122TIP3    H172781   4.255   1.468   3.889  1.6290  0.9227 -0.4519
17122TIP3    H272782   4.346   1.365   3.954  1.2200  0.9643  0.1956
17123TIP3   OH272783   4.935   0.343   6.142 -0.6551 -0.3582 -0.5010
17123TIP3    H172784   4.901   0.307   6.224  0.8191 -0.1308  0.2398
17123TIP3    H272785   5.017   0.295   6.127  1.2953  2.4568  0.4247
17124TIP3   OH272786   4.667   3.916   5.695  0.1998 -0.4741  0.4193
17124TIP3    H172787   4.737   3.888   5.754  0.9527 -1.0162 -0.7011
17124TIP3    H272788   4.603   3.958   5.752  1.4970  0.1609  1.4538
17125TIP3   OH272789   1.929   4.073  14.089  0.9719  0.4769  0.2576
17125TIP3    H172790   1.858   4.009  14.091  1.9299 -0.6212  0.3378
17125TIP3    H272791   1.981   4.053  14.167  1.2736  1.3811  0.2945
17126TIP3   OH272792   0.841   4.697   6.513 -0.3092  0.2304 -0.0422
17126TIP3    H172793   0.753   4.686   6.478 -0.0637  1.0966 -0.9709
17126TIP3    H272794   0.878   4.771   6.464 -0.0728  1.7820  2.2827
17127TIP3   OH272795   1.732   0.195  14.323 -0.1080 -0.3100 -0.0565
17127TIP3    H172796   1.739   0.255  14.397  2.0012 -0.2234 -0.2655
17127TIP3    H272797   1.638   0.191  14.304 -0.4997  1.2294  1.3167
17128TIP3   OH272798   2.085   2.708   0.009  0.2474  0.3176 -0.4547
17128TIP3    H172799   2.135   2.746   0.081 -0.9293  0.3575  0.3840
17128TIP3    H272800   2.101   2.766  -0.065 -1.0886  2.2320  0.6547
17129TIP3   OH272801   6.212   6.117  15.138 -0.5379 -0.3191  0.5142
17129TIP3    H172802   6.232   6.077  15.223  0.4687 -1.1859 -0.1023
17129TIP3    H272803   6.279   6.184  15.127  1.1453 -2.0929 -0.7989
17130TIP3   OH272804   4.960   6.790  12.863 -0.3240 -0.0557  0.3239
17130TIP3    H172805   4.913   6.848  12.922 -0.0070  0.3116  0.2247
17130TIP3    H272806   4.892   6.738  12.820 -0.6246  0.3374  0.3188
17131TIP3   OH272807   1.423   4.068   4.658  0.7330 -0.1059  0.5859
17131TIP3    H172808   1.334   4.098   4.675  1.8223  3.6146  0.5884
17131TIP3    H272809   1.423   4.043   4.565 -0.2409  0.3057  0.4633
17132TIP3   OH272810   6.446   6.520  16.807 -0.3252 -0.7384  0.3691
17132TIP3    H172811   6.355   6.494  16.797 -0.0664 -1.9674  0.9894
17132TIP3    H272812   6.473   6.481  16.890  1.3098 -2.0748 -0.7247
17133TIP3   OH272813   6.058   2.182   5.309  0.6261  0.2092  0.2355
17133TIP3    H172814   6.101   2.098   5.321  0.5336 -0.0044 -0.8832
17133TIP3    H272815   5.968   2.167   5.339  0.4848 -0.2185 -0.3949
17134TIP3   OH272816   3.300   4.817   1.930 -0.2257 -0.2689 -0.0345
17134TIP3    H172817   3.278   4.889   1.989 -2.8529  0.1497 -1.3638
17134TIP3    H272818   3.275   4.849   1.843 -0.3942 -2.3654 -0.8128
17135TIP3   OH272819   3.299   2.611   1.928 -0.6135 -0.0782  0.3163
17135TIP3    H172820   3.276   2.543   1.865 -0.4817  0.4843 -0.3576
17135TIP3    H272821   3.295   2.568   2.013 -1.8253 -0.5824  0.0189
17136TIP3   OH272822   6.718   2.035  16.376 -0.2804  0.5016  0.0943
17136TIP3    H172823   6.795   1.983  16.401  0.0121  0.4484 -0.8828
17136TIP3    H272824   6.651   1.970  16.354  0.0510  0.5154 -1.0218
17137TIP3   OH272825   6.260   0.586   5.475 -0.0858 -0.4163  0.3176
17137TIP3    H172826   6.174   0.592   5.432 -0.1814  0.1046  0.5738
17137TIP3    H272827   6.275   0.492   5.484 -0.2637 -0.5297 -0.4556
17138TIP3   OH272828   6.735   3.722   1.451  0.1239  0.2249 -0.3346
17138TIP3    H172829   6.655   3.774   1.453  0.5637  0.9522  1.7846
17138TIP3    H272830   6.754   3.705   1.544  1.7132 -1.0314 -0.8500
17139TIP3   OH272831   5.975   0.926  11.742  0.4359 -0.8106 -0.3020
17139TIP3    H172832   5.927   0.971  11.811 -1.7027  2.0564 -3.3677
17139TIP3    H272833   5.931   0.841  11.733 -0.1061 -0.6769  0.9475
17140TIP3   OH272834   0.505   1.326   4.779  0.7180  0.3627 -0.1857
17140TIP3    H172835   0.594   1.300   4.756  0.9789  0.7732  0.3395
17140TIP3    H272836   0.457   1.243   4.785  1.2265  0.0905  0.1841
17141TIP3   OH272837   3.738   2.097   4.431  0.0306 -0.3690  0.3198
17141TIP3    H172838   3.784   2.069   4.510  1.9244  0.2959 -0.4936
17141TIP3    H272839   3.670   2.031   4.418  0.9627 -1.5818  1.3909
17142TIP3   OH272840   3.025   4.815  14.291 -0.5549 -0.0130 -0.3247
17142TIP3    H172841   3.061   4.874  14.224 -0.7918  0.8195  0.2602
17142TIP3    H272842   3.060   4.729  14.268  0.6217  0.5173 -0.6269
17143TIP3   OH272843   0.789   5.394   3.252  0.2684 -0.0979 -0.2659
17143TIP3    H172844   0.696   5.374   3.241  0.3014 -0.4445  0.0720
17143TIP3    H272845   0.790   5.487   3.276 -0.1358 -0.5107  1.4890
17144TIP3   OH272846   0.540   2.574  11.020  0.6187 -0.1294 -0.0162
17144TIP3    H172847   0.608   2.555  10.955 -0.9420 -0.4855 -1.6333
17144TIP3    H272848   0.487   2.643  10.981  0.5681  0.8064  1.6166
17145TIP3   OH272849   2.110   0.041   4.060  0.9221  0.1627 -0.4059
17145TIP3    H172850   2.027   0.004   4.092 -1.1305  2.0997 -3.0220
17145TIP3    H272851   2.156   0.067   4.140 -2.1004  1.1587  1.1998
17146TIP3   OH272852   1.728   2.737   4.128 -0.4044 -0.2003  0.3542
17146TIP3    H172853   1.644   2.782   4.113 -0.6028 -0.5160  0.5048
17146TIP3    H272854   1.785   2.805   4.163 -0.1386  0.3900 -1.1376
17147TIP3   OH272855   1.590   2.400  15.013  0.1840  0.0308 -0.0220
17147TIP3    H172856   1.660   2.433  15.069  0.7243  1.5842 -1.5284
17147TIP3    H272857   1.540   2.477  14.989 -1.1860 -0.8698 -0.1652
17148TIP3   OH272858   6.695   1.542   3.219  0.4221  0.0146  0.7925
17148TIP3    H172859   6.605   1.542   3.187  0.7998  0.1988 -0.2974
17148TIP3    H272860   6.689   1.585   3.304 -0.2746  1.6241 -0.0286
17149TIP3   OH272861   4.700   1.359   5.836 -0.2391 -0.2039 -0.6426
17149TIP3    H172862   4.642   1.421   5.792  0.1579 -1.3299 -2.8846
17149TIP3    H272863   4.785   1.403   5.840 -0.3020 -0.0616 -0.9202
17150TIP3   OH272864   5.179   5.818   4.002 -0.2368 -0.1505  0.0576
17150TIP3    H172865   5.122   5.882   4.044  0.0547  0.9278 -1.1078
17150TIP3    H272866   5.258   5.818   4.056 -0.3051  0.3662  0.1696
17151TIP3   OH272867   5.740   3.388  16.078 -0.3468  0.4157 -0.1138
17151TIP3    H172868   5.728   3.420  15.989 -1.8243  0.8120  0.2075
17151TIP3    H272869   5.653   3.393  16.117  0.2472  0.0719  1.2967
17152TIP3   OH272870   4.701   5.025   0.824 -0.3371 -0.0156 -0.0197
17152TIP3    H172871   4.657   5.059   0.902 -0.9852  0.0385 -0.3993
17152TIP3    H272872   4.743   5.102   0.785  0.6110 -0.1656  0.6563
17153TIP3   OH272873   5.124   3.027   2.499  0.4846  0.3736 -0.0519
17153TIP3    H172874   5.144   2.935   2.516 -1.7898 -0.1001  0.4588
17153TIP3    H272875   5.114   3.066   2.586  0.0009  0.7383 -0.2690
17154TIP3   OH272876   5.835   4.836  14.409 -0.0129 -0.5831 -0.0550
17154TIP3    H172877   5.749   4.877  14.418 -0.1670 -0.2720 -2.3506
17154TIP3    H272878   5.882   4.893  14.348  1.2459 -1.6327 -0.1144
17155TIP3   OH272879   1.315   0.266  13.908 -0.0147  0.6812 -0.0581
17155TIP3    H172880   1.348   0.331  13.846 -1.4056  1.1776 -0.3272
17155TIP3    H272881   1.379   0.195  13.905 -0.5145  0.2170 -2.8505
17156TIP3   OH272882   5.476   3.686   1.500 -0.4255 -0.3898 -0.1860
17156TIP3    H172883   5.499   3.628   1.427  0.7519 -0.4432  0.2080
17156TIP3    H272884   5.390   3.721   1.476 -0.7756 -1.6307 -0.8362
17157TIP3   OH272885   1.935   5.394   1.733  0.4659  0.2335  0.6394
17157TIP3    H172886   1.929   5.474   1.681  1.2518  0.7579  1.3369
17157TIP3    H272887   1.859   5.342   1.705  1.8782 -0.3868 -2.4788
17158TIP3   OH272888   4.383   6.666   4.796 -0.5169  0.3620  0.0324
17158TIP3    H172889   4.412   6.663   4.705 -0.0480 -1.7432  0.1873
17158TIP3    H272890   4.463   6.674   4.847 -0.3639 -2.2867  0.3417
17159TIP3   OH272891   5.107   4.242  16.894 -0.8850 -0.3476 -0.1069
17159TIP3    H172892   5.045   4.228  16.966 -0.4979 -2.3716 -0.1031
17159TIP3    H272893   5.193   4.244  16.937 -0.8580  2.5913 -0.0881
17160TIP3   OH272894   0.158   4.279  10.840  0.6890  0.3935  0.0997
17160TIP3    H172895   0.079   4.325  10.813  1.0554  1.9029  1.4775
17160TIP3    H272896   0.153   4.195  10.794 -2.4833 -0.2330  1.3475
17161TIP3   OH272897   5.977   6.225   6.204  0.3552  0.9463 -0.0583
17161TIP3    H172898   5.981   6.133   6.180 -0.5028  0.7003  0.6801
17161TIP3    H272899   5.934   6.268   6.130  0.0221  0.6197 -0.0536
17162TIP3   OH272900   5.050   3.894   3.405 -0.1518  0.2858 -0.0568
17162TIP3    H172901   5.111   3.848   3.464 -1.0928 -0.2767  0.5075
17162TIP3    H272902   5.083   3.983   3.401  0.9648 -0.1145 -0.1178
17163TIP3   OH272903   4.023   1.995  14.512 -0.3883  0.2809 -0.0786
17163TIP3    H172904   4.001   2.005  14.420 -0.1243  0.7404 -0.0948
17163TIP3    H272905   3.939   2.000  14.558 -0.5346 -0.0825 -0.2983
17164TIP3   OH272906   6.632   4.987   6.461  0.1012  0.0553  0.5675
17164TIP3    H172907   6.563   4.994   6.395  0.3027  0.6494  0.4096
17164TIP3    H272908   6.699   5.049   6.432  1.0701 -1.0947  0.2769
17165TIP3   OH272909   1.856   6.194  13.582  0.3709  0.0539  0.1436
17165TIP3    H172910   1.762   6.208  13.591  0.3398 -0.2609  0.3002
17165TIP3    H272911   1.885   6.167  13.670  0.2548 -1.9134 -0.3744
17166TIP3   OH272912   4.496   1.943  15.166 -0.5252  0.0310  0.0725
17166TIP3    H172913   4.425   1.922  15.227  0.2060 -2.2775  0.1977
17166TIP3    H272914   4.467   1.908  15.082 -0.3033  0.7079 -0.2963
17167TIP3   OH272915   5.556   1.517  13.812 -0.1128  1.1695  0.3345
17167TIP3    H172916   5.649   1.536  13.823 -0.4440  2.0635  1.8476
17167TIP3    H272917   5.529   1.569  13.737  0.9688 -0.5270 -1.3307
17168TIP3   OH272918   6.211   1.794  11.186  0.3433 -0.8494  0.1805
17168TIP3    H172919   6.258   1.820  11.107  0.5625  1.1459  0.9081
17168TIP3    H272920   6.146   1.730  11.156 -0.5278  0.8804 -1.8520
17169TIP3   OH272921   3.414   4.158  16.586  0.1218 -0.1836 -0.0046
17169TIP3    H172922   3.354   4.188  16.654 -1.0741 -1.4304 -0.4542
17169TIP3    H272923   3.381   4.198  16.505  1.2215  0.8661  0.0257
17170TIP3   OH272924   5.351   2.710   1.718  0.6140 -0.7943  0.1168
17170TIP3    H172925   5.439   2.671   1.720  1.1427  0.1345 -1.9906
17170TIP3    H272926   5.299   2.649   1.666  0.5753 -0.3645 -0.3629
17171TIP3   OH272927   2.124   5.351   3.846 -0.3874  0.0216 -0.7641
17171TIP3    H172928   2.070   5.427   3.826  0.8772  1.3142  0.5418
17171TIP3    H272929   2.157   5.367   3.934 -0.5650 -2.3451 -0.1945
17172TIP3   OH272930   4.648   6.342  11.640 -0.4689  0.3698  0.4762
17172TIP3    H172931   4.555   6.352  11.621  0.1548  0.8834 -3.0352
17172TIP3    H272932   4.681   6.431  11.649  0.0190  0.3009 -0.5115
17173TIP3   OH272933   0.548   2.489  12.247 -0.9525  0.1235 -0.2519
17173TIP3    H172934   0.454   2.507  12.240 -0.9335  1.1018  1.4186
17173TIP3    H272935   0.557   2.397  12.222 -2.4848 -0.2322  0.3955
17174TIP3   OH272936   3.612   5.384  10.892  0.3772 -0.1100  0.3649
17174TIP3    H172937   3.541   5.345  10.842 -0.1227  0.2066  0.8202
17174TIP3    H272938   3.573   5.462  10.932  0.7142 -0.4646  1.4065
17175TIP3   OH272939   0.474   2.621   1.997 -0.4151  0.0299  0.1252
17175TIP3    H172940   0.499   2.662   1.914  1.4102 -0.5244  0.3425
17175TIP3    H272941   0.450   2.531   1.973  1.9351 -0.7251  0.3339
17176TIP3   OH272942   0.096   1.972  13.761  0.7649  0.1483  0.5540
17176TIP3    H172943   0.007   1.942  13.741  1.4116 -1.1956 -0.4135
17176TIP3    H272944   0.090   2.001  13.852 -0.6021 -0.1987  0.6077
17177TIP3   OH272945   1.402   2.090   2.641 -0.0874 -0.0397  0.0715
17177TIP3    H172946   1.450   2.062   2.719 -0.6626 -0.4898  0.2789
17177TIP3    H272947   1.464   2.144   2.592  0.9380 -1.3815 -0.1497
17178TIP3   OH272948   6.597   6.196   3.591 -0.6989  0.4910  0.5488
17178TIP3    H172949   6.633   6.263   3.533 -0.7071  2.0589  2.2703
17178TIP3    H272950   6.503   6.207   3.586 -0.6745  1.4714  1.7373
17179TIP3   OH272951   2.352   6.430   6.005 -0.3054  0.5271 -0.4228
17179TIP3    H172952   2.333   6.495   6.073 -0.8178 -1.7732  1.7900
17179TIP3    H272953   2.448   6.428   5.999 -0.2714  1.0085 -0.0329
17180TIP3   OH272954   3.103   6.674  15.353  0.9188 -0.2008  0.8025
17180TIP3    H172955   3.147   6.590  15.366  1.8546  0.4544  1.9836
17180TIP3    H272956   3.173   6.735  15.328 -0.0574 -0.2268 -2.5317
17181TIP3   OH272957   2.367   6.787  11.609  0.1151  0.1404  0.4316
17181TIP3    H172958   2.323   6.711  11.646  0.4092  0.3587  1.2324
17181TIP3    H272959   2.446   6.751  11.569  0.9336  0.1890  1.9727
17182TIP3   OH272960   0.119   4.743   1.040 -0.2257  0.2319 -0.5246
17182TIP3    H172961   0.059   4.721   0.969 -0.6845  2.4023 -0.8797
17182TIP3    H272962   0.066   4.795   1.102  1.2368  2.3641 -0.9317
17183TIP3   OH272963   6.443   2.230  14.352  0.6307  0.1180  0.5265
17183TIP3    H172964   6.365   2.256  14.401  0.1293  1.0499 -0.7310
17183TIP3    H272965   6.426   2.140  14.326  0.0502  0.2623  0.3973
17184TIP3   OH272966   2.478   5.345   5.296 -0.1767  0.2283  0.3438
17184TIP3    H172967   2.551   5.406   5.282  0.3352 -0.5229 -0.3294
17184TIP3    H272968   2.492   5.275   5.232 -0.7509 -0.6096  1.1070
17185TIP3   OH272969   4.135   0.427  12.097  0.3980  0.5573 -0.9545
17185TIP3    H172970   4.098   0.515  12.101 -0.3169  0.2537  2.3948
17185TIP3    H272971   4.198   0.424  12.170 -0.8008 -2.1220  0.1209
17186TIP3   OH272972   4.079   3.780  13.915 -0.4678  0.0739 -0.2574
17186TIP3    H172973   4.065   3.693  13.952 -0.4970 -0.1245 -0.7271
17186TIP3    H272974   4.132   3.764  13.836  1.6921  0.7120  0.9855
17187TIP3   OH272975   1.818   6.209   4.647 -0.7011 -0.0615 -0.3007
17187TIP3    H172976   1.834   6.213   4.742 -0.1119 -0.5644 -0.3706
17187TIP3    H272977   1.847   6.121   4.622 -0.5793  0.1715 -0.9976
17188TIP3   OH272978   1.345   5.488  15.004 -0.3346 -0.2053 -0.4088
17188TIP3    H172979   1.338   5.555  15.072  1.7199 -1.6576  1.3892
17188TIP3    H272980   1.268   5.432  15.018 -0.3590 -0.0324  0.2057
17189TIP3   OH272981   4.626   6.108  15.838 -0.1030 -0.6198  0.9597
17189TIP3    H172982   4.569   6.032  15.852 -1.4783 -0.5627 -2.9452
17189TIP3    H272983   4.704   6.071  15.795  1.1437 -0.2062  2.7423
17190TIP3   OH272984   0.157   1.921  14.759  0.0166  0.4184 -0.2731
17190TIP3    H172985   0.212   1.959  14.690  1.0919  0.1636  0.4191
17190TIP3    H272986   0.070   1.916  14.720  0.4690  0.8756 -1.3886
17191TIP3   OH272987   6.358   5.084  15.396  0.0789  0.0117  0.3607
17191TIP3    H172988   6.375   5.177  15.382 -2.4498  0.5252  0.1885
17191TIP3    H272989   6.399   5.065  15.480  0.9646  1.1753  0.2204
17192TIP3   OH272990   0.788   3.889  11.144  1.0601 -0.3070  0.3375
17192TIP3    H172991   0.796   3.804  11.186  0.1463 -0.1976  0.7707
17192TIP3    H272992   0.699   3.918  11.166  0.5840 -0.1834 -1.5613
17193TIP3   OH272993   1.989   5.296   1.344 -0.2513  0.2772 -0.9672
17193TIP3    H172994   1.922   5.363   1.355 -0.0976  0.1758  0.8304
17193TIP3    H272995   1.970   5.231   1.411  1.9621  0.5247 -0.0047
17194TIP3   OH272996   6.539   5.803   2.368 -0.0588  0.6884  1.0886
17194TIP3    H172997   6.504   5.738   2.307  0.9635 -0.2172  1.4137
17194TIP3    H272998   6.543   5.756   2.452  0.6657  1.1739  1.3375
17195TIP3   OH272999   1.834   0.677  15.406  0.6006  0.4718  0.0178
17195TIP3    H173000   1.809   0.679  15.314  0.5090 -1.8809 -0.0457
17195TIP3    H273001   1.923   0.643  15.406 -0.1178 -1.5663  0.8694
17196TIP3   OH273002   1.386   0.472  13.064 -0.1233 -0.3704  0.6091
17196TIP3    H173003   1.406   0.379  13.053 -3.5453 -1.4939  2.4584
17196TIP3    H273004   1.296   0.481  13.033  1.1565  3.2656 -3.0610
17197TIP3   OH273005   2.968   3.056   6.127  0.2582 -0.4022  0.3881
17197TIP3    H173006   3.018   3.137   6.137  0.0295 -0.1444 -0.4836
17197TIP3    H273007   2.933   3.039   6.214  0.1538  0.5387  0.5390
17198TIP3   OH273008   0.191   2.764  13.900  0.6925 -0.5450  0.0467
17198TIP3    H173009   0.181   2.685  13.847 -0.3256  0.5071 -1.3964
17198TIP3    H273010   0.134   2.829  13.858 -0.6723  0.1997  2.7622
17199TIP3   OH273011   2.403   2.598   4.985 -0.6999  0.5561  0.3766
17199TIP3    H173012   2.465   2.626   4.918  0.4308  0.4365  1.3466
17199TIP3    H273013   2.457   2.575   5.061 -1.7640 -1.5717  0.5665
17200TIP3   OH273014   3.569   2.441  15.515 -0.4041 -0.1725 -0.2034
17200TIP3    H173015   3.626   2.518  15.512  2.5578 -2.2431 -1.0438
17200TIP3    H273016   3.517   2.446  15.435 -0.2986  0.9397 -0.2190
17201TIP3   OH273017   2.668   0.985  12.004 -0.8106 -0.2859  0.9352
17201TIP3    H173018   2.745   0.930  11.996 -2.1502 -2.3916  1.7504
17201TIP3    H273019   2.600   0.939  11.954 -1.1606  2.4259 -1.3523
17202TIP3   OH273020   1.545   0.758  12.414 -0.1119  0.3663 -0.7464
17202TIP3    H173021   1.582   0.670  12.402  0.2622  0.2540  0.9544
17202TIP3    H273022   1.451   0.746  12.401 -0.3190 -0.7177  1.3120
17203TIP3   OH273023   0.516   5.404   6.093 -0.2334 -0.3831  0.2517
17203TIP3    H173024   0.500   5.400   6.187 -0.4427 -1.7521  0.1720
17203TIP3    H273025   0.538   5.496   6.077  1.7656 -0.5110  1.9331
17204TIP3   OH273026   1.101   1.625   0.845 -0.2318  0.0884 -0.8420
17204TIP3    H173027   1.163   1.559   0.816 -1.0057 -0.8281 -0.4801
17204TIP3    H273028   1.015   1.586   0.830 -0.6956  0.4735  0.5957
17205TIP3   OH273029   3.953   1.783   6.720 -0.1369 -0.7991  0.5265
17205TIP3    H173030   3.937   1.695   6.688  1.2603 -0.9261  0.0903
17205TIP3    H273031   4.030   1.813   6.672  0.6714 -0.1292  2.1283
17206TIP3   OH273032   2.096   5.965   5.354  0.2505 -0.3706 -0.1725
17206TIP3    H173033   2.149   5.889   5.331 -0.7770 -1.1031 -0.1875
17206TIP3    H273034   2.013   5.929   5.383  0.5129  0.6572  2.0464
17207TIP3   OH273035   1.786   5.987   3.226 -0.1416  0.2645 -0.0989
17207TIP3    H173036   1.876   5.960   3.243 -0.3423 -0.3320  0.0348
17207TIP3    H273037   1.734   5.908   3.242 -0.4812 -0.0064 -2.2553
17208TIP3   OH273038   6.613   3.285  13.267 -0.7819  0.3358 -0.4160
17208TIP3    H173039   6.522   3.277  13.293 -0.7573 -1.3511 -0.7291
17208TIP3    H273040   6.611   3.340  13.188 -1.5248  0.2994 -0.4303
17209TIP3   OH273041   4.888   2.477   3.756  0.1369 -0.4316 -0.2787
17209TIP3    H173042   4.810   2.508   3.801  0.6538 -2.3158  2.1208
17209TIP3    H273043   4.936   2.557   3.733  0.0844  0.7019  3.0485
17210TIP3   OH273044   3.377   5.116  14.149  0.3556 -0.4431 -0.1955
17210TIP3    H173045   3.443   5.095  14.084  0.2026  2.1714 -1.3229
17210TIP3    H273046   3.304   5.058  14.130  0.9351 -0.8126 -1.3243
17211TIP3   OH273047   6.156   4.307  15.102 -0.0894 -0.5254  0.3920
17211TIP3    H173048   6.129   4.280  15.015  1.5398 -0.5237 -0.1446
17211TIP3    H273049   6.169   4.226  15.150 -0.4531 -0.5399  0.4691
17212TIP3   OH273050   6.780   5.388  12.651 -0.0849 -0.3183  0.1673
17212TIP3    H173051   6.726   5.315  12.680 -0.7636  0.4430  0.8802
17212TIP3    H273052   6.747   5.463  12.701  0.0354  0.6369 -1.1366
17213TIP3   OH273053   3.119   4.930  13.464  0.3971  0.4401 -0.0974
17213TIP3    H173054   3.092   5.016  13.431  0.7320  0.8614  0.7015
17213TIP3    H273055   3.188   4.903  13.403  0.3600  0.7786 -0.2981
17214TIP3   OH273056   3.853   6.681   2.203 -0.3570  0.5039 -0.1647
17214TIP3    H173057   3.900   6.673   2.121 -1.1608 -0.7162 -0.5303
17214TIP3    H273058   3.909   6.637   2.268 -0.6145 -0.2719 -0.4530
17215TIP3   OH273059   3.987   6.642   1.956  0.1063  0.5916 -0.2357
17215TIP3    H173060   3.936   6.632   1.876 -0.3941 -0.3575  0.1849
17215TIP3    H273061   4.051   6.710   1.936  0.4496 -0.1187 -1.6790
17216TIP3   OH273062   0.279   0.286  10.764 -0.2412 -0.0947  0.0158
17216TIP3    H173063   0.236   0.357  10.718  0.2408 -0.1052 -0.4609
17216TIP3    H273064   0.260   0.208  10.713 -0.4320 -0.2443  0.3140
17217TIP3   OH273065   1.149   5.862  11.549  0.2066  0.0640 -0.2763
17217TIP3    H173066   1.180   5.897  11.465 -0.9262  1.6002 -0.0972
17217TIP3    H273067   1.077   5.919  11.573 -0.2428 -1.0726  1.1973
17218TIP3   OH273068   4.489   5.627   0.845 -0.2422 -0.7575 -0.6715
17218TIP3    H173069   4.537   5.617   0.928 -0.7346 -0.0444 -0.2866
17218TIP3    H273070   4.408   5.578   0.858  0.4672 -2.1829 -1.4192
17219TIP3   OH273071   2.788   1.149  15.143  0.1617 -0.3107  0.0286
17219TIP3    H173072   2.837   1.068  15.148  0.0895 -0.3996 -0.6114
17219TIP3    H273073   2.745   1.147  15.057  0.5820  0.6433 -0.2231
17220TIP3   OH273074   4.878   5.128  16.720  0.5805 -0.0590  0.4109
17220TIP3    H173075   4.966   5.105  16.691  0.3555 -0.4538  0.0461
17220TIP3    H273076   4.859   5.065  16.789  0.6016  0.0639  0.5307
17221TIP3   OH273077   2.810   1.170   3.985  0.2585 -0.0366 -0.0102
17221TIP3    H173078   2.743   1.180   3.918 -1.0892  0.6966  1.3883
17221TIP3    H273079   2.823   1.075   3.991 -0.7198 -0.1949 -0.2376
17222TIP3   OH273080   6.333   6.279   3.510 -0.1780  0.2969 -0.0633
17222TIP3    H173081   6.356   6.356   3.459 -1.5009  1.4495  0.9927
17222TIP3    H273082   6.336   6.206   3.448  2.9885  0.8046 -0.7028
17223TIP3   OH273083   6.676   0.361   4.152 -0.1714  0.6491  0.4722
17223TIP3    H173084   6.693   0.292   4.087  0.4528  1.4846 -0.2740
17223TIP3    H273085   6.643   0.314   4.228  0.4421 -0.5096  0.0537
17224TIP3   OH273086   3.334   4.351   4.902 -0.1425 -0.2422  0.5139
17224TIP3    H173087   3.328   4.446   4.894 -1.4244 -0.2584  1.1013
17224TIP3    H273088   3.374   4.336   4.987  0.6769 -0.2282  0.1362
17225TIP3   OH273089   2.703   3.238   6.013  0.0303  0.6599 -0.4648
17225TIP3    H173090   2.775   3.290   5.977  0.2069  0.9055  0.2299
17225TIP3    H273091   2.721   3.149   5.982  1.9599  0.2407  1.5947
17226TIP3   OH273092   1.617   0.533  12.864  0.3591 -0.0122 -0.1835
17226TIP3    H173093   1.554   0.546  12.794 -0.9026 -2.0540  0.4917
17226TIP3    H273094   1.587   0.591  12.934  0.7827  0.9479 -0.7769
17227TIP3   OH273095   6.029   2.772   2.370  0.5103 -0.2417  0.4253
17227TIP3    H173096   5.973   2.781   2.447  1.2739  1.1486  0.8503
17227TIP3    H273097   6.074   2.688   2.383 -0.4926 -0.7494  0.7178
17228TIP3   OH273098   2.099   3.191   3.563  0.0998 -0.3014  0.1305
17228TIP3    H173099   2.086   3.278   3.526 -0.5062 -0.3687  0.1739
17228TIP3    H273100   2.048   3.191   3.644  0.1698 -0.6643  0.1765
17229TIP3   OH273101   2.255   0.855  13.016  0.6395  0.3637  0.0993
17229TIP3    H173102   2.194   0.811  13.076  0.3907  2.5496  1.5792
17229TIP3    H273103   2.241   0.813  12.932 -1.8155 -0.2594  0.7386
17230TIP3   OH273104   5.092   5.531  14.102 -0.6332 -0.3277 -0.3810
17230TIP3    H173105   5.036   5.467  14.146 -0.6514  1.3383  2.2214
17230TIP3    H273106   5.054   5.616  14.125  0.8538  0.7325 -1.6259
17231TIP3   OH273107   1.620   1.521  13.209  0.0617 -0.0446 -0.1339
17231TIP3    H173108   1.698   1.553  13.164  1.4345 -1.5092  1.0884
17231TIP3    H273109   1.613   1.430  13.182 -0.2894 -0.3677  1.0246
17232TIP3   OH273110   6.130   2.245   5.647 -0.8197  0.0989  0.2588
17232TIP3    H173111   6.113   2.179   5.714 -1.6637 -4.0260 -3.5481
17232TIP3    H273112   6.045   2.260   5.606  0.0952  0.1708 -1.7292
17233TIP3   OH273113   5.943   5.079   3.003  0.1948 -0.1274  0.0281
17233TIP3    H173114   5.855   5.115   3.007 -1.1268 -2.7625 -1.9738
17233TIP3    H273115   5.935   4.993   3.044  0.8419 -1.8788 -3.1670
17234TIP3   OH273116   4.566   1.466  11.735 -0.1222  0.2031 -0.1467
17234TIP3    H173117   4.525   1.506  11.658  1.4098 -0.2448 -1.2354
17234TIP3    H273118   4.505   1.484  11.807  0.2403  4.1549 -0.6119
17235TIP3   OH273119   4.994   5.452   3.780 -0.0134  0.1261 -0.1073
17235TIP3    H173120   5.017   5.489   3.865 -1.4792  2.3824 -0.6097
17235TIP3    H273121   4.927   5.386   3.799  1.0792 -0.8025  0.6225
17236TIP3   OH273122   3.006   4.694  17.006  0.2393  0.2921  0.5423
17236TIP3    H173123   2.974   4.651  17.085 -0.9208  0.1620  0.0363
17236TIP3    H273124   3.030   4.782  17.034  1.7009 -0.3551  1.4008
17237TIP3   OH273125   3.125   3.756   3.919  0.0771 -0.2243  0.0229
17237TIP3    H173126   3.137   3.662   3.929  0.1733 -0.3852 -1.4221
17237TIP3    H273127   3.141   3.773   3.826 -0.3633  1.1548  0.1713
17238TIP3   OH273128   5.888   6.360  16.710 -0.1763  0.7784  0.1836
17238TIP3    H173129   5.864   6.307  16.785  0.8809  0.9148  0.6352
17238TIP3    H273130   5.870   6.450  16.737 -0.2908  0.7891  0.0741
17239TIP3   OH273131   2.167   1.075   2.161 -0.0484  0.2576  0.3532
17239TIP3    H173132   2.252   1.071   2.117  0.0139  1.1312  0.3738
17239TIP3    H273133   2.135   1.163   2.143  0.3759  0.9753  2.7419
17240TIP3   OH273134   0.212   2.457   2.498 -0.7621 -0.0576  0.2617
17240TIP3    H173135   0.230   2.474   2.590  0.8747  1.4123 -0.2747
17240TIP3    H273136   0.287   2.406   2.467  0.0118  1.6431 -0.8057
17241TIP3   OH273137   1.621   5.798  15.074  0.5410  0.1237  0.4943
17241TIP3    H173138   1.570   5.855  15.016  0.7094  0.2156  0.4349
17241TIP3    H273139   1.660   5.857  15.138 -2.0942 -0.2898  2.5988
17242TIP3   OH273140   1.664   1.016   1.234 -0.2403  0.1019 -0.6312
17242TIP3    H173141   1.697   1.046   1.149 -2.1605 -0.2388 -1.5638
17242TIP3    H273142   1.570   1.036   1.231 -0.6386 -1.3767  0.7835
17243TIP3   OH273143   6.706   3.422  16.888  0.3638  0.1606 -0.1393
17243TIP3    H173144   6.777   3.360  16.904  1.0071  1.1612  1.1344
17243TIP3    H273145   6.737   3.504  16.927 -1.1068  0.8660 -0.3800
17244TIP3   OH273146   1.953   3.189  16.062  0.1068  0.3475  0.1797
17244TIP3    H173147   1.920   3.267  16.017 -1.0662 -0.2641 -0.0370
17244TIP3    H273148   1.889   3.121  16.043  0.1540 -0.2087  1.9067
17245TIP3   OH273149   0.511   1.690  14.350 -0.0410 -0.1327 -0.2180
17245TIP3    H173150   0.604   1.713  14.347 -0.2661  0.7415 -2.1991
17245TIP3    H273151   0.497   1.637  14.272 -1.1481 -0.5272  0.2294
17246TIP3   OH273152   5.295   0.007  16.798  0.1581 -0.6657 -0.0679
17246TIP3    H173153   5.374  -0.034  16.832 -0.4424 -0.6860  1.3769
17246TIP3    H273154   5.246  -0.065  16.758  0.7893 -0.6707 -0.8679
17247TIP3   OH273155   0.955   2.245  15.338 -0.0158 -0.2614  0.0554
17247TIP3    H173156   0.923   2.157  15.313  1.3292 -1.2553  1.6828
17247TIP3    H273157   1.050   2.239  15.330  0.1584  0.7288  1.1990
17248TIP3   OH273158   0.086   3.739  13.254  0.2679  0.2696  0.6319
17248TIP3    H173159   0.019   3.686  13.211 -0.1125 -0.8587  2.4750
17248TIP3    H273160   0.048   3.760  13.340  2.1484 -0.2139  1.6437
17249TIP3   OH273161   2.550   2.243  16.297 -0.0660  0.2306 -0.0481
17249TIP3    H173162   2.639   2.259  16.326  0.2857 -0.8220 -0.5067
17249TIP3    H273163   2.552   2.155  16.259 -1.0055  0.6765 -1.2089
17250TIP3   OH273164   1.573   6.354   5.167  0.7690 -0.4277  0.2003
17250TIP3    H173165   1.639   6.329   5.231  0.3936 -0.0072  0.7614
17250TIP3    H273166   1.622   6.405   5.102  0.9755  0.0037  0.6859
17251TIP3   OH273167   3.065   1.138   5.466 -0.0483  0.0450 -0.4458
17251TIP3    H173168   3.145   1.192   5.473 -1.5021  2.1331  1.4669
17251TIP3    H273169   3.046   1.112   5.556  0.9436 -4.4981 -1.3141
17252TIP3   OH273170   3.379   2.593   3.084 -0.6104  0.1253 -0.0584
17252TIP3    H173171   3.451   2.624   3.029 -1.1130  0.6115 -0.4503
17252TIP3    H273172   3.398   2.500   3.098 -0.1295  0.1516 -0.5104
17253TIP3   OH273173   5.133   4.154   3.421  0.0594 -0.2363 -0.5235
17253TIP3    H173174   5.123   4.175   3.514  1.2318  0.3916 -0.5231
17253TIP3    H273175   5.068   4.211   3.378  1.0488  1.1530 -0.2577
17254TIP3   OH273176   1.651   0.802  11.124 -0.7359  0.2700 -0.3444
17254TIP3    H173177   1.612   0.726  11.166 -1.2529  0.6109 -0.1979
17254TIP3    H273178   1.642   0.784  11.030 -0.6386  0.0432 -0.3113
17255TIP3   OH273179   2.608   0.247  10.626  0.5268  0.5141  0.0098
17255TIP3    H173180   2.607   0.271  10.533 -0.8597  0.7292  0.0647
17255TIP3    H273181   2.681   0.186  10.634  0.6925  0.5269 -1.2066
17256TIP3   OH273182   0.041   4.690  16.111  0.0098  0.6680 -0.3445
17256TIP3    H173183  -0.020   4.670  16.182  1.0502  0.1875  0.4579
17256TIP3    H273184   0.074   4.777  16.133 -1.2064  1.4282 -1.4044
17257TIP3   OH273185   2.173   5.712   3.715 -0.6357 -0.0036 -0.2218
17257TIP3    H173186   2.222   5.760   3.782  3.2991 -1.9871 -1.3765
17257TIP3    H273187   2.166   5.773   3.642  3.3119 -0.5333 -1.2556
17258TIP3   OH273188   1.770   2.495   5.823  0.0559  0.0575 -0.4734
17258TIP3    H173189   1.729   2.491   5.737  0.6272 -0.0516 -0.7418
17258TIP3    H273190   1.731   2.571   5.865 -0.0013  0.2890 -0.9443
17259TIP3   OH273191   2.845   3.733  16.947  0.0055  0.3502  0.4614
17259TIP3    H173192   2.934   3.712  16.916  0.4675 -0.1598  2.0055
17259TIP3    H273193   2.839   3.828  16.942  0.3836  0.3413 -0.2994
17260TIP3   OH273194   5.253   3.365   2.410  0.5542  0.2123  0.1086
17260TIP3    H173195   5.323   3.331   2.466  0.1296 -0.4182  0.2782
17260TIP3    H273196   5.238   3.295   2.346  0.2357  0.4361 -0.0646
17261TIP3   OH273197   1.312   0.933  12.520 -0.4630  0.0749  0.0579
17261TIP3    H173198   1.231   0.893  12.552  0.0885 -1.2375 -0.1224
17261TIP3    H273199   1.300   0.940  12.425 -0.4292  0.0283  0.0500
17262TIP3   OH273200   3.612   6.173   2.970 -0.6399  0.1676 -0.2832
17262TIP3    H173201   3.624   6.113   2.897 -1.8113 -3.4432  2.2224
17262TIP3    H273202   3.701   6.187   3.003 -0.1225  1.6791 -2.1387
17263TIP3   OH273203   2.922   2.107   6.132 -0.2269  0.2526 -0.2331
17263TIP3    H173204   2.942   2.089   6.224  1.6267  1.2454 -0.3860
17263TIP3    H273205   2.881   2.193   6.133  2.6913  1.7807 -0.5011
17264TIP3   OH273206   3.171   3.556   6.789  0.2924  0.5960  0.0619
17264TIP3    H173207   3.223   3.580   6.712  0.3727  1.9318  0.4978
17264TIP3    H273208   3.099   3.620   6.790 -0.6110 -0.3961  0.2184
17265TIP3   OH273209   4.377   1.447   6.008  0.4956 -0.0901  0.0222
17265TIP3    H173210   4.362   1.457   6.102  0.0627 -2.8196  0.3357
17265TIP3    H273211   4.448   1.508   5.989 -1.1047  2.4169  1.5323
17266TIP3   OH273212   2.729   0.023   4.437  0.5218 -0.0340  0.0033
17266TIP3    H173213   2.671   0.078   4.385 -1.4594 -0.5762  1.4718
17266TIP3    H273214   2.768   0.083   4.501  1.6793  0.3399 -1.0150
17267TIP3   OH273215   5.523   6.795  13.396 -0.0839  0.1810  0.3941
17267TIP3    H173216   5.584   6.849  13.445  0.0947 -0.2388  0.6429
17267TIP3    H273217   5.563   6.708  13.394 -0.1630  0.1491 -0.3592
17268TIP3   OH273218   5.992   1.834   3.776  0.5162 -0.3763 -0.4895
17268TIP3    H173219   5.924   1.768   3.766 -0.0512  0.1261 -0.0765
17268TIP3    H273220   5.992   1.854   3.869  1.0180 -0.1494 -0.5372
17269TIP3   OH273221   2.462   6.424  15.290 -0.1052  0.2650 -0.0877
17269TIP3    H173222   2.387   6.414  15.233 -1.3489 -0.5160  1.5984
17269TIP3    H273223   2.437   6.493  15.352  1.2923  1.2593 -0.5776
17270TIP3   OH273224   4.839   1.229   1.754 -0.0507  0.1481 -0.3658
17270TIP3    H173225   4.787   1.200   1.680 -0.8837  0.7396 -0.0249
17270TIP3    H273226   4.820   1.166   1.823  0.0712  0.0813 -0.3925
17271TIP3   OH273227   6.440   4.175   1.645  0.1557 -0.3224 -0.7426
17271TIP3    H173228   6.355   4.195   1.606 -0.6289 -0.0951  0.9837
17271TIP3    H273229   6.503   4.223   1.591 -1.0753  1.6830 -0.5094
17272TIP3   OH273230   6.797   5.407  14.504  0.5459 -0.4029  0.0572
17272TIP3    H173231   6.868   5.343  14.499 -0.5438 -1.5866 -0.9228
17272TIP3    H273232   6.742   5.388  14.428 -1.2140 -0.0013  1.1577
17273TIP3   OH273233   1.516   1.854  10.968  0.3522  0.1460 -0.5268
17273TIP3    H173234   1.461   1.839  10.891  0.1082  0.6115 -0.4457
17273TIP3    H273235   1.466   1.816  11.041  0.0606  0.7154 -0.4285
17274TIP3   OH273236   0.802   0.394   4.939  0.3330  0.2907  0.4138
17274TIP3    H173237   0.754   0.372   5.019  1.6000 -0.8523  0.9176
17274TIP3    H273238   0.837   0.309   4.909  0.8289  0.8747 -0.7119
17275TIP3   OH273239   2.155   1.367   5.201 -0.0966  0.0696 -0.4375
17275TIP3    H173240   2.155   1.332   5.112 -0.0844  1.8835 -1.1908
17275TIP3    H273241   2.182   1.458   5.192 -0.9856  0.5671  1.3197
17276TIP3   OH273242   5.727   0.176   4.890 -0.4130 -1.1462  0.2296
17276TIP3    H173243   5.654   0.114   4.886  0.2442 -1.9153 -0.0891
17276TIP3    H273244   5.801   0.128   4.855  0.0828 -0.1164 -0.1849
17277TIP3   OH273245   1.312   1.850   4.904  0.4938 -0.1476 -0.3805
17277TIP3    H173246   1.320   1.945   4.915  1.0214 -0.4562  2.6669
17277TIP3    H273247   1.373   1.813   4.968  0.4750 -2.5844 -1.6516
17278TIP3   OH273248   2.976   1.443  11.805  0.2493  0.1232 -0.4915
17278TIP3    H173249   2.927   1.407  11.732 -1.9397  1.0436  0.4230
17278TIP3    H273250   2.965   1.379  11.876  0.1571  0.4587 -0.2000
17279TIP3   OH273251   0.498   0.174  11.473 -0.4128 -0.3452  0.2362
17279TIP3    H173252   0.512   0.190  11.567  0.5631 -0.2528  0.0890
17279TIP3    H273253   0.586   0.181  11.435 -0.6810 -1.1783 -0.5660
17280TIP3   OH273254   2.731   4.748   5.588  0.8704 -0.2298 -0.3016
17280TIP3    H173255   2.674   4.682   5.626 -2.0714  2.6088  0.6891
17280TIP3    H273256   2.751   4.714   5.501 -1.4390 -1.9276 -0.2785
17281TIP3   OH273257   4.688   5.959   1.278 -0.3902 -0.7755  0.5454
17281TIP3    H173258   4.644   5.992   1.357  0.0578 -1.2695  1.0092
17281TIP3    H273259   4.617   5.948   1.215 -0.6681  0.2383  0.6591
17282TIP3   OH273260   0.131   0.590  10.730  0.5506  0.7658 -0.4834
17282TIP3    H173261   0.182   0.601  10.810  1.2016  0.0260 -0.7777
17282TIP3    H273262   0.111   0.679  10.702 -0.8001  1.0294  1.1784
17283TIP3   OH273263   4.399   4.924   3.230  0.4813 -0.2419 -0.0050
17283TIP3    H173264   4.468   4.959   3.174  1.1712 -1.2629  0.1740
17283TIP3    H273265   4.397   4.830   3.209 -0.9432 -0.2224 -0.0984
17284TIP3   OH273266   5.192   6.445   4.317  0.1122 -0.3155 -0.6332
17284TIP3    H173267   5.157   6.414   4.234 -2.4357 -2.1025  0.9516
17284TIP3    H273268   5.157   6.533   4.327 -0.0217 -0.3048 -1.2072
17285TIP3   OH273269   6.714   5.388  11.350  0.5745 -0.3367  0.5018
17285TIP3    H173270   6.767   5.450  11.300 -2.0873  1.7883  0.0889
17285TIP3    H273271   6.719   5.419  11.440  0.5482 -0.5182  0.5658
17286TIP3   OH273272   5.311   5.239  14.502 -0.0354 -0.7161 -0.0007
17286TIP3    H173273   5.316   5.231  14.407  0.9748 -1.8113  0.1089
17286TIP3    H273274   5.381   5.300  14.525  0.5478 -1.4004  0.1062
17287TIP3   OH273275   6.671   6.788   2.900  0.1846 -0.1885 -0.5235
17287TIP3    H173276   6.575   6.789   2.903  0.1640  0.5727 -1.3238
17287TIP3    H273277   6.692   6.764   2.810  0.7565 -0.2860 -0.3678
17288TIP3   OH273278   4.155   1.171  11.838  0.0964 -0.1742 -0.4194
17288TIP3    H173279   4.213   1.111  11.886  2.5951  1.8473 -0.7177
17288TIP3    H273280   4.182   1.161  11.746 -1.2303 -0.3869 -0.8118
17289TIP3   OH273281   4.916   5.292   3.035  0.0300 -0.2479  0.0364
17289TIP3    H173282   5.009   5.296   3.059 -0.1158 -1.0867  0.7806
17289TIP3    H273283   4.869   5.307   3.117 -0.4979  0.4328 -0.3844
17290TIP3   OH273284   2.521   4.035   1.781  0.6249 -0.2566 -0.2943
17290TIP3    H173285   2.552   4.030   1.690  0.3100  1.6864 -0.5476
17290TIP3    H273286   2.425   4.027   1.774  0.6800 -1.3514  0.0123
17291TIP3   OH273287   1.056   2.522   3.459  0.4741 -0.1489 -0.4975
17291TIP3    H173288   1.003   2.599   3.476  0.8219 -0.1098  0.4303
17291TIP3    H273289   1.147   2.552   3.467  0.6158 -0.9786  1.4713
17292TIP3   OH273290   6.624   2.278   0.367 -0.2089 -0.1826  0.3358
17292TIP3    H173291   6.701   2.222   0.361 -0.4723 -0.4264 -1.1515
17292TIP3    H273292   6.639   2.347   0.302  0.0605  1.4354  2.0453
17293TIP3   OH273293   2.735   6.751   2.862  0.0900 -0.1563  0.1673
17293TIP3    H173294   2.696   6.739   2.775 -0.5685  1.2952  0.2323
17293TIP3    H273295   2.671   6.714   2.923 -0.0550  0.0248  0.1233
17294TIP3   OH273296   2.921   2.788  13.277  0.0968  0.5015  0.1973
17294TIP3    H173297   2.873   2.871  13.269  0.7256  0.7981 -0.6454
17294TIP3    H273298   3.011   2.811  13.257 -0.0471 -0.7587 -2.3418
17295TIP3   OH273299   0.874   0.093   3.285  0.3934 -0.0498 -0.7032
17295TIP3    H173300   0.927   0.164   3.248 -0.0919  0.0111 -1.2867
17295TIP3    H273301   0.938   0.030   3.319  0.8340  0.8708  0.2353
17296TIP3   OH273302   2.175   6.706  11.075 -0.3118  0.5248  0.6228
17296TIP3    H173303   2.135   6.670  10.996  0.2793  1.4527 -0.1083
17296TIP3    H273304   2.213   6.630  11.119  2.1144  0.3322 -1.5635
17297TIP3   OH273305   2.361   5.640  11.299 -0.0406 -0.4264 -0.0338
17297TIP3    H173306   2.343   5.696  11.224 -0.5794 -0.6443 -0.0754
17297TIP3    H273307   2.454   5.617  11.290 -0.3832 -1.4487 -1.3289
17298TIP3   OH273308   1.649   5.980   0.119  0.1148 -0.3718 -0.8022
17298TIP3    H173309   1.571   6.028   0.092  0.6771  1.0803  0.0239
17298TIP3    H273310   1.625   5.938   0.201  0.3723  0.6284 -0.1946
17299TIP3   OH273311   5.067   3.396   2.860 -0.1292  0.5380 -0.0503
17299TIP3    H173312   5.062   3.430   2.949 -1.4807  1.1205 -0.3178
17299TIP3    H273313   5.141   3.442   2.820 -1.0188  2.1461  0.0445
17300TIP3   OH273314   4.904   3.133   2.399  0.2491 -1.3371  0.3849
17300TIP3    H173315   4.825   3.118   2.451  0.9565 -0.8982  1.6232
17300TIP3    H273316   4.971   3.079   2.441  0.9089 -0.7478  0.1036
17301TIP3   OH273317   0.447   3.665  15.347  0.2466  0.0437  0.2059
17301TIP3    H173318   0.354   3.672  15.327  0.6853  1.4795 -1.6572
17301TIP3    H273319   0.484   3.620  15.272  1.2659  0.9331  0.1516
17302TIP3   OH273320   1.416   3.654   3.231  0.4165 -0.2105 -0.4538
17302TIP3    H173321   1.501   3.610   3.233  1.1342  1.0921 -1.1389
17302TIP3    H273322   1.430   3.736   3.278 -0.6154 -0.2006 -0.1266
17303TIP3   OH273323   5.470   3.931  16.761  0.2190  0.8125 -0.4647
17303TIP3    H173324   5.375   3.921  16.754  0.2569 -0.3458  0.4101
17303TIP3    H273325   5.488   3.926  16.854  1.3026 -0.7096 -0.7209
17304TIP3   OH273326   1.866   6.693  16.258 -0.0388  0.1511 -0.0798
17304TIP3    H173327   1.910   6.666  16.177 -1.6040  0.5717 -1.1049
17304TIP3    H273328   1.775   6.710  16.232  0.0440  3.1263  1.1442
17305TIP3   OH273329   5.852   2.694  13.075  0.0052  0.7289 -0.5481
17305TIP3    H173330   5.807   2.769  13.115 -0.2782  0.5880 -0.6010
17305TIP3    H273331   5.784   2.627  13.066 -0.3104  1.2604 -2.6538
17306TIP3   OH273332   6.419   4.364   4.600  0.0412 -0.0376  0.4620
17306TIP3    H173333   6.434   4.453   4.567  1.2592 -0.8877 -1.4655
17306TIP3    H273334   6.494   4.314   4.568 -1.3813 -2.1045  0.1364
17307TIP3   OH273335   5.333   6.555  11.761 -0.5622 -0.3242  0.5385
17307TIP3    H173336   5.246   6.591  11.743 -1.3086 -2.9227 -1.7412
17307TIP3    H273337   5.382   6.567  11.679  0.7953 -0.1717  1.3330
17308TIP3   OH273338   3.119   0.237   5.150  0.3717 -0.1069  0.1445
17308TIP3    H173339   3.193   0.289   5.118  1.1127 -1.3674 -0.2557
17308TIP3    H273340   3.152   0.191   5.226  1.2075 -3.4168 -2.0105
17309TIP3   OH273341   2.667   2.771   1.230  0.1802 -0.0183 -0.0599
17309TIP3    H173342   2.602   2.790   1.162  0.7383 -0.3559 -0.6973
17309TIP3    H273343   2.652   2.838   1.297 -2.1356 -1.2423  0.7635
17310TIP3   OH273344   6.768   2.494  13.248  0.2075 -0.1186  0.2609
17310TIP3    H173345   6.751   2.446  13.166  2.5309  1.5346 -1.3530
17310TIP3    H273346   6.721   2.445  13.315 -1.1613 -2.0355 -1.9343
17311TIP3   OH273347   5.643   4.446   1.285  0.9087  0.0958  0.0550
17311TIP3    H173348   5.670   4.429   1.195  0.8570  1.5121 -0.2493
17311TIP3    H273349   5.553   4.414   1.290  0.0828  2.1166 -1.1013
17312TIP3   OH273350   4.333   2.296   4.037  0.0594  0.0676 -0.3110
17312TIP3    H173351   4.279   2.365   3.998 -0.0837 -0.1419 -0.4859
17312TIP3    H273352   4.270   2.228   4.062  0.3766 -0.8806 -1.9761
17313TIP3   OH273353   0.548   4.191  15.817 -0.6420  0.0701 -0.3711
17313TIP3    H173354   0.626   4.211  15.766 -1.2916  0.9704 -1.0467
17313TIP3    H273355   0.488   4.263  15.799 -0.7892  0.5996  1.9254
17314TIP3   OH273356   0.059   3.984  13.451  0.1995 -0.0626 -0.1216
17314TIP3    H173357   0.110   4.047  13.400 -0.2606  2.0260  1.8362
17314TIP3    H273358  -0.030   4.020  13.451 -0.0968 -0.7578  0.9722
17315TIP3   OH273359   4.615   2.487   4.010  0.1103 -0.1670 -0.4457
17315TIP3    H173360   4.576   2.485   3.922 -0.5250  1.2146 -0.2288
17315TIP3    H273361   4.541   2.479   4.069  0.0384  2.6311 -0.0235
17316TIP3   OH273362   0.804   4.421   5.868 -0.7185 -0.5055  0.1385
17316TIP3    H173363   0.763   4.364   5.933 -0.8693 -0.5551  0.0000
17316TIP3    H273364   0.894   4.431   5.898 -0.8158 -0.4461  0.4130
17317TIP3   OH273365   5.417   1.994  13.166  0.3347 -0.0593  0.5303
17317TIP3    H173366   5.417   2.085  13.196 -0.8192  0.5465 -1.1701
17317TIP3    H273367   5.335   1.984  13.118  1.2904 -1.4278 -0.9484
17318TIP3   OH273368   3.917   4.600  12.940 -0.0631 -0.4824 -0.5764
17318TIP3    H173369   3.906   4.572  12.850 -1.1777 -0.9169 -0.3225
17318TIP3    H273370   3.886   4.526  12.993  1.0211 -0.4245  0.1778
17319TIP3   OH273371   3.159   1.195   0.380  0.1047 -0.5241  0.1840
17319TIP3    H173372   3.070   1.170   0.355 -0.4274  0.7082  0.7489
17319TIP3    H273373   3.171   1.156   0.466  0.5519 -1.6397 -0.3645
17320TIP3   OH273374   2.687   1.664   4.923  0.0918 -0.4228 -0.2857
17320TIP3    H173375   2.615   1.719   4.951  1.3382  1.5142 -0.6753
17320TIP3    H273376   2.648   1.601   4.862 -1.2972  0.3899 -0.2583
17321TIP3   OH273377   2.265   1.056  13.792 -0.1639 -0.5054  0.1842
17321TIP3    H173378   2.221   0.996  13.731  1.9528 -0.2580 -1.7487
17321TIP3    H273379   2.299   1.000  13.861 -1.3393 -1.0162  0.3645
17322TIP3   OH273380   6.804   2.204  16.127  0.1553  0.1285  0.2269
17322TIP3    H173381   6.759   2.184  16.045  1.3573 -0.3927 -0.3430
17322TIP3    H273382   6.748   2.168  16.195 -1.1195  1.0282 -0.3134
17323TIP3   OH273383   4.113   3.278   2.499  0.2256  0.0222  0.0747
17323TIP3    H173384   4.058   3.201   2.483 -0.6248  0.5458  0.4397
17323TIP3    H273385   4.052   3.351   2.501  1.1213  0.8262 -1.0779
17324TIP3   OH273386   2.154   0.419   6.369  0.2256 -0.0094  0.2811
17324TIP3    H173387   2.157   0.439   6.463 -0.5808 -0.2536  0.3684
17324TIP3    H273388   2.206   0.339   6.360  1.3864  0.7145  0.3102
17325TIP3   OH273389   0.046   0.470  16.208 -0.2781  0.2580 -0.2706
17325TIP3    H173390   0.106   0.449  16.279 -1.1241 -0.8204  0.1560
17325TIP3    H273391   0.011   0.556  16.231  0.0076  0.2406  0.2400
17326TIP3   OH273392   3.188   0.939  12.231  0.0424 -0.0242  0.0941
17326TIP3    H173393   3.192   1.032  12.209  0.2579  0.1500  0.8446
17326TIP3    H273394   3.196   0.894  12.147 -2.3839  0.6350 -0.5654
17327TIP3   OH273395   6.060   2.440   5.243 -0.1459 -0.0411  0.2896
17327TIP3    H173396   6.143   2.433   5.197 -0.4193  0.9025 -0.3818
17327TIP3    H273397   6.040   2.351   5.270  0.0345 -0.6381 -1.4191
17328TIP3   OH273398   1.260   5.471   4.420 -0.0760  0.3292 -0.0665
17328TIP3    H173399   1.181   5.508   4.459  0.6641  1.5044  0.3537
17328TIP3    H273400   1.268   5.384   4.461 -0.3235  0.8009  1.0272
17329TIP3   OH273401   4.432   3.298  14.051 -0.0081 -0.2823 -0.1809
17329TIP3    H173402   4.514   3.269  14.012 -0.0685  0.8256 -1.1896
17329TIP3    H273403   4.458   3.343  14.131  0.3140 -0.5350 -0.1420
17330TIP3   OH273404   6.572   1.524  15.622  0.2216  0.0407  0.2082
17330TIP3    H173405   6.561   1.525  15.717 -0.7929  1.4241  0.1139
17330TIP3    H273406   6.525   1.602  15.592  0.9267 -0.1105 -1.3882
17331TIP3   OH273407   6.245   3.076  17.061  0.0335 -0.2193 -0.1355
17331TIP3    H173408   6.167   3.021  17.063 -0.3208  0.2614 -0.4163
17331TIP3    H273409   6.243   3.123  17.145  0.3406 -0.6415  0.1087
17332TIP3   OH273410   1.778   3.820  14.896 -0.5234 -0.1038  0.3138
17332TIP3    H173411   1.764   3.891  14.958 -1.9806  0.0115 -0.1181
17332TIP3    H273412   1.764   3.860  14.810 -0.5478 -0.7200  0.0223
17333TIP3   OH273413   1.273   6.514  15.851  0.3362  0.1826 -0.0180
17333TIP3    H173414   1.360   6.483  15.875 -0.5561 -3.3767 -0.6989
17333TIP3    H273415   1.282   6.548  15.763  0.7280 -2.5100 -1.1186
17334TIP3   OH273416   5.315   1.906  14.857  0.1590  0.7106 -0.7632
17334TIP3    H173417   5.353   1.918  14.769  0.4318  1.6871 -0.5270
17334TIP3    H273418   5.379   1.851  14.903 -0.6252 -0.9405 -1.5682
17335TIP3   OH273419   6.163   5.223   3.108  0.4080 -0.2774  0.3300
17335TIP3    H173420   6.139   5.298   3.053  0.4699 -1.0264 -0.7438
17335TIP3    H273421   6.088   5.164   3.103  0.8232 -0.8053  0.2426
17336TIP3   OH273422   3.556   2.046  12.311 -0.2896  0.0270  0.4941
17336TIP3    H173423   3.645   2.010  12.314  0.2567  1.2581  0.0320
17336TIP3    H273424   3.556   2.114  12.379 -1.3448 -0.9028  1.4636
17337TIP3   OH273425   2.082   4.876   0.357  0.3697  0.0335  0.5433
17337TIP3    H173426   2.004   4.923   0.385 -1.1340 -2.0913  0.1776
17337TIP3    H273427   2.083   4.887   0.261 -1.8586 -3.0964 -0.0064
17338TIP3   OH273428   5.868   0.177  15.464 -0.3373  0.0825  0.9373
17338TIP3    H173429   5.818   0.132  15.533  0.8476  0.8905  2.3923
17338TIP3    H273430   5.815   0.254  15.443  0.2306  0.9678  2.5153
17339TIP3   OH273431   3.903   0.583   0.522  0.2740 -0.5813  0.2796
17339TIP3    H173432   3.828   0.587   0.582 -0.5613  1.3147 -0.8065
17339TIP3    H273433   3.880   0.643   0.451  2.0957 -1.2755 -0.9601
17340TIP3   OH273434   6.366   6.294   2.385 -0.0609  0.2531  0.4147
17340TIP3    H173435   6.322   6.365   2.339  0.1239 -0.5701 -1.1262
17340TIP3    H273436   6.377   6.226   2.318  2.1132 -0.1950  1.1273
17341TIP3   OH273437   5.911   2.035   1.570 -0.1225  0.0056 -0.2108
17341TIP3    H173438   5.998   1.998   1.555  0.5821  0.6201  2.0064
17341TIP3    H273439   5.894   2.021   1.663 -2.6419 -0.5112 -0.6699
17342TIP3   OH273440   2.514   0.025  14.531 -0.6910 -0.2940  0.0945
17342TIP3    H173441   2.486   0.113  14.507  0.7717 -0.2430 -1.6346
17342TIP3    H273442   2.569   0.038  14.609  0.6899  0.5522 -0.9717
17343TIP3   OH273443   3.762   1.007   1.973  0.6188 -0.0835  0.1277
17343TIP3    H173444   3.694   1.049   2.027 -0.2419 -1.3534  0.0719
17343TIP3    H273445   3.817   1.080   1.944 -0.1863  0.8830  0.9182
17344TIP3   OH273446   3.820   1.465  16.714 -0.2804  0.1087 -0.4559
17344TIP3    H173447   3.900   1.418  16.736 -0.7952 -0.4041  0.3698
17344TIP3    H273448   3.841   1.557  16.730 -0.6260 -0.2174  2.3742
17345TIP3   OH273449   1.891   4.278   3.209  0.3427 -0.6737  0.4806
17345TIP3    H173450   1.857   4.263   3.121  0.4565  2.9949 -0.3663
17345TIP3    H273451   1.984   4.260   3.203  0.9773  2.3934 -1.1918
17346TIP3   OH273452   3.821   6.749   5.196 -0.0686 -0.0552 -0.2749
17346TIP3    H173453   3.880   6.806   5.147  0.7894 -1.0485 -0.4357
17346TIP3    H273454   3.804   6.676   5.137 -0.0389 -0.6452  0.4318
17347TIP3   OH273455   0.563   3.164  16.898  0.0379 -0.0253  0.7742
17347TIP3    H173456   0.507   3.224  16.850 -0.4983 -0.6122  0.6615
17347TIP3    H273457   0.637   3.218  16.927  0.2861  0.3864 -0.5395
17348TIP3   OH273458   0.012   1.264   1.199  0.0447 -0.5290  0.2282
17348TIP3    H173459   0.010   1.284   1.105  0.2748  1.1834  0.5457
17348TIP3    H273460   0.104   1.244   1.218 -0.0845 -1.3483  0.0110
17349TIP3   OH273461   2.311   1.276   3.796  0.5542 -0.2498  0.0151
17349TIP3    H173462   2.332   1.300   3.706 -0.6598  1.4005  0.1138
17349TIP3    H273463   2.237   1.215   3.789 -1.0209  1.5737 -0.1209
17350TIP3   OH273464   1.260   1.251  15.672  0.2683  0.5476 -0.2346
17350TIP3    H173465   1.305   1.169  15.694 -0.5781  0.3871  0.9709
17350TIP3    H273466   1.305   1.318  15.722 -0.6048  0.4308  0.7404
17351TIP3   OH273467   4.727   4.275  14.007  0.4325  0.2817 -0.1056
17351TIP3    H173468   4.805   4.287  14.061  0.1058  1.4200  0.1269
17351TIP3    H273469   4.762   4.252  13.920  1.0870  2.0158 -0.3273
17352TIP3   OH273470   3.853   6.267  15.168  0.2891 -0.0673 -0.2248
17352TIP3    H173471   3.816   6.232  15.087  1.5667  0.5515 -1.1186
17352TIP3    H273472   3.937   6.221  15.177 -0.6910 -1.6731  1.9065
17353TIP3   OH273473   1.240   5.478   5.475 -0.0578  0.2850  0.7108
17353TIP3    H173474   1.169   5.499   5.415  2.2910  4.0942 -1.1715
17353TIP3    H273475   1.213   5.514   5.559 -0.1485  2.3751 -0.1644
17354TIP3   OH273476   1.688   2.327  13.462 -0.6458  0.2308 -0.0643
17354TIP3    H173477   1.652   2.302  13.378 -0.3432 -0.8545  0.1152
17354TIP3    H273478   1.643   2.271  13.526  0.0895  0.0815  0.3384
17355TIP3   OH273479   5.179   1.055  13.613 -0.3837 -0.0475  0.0627
17355TIP3    H173480   5.271   1.071  13.589 -0.5153  0.2501 -0.2581
17355TIP3    H273481   5.167   0.962  13.597  0.2825 -0.4088  1.5545
17356TIP3   OH273482   1.471   0.165   1.469 -0.3336  0.1116  0.4442
17356TIP3    H173483   1.548   0.133   1.422 -0.6450  0.9714 -0.7068
17356TIP3    H273484   1.491   0.152   1.561  1.3366  0.6583  0.1795
17357TIP3   OH273485   3.729   6.693   3.938 -0.2278 -0.0740  0.1422
17357TIP3    H173486   3.682   6.764   3.981 -1.2453 -0.4142 -0.3766
17357TIP3    H273487   3.775   6.648   4.009 -1.3718 -0.2473  0.8074
17358TIP3   OH273488   4.904   3.104  15.664  0.1612 -0.2213  0.4762
17358TIP3    H173489   4.831   3.056  15.704  0.7137  0.9279  3.0526
17358TIP3    H273490   4.861   3.163  15.602 -0.8796 -1.0902  0.3238
17359TIP3   OH273491   5.630   1.423   6.479 -0.4888 -0.2210 -0.5156
17359TIP3    H173492   5.633   1.383   6.566  0.4074  2.2102  0.6594
17359TIP3    H273493   5.702   1.382   6.431  0.3861 -0.0755  0.6282
17360TIP3   OH273494   4.610   4.167   0.784 -0.4388 -0.0633 -0.1762
17360TIP3    H173495   4.673   4.237   0.767 -1.5749  1.2385  0.7734
17360TIP3    H273496   4.658   4.104   0.838 -0.0892  1.1810  1.0223
17361TIP3   OH273497   2.487   5.695   0.369  1.0820 -0.1207  0.2132
17361TIP3    H173498   2.525   5.783   0.376 -0.1369  0.3720  1.0098
17361TIP3    H273499   2.558   5.641   0.334  2.1541  0.9792  0.6017
17362TIP3   OH273500   5.326   6.125   3.816  0.0607 -0.0123  0.3038
17362TIP3    H173501   5.389   6.063   3.854  0.2983 -0.3321 -0.5698
17362TIP3    H273502   5.380   6.196   3.783 -0.0684 -0.0887 -0.0775
17363TIP3   OH273503   3.771   2.323   2.382 -0.7270 -0.0837 -0.3325
17363TIP3    H173504   3.759   2.236   2.421 -0.4623  0.0929  0.1519
17363TIP3    H273505   3.864   2.343   2.395 -0.6076 -0.0658 -1.1580
17364TIP3   OH273506   5.115   3.624   4.263 -0.1296 -0.0287  0.1072
17364TIP3    H173507   5.108   3.700   4.205  0.7073  0.2770  0.3867
17364TIP3    H273508   5.032   3.621   4.310 -0.1997  0.6720  0.0343
17365TIP3   OH273509   0.783   2.809   4.431  0.4122  0.3694 -0.4267
17365TIP3    H173510   0.776   2.900   4.404  1.5810  1.3524  2.2356
17365TIP3    H273511   0.756   2.809   4.522 -0.3044 -2.1261 -0.5721
17366TIP3   OH273512   2.301   4.396  11.218  0.0663  0.3783  0.1819
17366TIP3    H173513   2.381   4.433  11.255  1.0656 -0.5995 -0.9303
17366TIP3    H273514   2.307   4.415  11.124 -1.4737  1.1117  0.2020
17367TIP3   OH273515   0.205   0.700  12.106 -0.2535  0.2253 -0.5493
17367TIP3    H173516   0.273   0.635  12.086 -0.8097 -0.0970 -1.4809
17367TIP3    H273517   0.232   0.738  12.190 -0.2179 -1.6452  0.3542
17368TIP3   OH273518   4.442   3.652  13.686 -0.4921  0.0752 -0.4241
17368TIP3    H173519   4.466   3.568  13.649 -0.9253 -0.0964 -0.3161
17368TIP3    H273520   4.419   3.633  13.777 -1.2988  0.1911 -0.5980
17369TIP3   OH273521   5.082   4.499   4.688 -0.4726 -0.1245  0.0145
17369TIP3    H173522   5.060   4.441   4.615  1.3327 -0.3947 -0.3822
17369TIP3    H273523   5.098   4.584   4.646 -1.3856  0.2384  0.3746
17370TIP3   OH273524   3.663   4.858   3.818  0.0178 -0.3201  0.0230
17370TIP3    H173525   3.684   4.784   3.762 -3.0798  1.3108 -3.7509
17370TIP3    H273526   3.666   4.934   3.761 -2.7976  1.6081  2.1217
17371TIP3   OH273527   4.598   3.515   2.515 -0.0045  0.3573 -0.4989
17371TIP3    H173528   4.634   3.551   2.434  5.5334  0.4811  1.5963
17371TIP3    H273529   4.589   3.590   2.573  1.3638 -0.2850  0.6004
17372TIP3   OH273530   2.621   4.173   4.866 -0.7917  0.3492  0.6284
17372TIP3    H173531   2.611   4.234   4.793  0.8918  0.2621  0.2687
17372TIP3    H273532   2.583   4.091   4.835  0.2573  0.2048 -0.3271
17373TIP3   OH273533   6.126   1.886   1.580 -0.1728 -0.2885 -0.4323
17373TIP3    H173534   6.114   1.831   1.657 -0.6581 -0.6080 -0.7269
17373TIP3    H273535   6.207   1.854   1.540  1.0616  1.0474  0.8902
17374TIP3   OH273536   4.997   3.315  17.072  0.0689 -0.1230 -0.2197
17374TIP3    H173537   5.053   3.390  17.092  0.4834 -0.8783  1.6620
17374TIP3    H273538   5.056   3.249  17.036  0.1208 -0.3195  0.2093
17375TIP3   OH273539   2.856   6.082   4.781  0.6728 -0.1986 -0.4615
17375TIP3    H173540   2.906   6.155   4.743  0.5927  0.1347  0.0710
17375TIP3    H273541   2.798   6.054   4.710 -0.7014  1.5432 -0.0851
17376TIP3   OH273542   6.561   0.886  13.761  0.3698  1.0515  0.0179
17376TIP3    H173543   6.579   0.967  13.808 -1.9735  3.3422 -2.6759
17376TIP3    H273544   6.465   0.883  13.753  0.4959 -0.8325 -1.7901
17377TIP3   OH273545   6.662   4.413  14.960  0.4813  0.2647 -0.1425
17377TIP3    H173546   6.647   4.327  14.922 -2.8753  1.0251 -0.8222
17377TIP3    H273547   6.665   4.397  15.055  1.5970 -0.7440 -0.3216
17378TIP3   OH273548   3.575   6.602  15.646  0.3966  0.4737  0.2492
17378TIP3    H173549   3.549   6.693  15.630  0.4963  0.7123  1.3318
17378TIP3    H273550   3.668   6.599  15.621 -0.2290 -0.0510 -2.3633
17379TIP3   OH273551   1.166   4.509  12.976  0.2538 -0.3286  0.4038
17379TIP3    H173552   1.137   4.581  12.920 -0.1498  1.7431  3.0841
17379TIP3    H273553   1.161   4.544  13.065  4.8227 -1.9540  1.5871
17380TIP3   OH273554   6.610   6.418  12.778 -0.4778  0.1442 -0.1225
17380TIP3    H173555   6.632   6.452  12.865 -1.5208  0.8733 -0.1254
17380TIP3    H273556   6.570   6.492  12.733  2.0475  0.4662 -2.0558
17381TIP3   OH273557   2.406   6.100   4.612  0.0495  0.3129 -0.4576
17381TIP3    H173558   2.354   6.089   4.692  1.2140 -0.4937  0.2277
17381TIP3    H273559   2.447   6.186   4.622 -2.4794  1.7962 -1.8520
17382TIP3   OH273560   3.328   4.903   1.231  0.1821 -0.3546 -0.1579
17382TIP3    H173561   3.281   4.895   1.148  0.1032 -1.1386 -0.0526
17382TIP3    H273562   3.293   4.832   1.285  0.5112 -0.0971  0.4082
17383TIP3   OH273563   2.038   5.781   1.361 -0.3036 -0.5612 -0.2231
17383TIP3    H173564   2.064   5.841   1.431  0.9547  0.1462 -1.2571
17383TIP3    H273565   1.968   5.826   1.314 -1.0847 -0.9971  0.4932
17384TIP3   OH273566   2.422   1.002   4.120  0.2843  0.5485 -0.3182
17384TIP3    H173567   2.469   1.030   4.042 -2.0777  1.6690 -1.4545
17384TIP3    H273568   2.362   0.934   4.089 -0.2782  0.5914  0.6259
17385TIP3   OH273569   3.875   6.077  16.836 -0.1667 -0.0612  0.0317
17385TIP3    H173570   3.888   6.079  16.741 -0.1382 -1.4007 -0.0215
17385TIP3    H273571   3.930   6.147  16.870  0.9048 -0.4484 -0.8402
17386TIP3   OH273572   4.222   4.573   6.388  0.5154 -0.2724  0.6235
17386TIP3    H173573   4.234   4.593   6.295  1.3488 -1.7328  0.3809
17386TIP3    H273574   4.131   4.596   6.406  0.9915  2.3250  0.0771
17387TIP3   OH273575   3.140   5.218   6.436 -0.5312 -0.5647  1.1558
17387TIP3    H173576   3.170   5.129   6.419  1.8104  0.5935 -1.3889
17387TIP3    H273577   3.217   5.264   6.470 -0.7533  1.2212 -0.5598
17388TIP3   OH273578   3.561   1.012  10.954  1.0761  0.2131  0.1904
17388TIP3    H173579   3.589   1.058  10.875 -1.1231 -0.8029 -1.2846
17388TIP3    H273580   3.631   0.948  10.970  1.3598  0.1392 -1.2096
17389TIP3   OH273581   3.901   5.007  15.134  0.0052  0.0855  0.3974
17389TIP3    H173582   3.844   4.940  15.170  0.0804 -0.3955 -0.3549
17389TIP3    H273583   3.933   4.970  15.052  0.0369  1.0405 -0.0399
17390TIP3   OH273584   5.644   1.176  14.035  0.3684  0.2742  0.3268
17390TIP3    H173585   5.623   1.093  14.076 -1.6592 -0.3677 -1.8214
17390TIP3    H273586   5.664   1.234  14.109  1.0145 -1.8416  1.9240
17391TIP3   OH273587   0.283   5.804  14.406  0.2456  0.4598  0.0644
17391TIP3    H173588   0.342   5.879  14.391 -0.4755  0.8044 -1.2297
17391TIP3    H273589   0.195   5.839  14.389 -0.0419 -0.8659 -1.4437
17392TIP3   OH273590   0.566   5.954   3.915  0.1790 -0.5420 -0.5015
17392TIP3    H173591   0.543   6.036   3.959  0.3355 -0.6877 -0.1355
17392TIP3    H273592   0.610   5.903   3.983 -1.3943 -1.6138 -0.2244
17393TIP3   OH273593   5.938   1.223   3.289  0.0394  0.5394  0.2426
17393TIP3    H173594   5.924   1.129   3.299  1.6985  0.2745  0.2888
17393TIP3    H273595   5.873   1.263   3.347 -1.6003 -0.5060 -0.7788
17394TIP3   OH273596   3.544   1.800  16.609  0.5148 -0.0898 -0.8113
17394TIP3    H173597   3.615   1.837  16.662 -0.2892 -0.9583  0.9746
17394TIP3    H273598   3.585   1.729  16.560  0.7709 -1.1697  0.8700
17395TIP3   OH273599   1.937   6.618  10.907 -0.9544  0.1434 -0.2758
17395TIP3    H173600   1.955   6.537  10.860 -3.6827 -1.8458  1.7897
17395TIP3    H273601   1.875   6.665  10.851 -1.8108 -0.7415 -0.0923
17396TIP3   OH273602   2.593   1.481  12.321 -0.0613  0.4443  0.5266
17396TIP3    H173603   2.498   1.485  12.312  0.1038  2.0731 -1.0703
17396TIP3    H273604   2.614   1.388  12.325 -1.8299  0.0629  2.7582
17397TIP3   OH273605   1.200   4.164  13.965 -0.5557  0.3574 -0.1038
17397TIP3    H173606   1.190   4.092  13.902 -1.7464 -0.0772  0.5475
17397TIP3    H273607   1.170   4.241  13.917  0.3324  0.3606 -0.6722
17398TIP3   OH273608   1.485   3.420  15.120 -0.8651 -0.5477  0.1321
17398TIP3    H173609   1.521   3.380  15.040 -0.8371 -2.3482  1.0032
17398TIP3    H273610   1.555   3.477  15.151 -1.1319  0.7431 -1.4812
17399TIP3   OH273611   0.969   4.214   5.296  0.0316  0.2502 -0.1651
17399TIP3    H173612   0.997   4.288   5.351  0.9633 -0.4926  0.3817
17399TIP3    H273613   0.874   4.222   5.292 -0.1248  0.0045  2.0526
17400TIP3   OH273614   6.199   0.017   5.992  0.0335 -0.6949 -1.1073
17400TIP3    H173615   6.170  -0.061   5.944  1.3984 -1.9221 -0.0211
17400TIP3    H273616   6.215  -0.014   6.081 -0.0321  0.9963 -0.4713
17401TIP3   OH273617   3.062   2.227   0.587  0.7292  0.0368  0.4094
17401TIP3    H173618   2.975   2.209   0.622  0.5096  0.6306  0.1895
17401TIP3    H273619   3.101   2.141   0.572 -0.2186 -0.2512 -0.4729
17402TIP3   OH273620   4.075   4.153   1.355 -0.0151  0.3594 -0.0017
17402TIP3    H173621   4.025   4.186   1.430  2.3898  1.1969  1.3512
17402TIP3    H273622   4.021   4.082   1.319 -1.4047  0.1218  2.3373
17403TIP3   OH273623   5.054   0.457  14.257  0.3248 -0.3755  0.3178
17403TIP3    H173624   5.107   0.531  14.230 -0.1810 -0.1062  0.0488
17403TIP3    H273625   5.027   0.478  14.347 -1.5131  0.7711 -0.4362
17404TIP3   OH273626   3.260   6.086   5.734  1.1675  0.4213  0.2506
17404TIP3    H173627   3.235   6.176   5.716  1.4276  0.5822  0.7066
17404TIP3    H273628   3.184   6.049   5.780  1.1588  0.4736  0.2779
17405TIP3   OH273629   2.222   1.586   2.907  0.2626 -0.3611  0.0866
17405TIP3    H173630   2.237   1.533   2.986  1.0358  1.2600  1.0722
17405TIP3    H273631   2.309   1.601   2.871 -0.0413 -0.5947 -0.7687
17406TIP3   OH273632   5.744   5.934   2.427 -0.1693 -0.2858  0.3854
17406TIP3    H173633   5.784   5.857   2.387 -0.7224 -0.8873  0.9681
17406TIP3    H273634   5.659   5.904   2.458 -0.5639  0.6636  0.2643
17407TIP3   OH273635   3.190   2.430  15.016 -0.3354 -0.1500 -0.0148
17407TIP3    H173636   3.256   2.441  14.947  1.0313 -1.2125  1.0572
17407TIP3    H273637   3.126   2.500  15.000  2.0037  2.1306 -0.0228
17408TIP3   OH273638   1.427   5.333  11.209  0.4666  0.6393 -0.0323
17408TIP3    H173639   1.362   5.361  11.274 -0.0819  0.6203 -0.5645
17408TIP3    H273640   1.387   5.257  11.167  1.9895 -1.0997  1.5046
17409TIP3   OH273641   0.203   6.319  13.260  0.3671 -0.1256  0.4491
17409TIP3    H173642   0.269   6.373  13.216 -0.0146 -0.1693 -0.1932
17409TIP3    H273643   0.123   6.332  13.208 -0.1029 -0.1612  1.1458
17410TIP3   OH273644   1.238   5.953  10.912  0.7963 -0.3956  0.1831
17410TIP3    H173645   1.188   5.894  10.856  0.0347 -1.5210  1.9412
17410TIP3    H273646   1.173   5.990  10.971  1.7226 -0.1656  1.0909
17411TIP3   OH273647   3.749   5.490   5.145  0.0043 -0.0525  0.3183
17411TIP3    H173648   3.726   5.574   5.184 -0.2706 -1.0581  2.4260
17411TIP3    H273649   3.695   5.485   5.066  0.7886  2.1584 -0.4319
17412TIP3   OH273650   6.297   2.487   0.772  0.1038  0.7511 -0.0105
17412TIP3    H173651   6.260   2.425   0.710 -1.8303  2.4280 -0.6687
17412TIP3    H273652   6.314   2.436   0.851  0.2912 -0.9334 -1.1011
17413TIP3   OH273653   4.977   0.044  11.362 -0.7064 -0.0748  0.0040
17413TIP3    H173654   4.905   0.107  11.372 -2.1770 -1.5154 -0.9432
17413TIP3    H273655   4.979   0.026  11.268  0.5096 -0.5132  0.1060
17414TIP3   OH273656   4.057   4.596   1.999 -0.0262 -0.0416  0.0265
17414TIP3    H173657   4.026   4.640   1.919 -0.7374  2.8694  1.7616
17414TIP3    H273658   4.145   4.630   2.012  0.4647 -1.2607  0.0086
17415TIP3   OH273659   4.718   3.735   1.427  0.6092  0.2548 -0.0395
17415TIP3    H173660   4.733   3.672   1.357 -0.4961 -0.4795  0.3527
17415TIP3    H273661   4.757   3.695   1.505 -0.2819 -0.0672  0.2556
17416TIP3   OH273662   2.485   1.500   4.759  0.1074  0.2517 -0.3171
17416TIP3    H173663   2.473   1.426   4.700  0.1769  0.8598 -1.1080
17416TIP3    H273664   2.453   1.469   4.844  0.2524 -0.7201 -0.6040
17417TIP3   OH273665   6.187   1.812   6.587  0.1936  0.0691  0.7568
17417TIP3    H173666   6.096   1.787   6.602  0.1249 -0.1653 -0.0024
17417TIP3    H273667   6.193   1.902   6.617 -0.7894  0.7484 -0.9789
17418TIP3   OH273668   3.114   4.950   0.522 -0.0304  0.1565  0.1001
17418TIP3    H173669   3.208   4.955   0.536 -0.0442 -0.8206  0.6338
17418TIP3    H273670   3.082   4.893   0.592 -1.3435  2.2035  1.2813
17419TIP3   OH273671   4.173   4.551   0.649  0.6150 -0.2421 -0.4411
17419TIP3    H173672   4.178   4.474   0.705  0.8453 -0.2988 -0.5405
17419TIP3    H273673   4.262   4.564   0.616  1.3200  1.8056  1.9277
17420TIP3   OH273674   2.340   6.489  13.235  0.0476 -0.8748  0.1325
17420TIP3    H173675   2.308   6.503  13.324 -0.2750 -1.4906  0.1211
17420TIP3    H273676   2.352   6.394  13.228 -0.0798 -0.8528 -0.5224
17421TIP3   OH273677   5.839   4.158   4.622 -0.1084  0.1693  0.6014
17421TIP3    H173678   5.768   4.116   4.575  0.0650  0.9483 -0.3787
17421TIP3    H273679   5.826   4.132   4.714  0.0705 -2.1054  0.0396
17422TIP3   OH273680   6.274   0.287  14.841  0.4676 -0.1857  0.1040
17422TIP3    H173681   6.235   0.367  14.806 -0.9124 -0.8889 -0.0659
17422TIP3    H273682   6.199   0.235  14.871  1.1513 -2.1551 -1.3637
17423TIP3   OH273683   2.249   6.444  15.105  0.5943 -0.0026  0.3069
17423TIP3    H173684   2.216   6.388  15.035 -0.4275 -1.8124  2.1409
17423TIP3    H273685   2.234   6.533  15.074 -2.3785 -0.7483 -0.6720
17424TIP3   OH273686   6.086   4.648   1.546  0.3538 -0.1281  0.4682
17424TIP3    H173687   6.166   4.595   1.542  0.1807 -0.6243  2.3480
17424TIP3    H273688   6.016   4.586   1.527  0.3082 -0.0517  0.3907
17425TIP3   OH273689   6.490   2.699   1.294 -0.1940  0.2163 -0.6096
17425TIP3    H173690   6.585   2.698   1.301 -0.0793  1.0727 -1.6699
17425TIP3    H273691   6.460   2.637   1.360  1.0536  0.6323  0.4040
17426TIP3   OH273692   2.958   2.740   5.991  0.3045 -0.3595 -0.3761
17426TIP3    H173693   2.997   2.759   5.906 -0.2459  0.1118 -0.5265
17426TIP3    H273694   2.959   2.824   6.037 -2.3319  0.1814 -1.1269
17427TIP3   OH273695   0.270   6.560   5.147 -0.3517  0.3721 -0.7719
17427TIP3    H173696   0.256   6.556   5.242  0.6590  1.7310 -0.5324
17427TIP3    H273697   0.195   6.608   5.113 -1.0105 -0.6253 -0.7447
17428TIP3   OH273698   1.368   3.321   4.560  0.2149  0.0268  0.5783
17428TIP3    H173699   1.368   3.383   4.633 -2.4492  0.7481  0.0655
17428TIP3    H273700   1.378   3.376   4.482  0.4935 -0.4771  0.2554
17429TIP3   OH273701   3.178   5.080   2.004 -0.4031 -0.3107 -0.4283
17429TIP3    H173702   3.159   5.150   1.942 -0.5900 -0.1498 -0.1928
17429TIP3    H273703   3.123   5.007   1.974  0.6130 -0.7278 -1.3247
17430TIP3   OH273704   6.504   5.011  16.975 -0.0281 -0.8072 -0.0965
17430TIP3    H173705   6.549   4.932  16.946  2.1779 -0.8512  2.9002
17430TIP3    H273706   6.544   5.031  17.060 -2.5371  1.9038  0.6140
17431TIP3   OH273707   6.536   2.671  13.190 -0.4018  0.2944  0.0729
17431TIP3    H173708   6.557   2.606  13.257  0.8872 -0.0894 -0.6686
17431TIP3    H273709   6.589   2.747  13.214 -1.7074  1.0013  0.7871
17432TIP3   OH273710   4.072   6.287  16.443 -0.3479 -0.0467 -0.5871
17432TIP3    H173711   4.069   6.332  16.528 -0.0978 -2.3167  0.6981
17432TIP3    H273712   4.137   6.337  16.393  0.6545  0.4463  1.1155
17433TIP3   OH273713   5.345   6.450  10.697  0.5033  0.3557 -0.0435
17433TIP3    H173714   5.328   6.526  10.753  0.3495  0.9783 -0.9031
17433TIP3    H273715   5.327   6.482  10.608 -1.2236 -1.1683 -0.3009
17434TIP3   OH273716   0.349   1.907  12.849  0.2982 -0.0900 -0.0529
17434TIP3    H173717   0.255   1.921  12.860  0.5029  0.4639  1.2453
17434TIP3    H273718   0.356   1.846  12.776 -1.1364 -1.2199  0.7069
17435TIP3   OH273719   2.216   6.311  14.875 -0.1782 -0.2603  0.9704
17435TIP3    H173720   2.308   6.333  14.858  0.3328 -0.3221  3.2915
17435TIP3    H273721   2.170   6.337  14.796  1.9984 -1.4393 -0.8014
17436TIP3   OH273722   6.727   5.588   4.400  0.3528  0.2915  0.2292
17436TIP3    H173723   6.711   5.636   4.318  1.8222 -1.7162 -1.3580
17436TIP3    H273724   6.698   5.499   4.381  2.3339 -0.6237  1.2612
17437TIP3   OH273725   4.044   0.552  15.946 -0.4118  0.4916  0.2570
17437TIP3    H173726   4.013   0.526  16.033 -1.0531 -1.3740 -0.4802
17437TIP3    H273727   4.119   0.495  15.929 -1.6974 -0.8209 -1.3150
17438TIP3   OH273728   1.080   1.316   0.028 -0.3098  0.5626 -0.0323
17438TIP3    H173729   0.986   1.302   0.033 -0.3030  0.6192  0.2707
17438TIP3    H273730   1.114   1.241  -0.020 -0.4798  0.4218  0.0696
17439TIP3   OH273731   4.645   4.296   4.191  0.5428 -0.3500  0.4135
17439TIP3    H173732   4.588   4.371   4.208  1.9063  1.0411 -0.9081
17439TIP3    H273733   4.609   4.257   4.112  0.8371 -0.0417  0.1226
17440TIP3   OH273734   2.325   0.940   0.853  0.5325 -0.4786 -0.3183
17440TIP3    H173735   2.314   0.976   0.764  1.6125 -1.4624 -0.8823
17440TIP3    H273736   2.331   0.846   0.839 -2.0629 -0.9369  1.1047
17441TIP3   OH273737   3.155   5.134   1.330  0.1421  0.3397 -0.7648
17441TIP3    H173738   3.206   5.077   1.273 -1.5993 -0.9828 -1.0726
17441TIP3    H273739   3.135   5.211   1.277 -0.8059 -0.5392 -1.7222
17442TIP3   OH273740   2.493   2.205   4.363 -0.1534 -0.1927  0.0585
17442TIP3    H173741   2.570   2.173   4.316 -1.4204 -2.4870 -0.6185
17442TIP3    H273742   2.424   2.207   4.297 -0.8300  1.3777  0.7534
17443TIP3   OH273743   6.765   6.550  13.333  0.3350  0.4294 -0.4814
17443TIP3    H173744   6.736   6.621  13.391 -1.0664  0.2769 -0.9607
17443TIP3    H273745   6.685   6.503  13.311  0.9464  0.0193 -1.9220
17444TIP3   OH273746   3.701   3.536  12.454 -0.1063 -0.9090  0.7518
17444TIP3    H173747   3.785   3.565  12.417 -0.5175 -1.2546 -0.5213
17444TIP3    H273748   3.701   3.570  12.543  2.1033 -2.2478  1.3488
17445TIP3   OH273749   1.205   0.696  14.103 -0.0898 -0.3390  0.3312
17445TIP3    H173750   1.143   0.631  14.069 -1.0780 -0.1680  1.7283
17445TIP3    H273751   1.254   0.725  14.026  1.1820 -3.5332 -0.2356
17446TIP3   OH273752   6.249   5.120   2.642 -0.0957 -0.1216 -0.7531
17446TIP3    H173753   6.281   5.171   2.717 -0.3967 -2.5218  1.1246
17446TIP3    H273754   6.324   5.116   2.583 -0.1141  2.5607 -1.1015
17447TIP3   OH273755   2.690   1.088  16.613  0.3080 -0.0887 -0.5814
17447TIP3    H173756   2.669   1.160  16.554 -1.2254  0.0167  0.0217
17447TIP3    H273757   2.708   1.130  16.697  1.1324 -0.3098 -0.6455
17448TIP3   OH273758   4.495   1.237   3.986  0.4713  0.0794  0.1677
17448TIP3    H173759   4.556   1.184   3.935  2.3480  1.0381  1.3363
17448TIP3    H273760   4.496   1.197   4.073  0.4749  0.9124  0.5526
17449TIP3   OH273761   4.517   3.598   2.931 -0.4484 -0.1771  0.4905
17449TIP3    H173762   4.572   3.519   2.925 -0.2490  0.0290 -0.4900
17449TIP3    H273763   4.519   3.621   3.024  0.7426 -0.4490  0.5474
17450TIP3   OH273764   0.812   1.504  10.632 -0.1392 -0.6829  0.2133
17450TIP3    H173765   0.834   1.597  10.626 -1.9126 -0.2525 -0.5028
17450TIP3    H273766   0.875   1.460  10.575  1.0646 -0.0096  0.9834
17451TIP3   OH273767   6.221   5.896  13.794 -0.2148 -0.3816 -0.0271
17451TIP3    H173768   6.219   5.983  13.833  0.7816  0.7403 -2.2983
17451TIP3    H273769   6.304   5.859  13.823  0.4972  0.4221 -0.9689
17452TIP3   OH273770   4.706   2.142  15.112 -0.0255 -0.4321 -0.1913
17452TIP3    H173771   4.619   2.111  15.138  0.8108 -1.8028  1.1029
17452TIP3    H273772   4.688   2.217  15.056 -2.0253  0.1317  1.0834
17453TIP3   OH273773   1.915   4.973  10.921  0.0259  0.7755 -0.4660
17453TIP3    H173774   1.868   4.912  10.864  1.8054  0.7222 -2.0025
17453TIP3    H273775   1.970   5.023  10.861  1.2089  1.4760  1.1312
17454TIP3   OH273776   2.636   5.414  12.610 -0.4665 -0.4822  0.3529
17454TIP3    H173777   2.726   5.397  12.636 -0.4380  0.6594  1.0302
17454TIP3    H273778   2.640   5.423  12.514  0.1211 -0.5354  0.3706
17455TIP3   OH273779   5.124   5.062  10.649  0.5466 -0.0290  0.1509
17455TIP3    H173780   5.140   5.155  10.636  1.8020 -0.2824 -0.2465
17455TIP3    H273781   5.029   5.054  10.650  0.4197  1.2641  0.2953
17456TIP3   OH273782   1.137   4.185   3.998  0.5256  0.0500  1.0318
17456TIP3    H173783   1.152   4.094   3.973 -0.7076 -0.2600  1.3802
17456TIP3    H273784   1.042   4.193   4.007  0.6064  1.3930  0.9350
17457TIP3   OH273785   5.223   6.578   2.051 -0.3440  0.5637  0.3292
17457TIP3    H173786   5.222   6.485   2.072  0.4945  0.2945 -0.7181
17457TIP3    H273787   5.219   6.581   1.955  0.9655  1.5392  0.2704
17458TIP3   OH273788   6.097   2.414  13.519  0.5301 -0.2553  0.0744
17458TIP3    H173789   6.143   2.470  13.582  0.9350  0.0422 -0.4790
17458TIP3    H273790   6.068   2.474  13.450  1.5043 -0.8140 -0.8334
17459TIP3   OH273791   3.448   2.335   3.187  0.0522 -0.2516  0.1484
17459TIP3    H173792   3.418   2.378   3.268  0.6893  1.0925 -0.2988
17459TIP3    H273793   3.417   2.245   3.195 -2.5569  0.5844  0.5222
17460TIP3   OH273794   5.598   6.039  15.404 -0.2378  0.2861 -0.6058
17460TIP3    H173795   5.560   6.018  15.490  0.8041 -0.1294 -0.2270
17460TIP3    H273796   5.669   6.100  15.423 -0.1111  0.3295 -1.1977
17461TIP3   OH273797   3.423   1.666   0.286  0.0175 -0.6940 -0.0065
17461TIP3    H173798   3.446   1.687   0.195  2.3672 -0.7844  0.5042
17461TIP3    H273799   3.381   1.580   0.281 -1.5660  0.0835 -1.1489
17462TIP3   OH273800   5.171   5.328  11.803 -0.0621  0.4039 -0.3985
17462TIP3    H173801   5.188   5.420  11.785  1.1512  0.1791 -0.4846
17462TIP3    H273802   5.130   5.327  11.890  1.7739  0.9080  0.5310
17463TIP3   OH273803   5.540   3.979  14.362 -0.4375 -0.0066  0.5796
17463TIP3    H173804   5.560   3.994  14.270  0.5223 -1.4014  0.5222
17463TIP3    H273805   5.620   4.002  14.409  0.3245 -2.5697  0.6826
17464TIP3   OH273806   3.165   5.392  15.671  0.1844 -0.4756 -0.1679
17464TIP3    H173807   3.231   5.434  15.616  0.8994  0.2530  1.1919
17464TIP3    H273808   3.202   5.395  15.759 -1.4362 -0.5622  0.5479
17465TIP3   OH273809   5.060   1.267   0.453 -0.9538 -0.5577  0.2445
17465TIP3    H173810   5.027   1.184   0.487 -1.5037 -0.8659 -0.9726
17465TIP3    H273811   4.998   1.291   0.384 -0.0808  0.1921 -0.3041
17466TIP3   OH273812   2.545   0.791  15.238 -0.0775 -0.2260  0.9101
17466TIP3    H173813   2.505   0.728  15.299  0.3565 -2.1896 -0.7278
17466TIP3    H273814   2.628   0.814  15.278 -0.3515 -0.4928  1.6537
17467TIP3   OH273815   1.703   1.614  15.702  0.3775  0.3080 -0.4597
17467TIP3    H173816   1.613   1.590  15.680 -0.1922  1.6161  0.3052
17467TIP3    H273817   1.744   1.533  15.731 -1.3145  0.1115  1.6177
17468TIP3   OH273818   6.537   6.204  11.560 -0.2544  0.4993  0.6851
17468TIP3    H173819   6.455   6.185  11.514  0.1623 -0.2108  0.2126
17468TIP3    H273820   6.522   6.288  11.603 -0.6927  1.1415 -0.6596
17469TIP3   OH273821   0.403   0.123   0.012  0.5829  0.6963 -0.6136
17469TIP3    H173822   0.430   0.031   0.017 -0.1332  0.5558  3.1483
17469TIP3    H273823   0.323   0.122  -0.040 -0.7727 -1.2562  1.3593
17470TIP3   OH273824   0.406   5.554  10.846  0.3207 -0.0214  0.0590
17470TIP3    H173825   0.429   5.642  10.875 -1.4764  0.4917  0.1015
17470TIP3    H273826   0.425   5.553  10.753  2.4467 -0.3727  0.4465
17471TIP3   OH273827   0.766   1.950   1.758 -0.1282  0.0028  0.4300
17471TIP3    H173828   0.767   1.998   1.841 -1.2842 -1.2887  1.2342
17471TIP3    H273829   0.685   1.899   1.761  0.5917 -1.2632 -0.8062
17472TIP3   OH273830   4.177   4.820   2.745  0.1617 -0.1460  0.2778
17472TIP3    H173831   4.128   4.870   2.810 -1.6874 -1.0648 -0.3323
17472TIP3    H273832   4.154   4.860   2.661  2.1714  0.7483  0.0925
17473TIP3   OH273833   3.105   5.179  16.657  0.1806  0.8260  0.2787
17473TIP3    H173834   3.086   5.178  16.564  0.0939 -3.0702  0.1794
17473TIP3    H273835   3.196   5.151  16.664  0.4844  1.9599  1.3918
17474TIP3   OH273836   4.916   3.638   1.866 -0.0843 -0.1858  0.1506
17474TIP3    H173837   4.925   3.618   1.959 -1.4597  0.0356  0.3462
17474TIP3    H273838   4.992   3.596   1.825  2.2170  2.1208  1.6774
17475TIP3   OH273839   2.911   2.781  11.601  0.4350  0.2048  0.1621
17475TIP3    H173840   2.969   2.768  11.525 -0.8539 -0.3347 -0.7659
17475TIP3    H273841   2.863   2.861  11.581 -0.9937 -0.7447 -0.3439
17476TIP3   OH273842   5.989   0.042   6.303  0.0254  0.0537 -0.2589
17476TIP3    H173843   5.968  -0.021   6.373  0.1699  0.6773  0.3618
17476TIP3    H273844   6.027  -0.011   6.234 -0.4131 -0.6241  0.0072
17477TIP3   OH273845   3.380   3.034   1.056  0.4557 -0.0660 -0.1913
17477TIP3    H173846   3.469   3.049   1.086  0.2471 -0.9467  0.9325
17477TIP3    H273847   3.330   3.019   1.136 -0.7955  0.8563 -0.7710
17478TIP3   OH273848   3.224   2.862  13.918 -0.1587 -0.4393 -0.7030
17478TIP3    H173849   3.254   2.879  14.007 -0.2924 -0.4273 -0.6606
17478TIP3    H273850   3.304   2.861  13.865 -0.0488 -0.7652 -0.5326
17479TIP3   OH273851   5.492   4.407  10.350 -0.4983 -0.3704  0.1149
17479TIP3    H173852   5.522   4.463  10.422 -1.1974 -1.1761  1.0567
17479TIP3    H273853   5.564   4.346  10.335 -1.0971 -1.4751  1.5038
17480TIP3   OH273854   2.768   0.672  10.496 -0.0034  0.0554 -0.1103
17480TIP3    H173855   2.697   0.695  10.437  0.3140 -2.6859 -1.7206
17480TIP3    H273856   2.727   0.618  10.563  0.4316 -1.0555 -0.7208
17481TIP3   OH273857   1.835   0.530  10.811 -0.0321  0.1259  0.0566
17481TIP3    H173858   1.764   0.532  10.747 -0.2691  1.4231  0.3319
17481TIP3    H273859   1.877   0.615  10.804 -0.3657  0.5042  1.9440
17482TIP3   OH273860   0.426   3.267  10.667  0.3417 -0.3045 -0.6041
17482TIP3    H173861   0.377   3.224  10.597  1.6179 -0.5288 -1.3783
17482TIP3    H273862   0.517   3.264  10.638  0.7815  0.4070  0.6531
17483TIP3   OH273863   1.960   6.747   5.944  0.6007  0.0577  0.0719
17483TIP3    H173864   1.910   6.666   5.949  2.3742 -1.0014  2.4199
17483TIP3    H273865   1.917   6.806   6.006 -0.4568  0.8543 -1.3526
17484TIP3   OH273866   0.564   0.314   3.346  0.2785  0.1202 -0.3055
17484TIP3    H173867   0.637   0.366   3.311  0.1901  1.4814  1.3871
17484TIP3    H273868   0.605   0.254   3.409  0.2206 -1.0043 -1.3055
17485TIP3   OH273869   5.454   0.864   6.628  0.1857 -0.3167 -0.3710
17485TIP3    H173870   5.368   0.890   6.595  0.0657 -0.1473  0.0757
17485TIP3    H273871   5.515   0.926   6.587 -0.2381  1.7042  1.8356
17486TIP3   OH273872   3.039   2.653   2.326 -0.2278 -0.3910  0.3248
17486TIP3    H173873   2.979   2.580   2.337  0.5196 -1.2955 -1.2113
17486TIP3    H273874   2.992   2.716   2.272  0.1025 -1.0051 -0.7009
17487TIP3   OH273875   6.519   3.197  10.704 -0.1682  0.1876 -0.7274
17487TIP3    H173876   6.604   3.154  10.702  0.2251  0.9622 -2.1650
17487TIP3    H273877   6.478   3.166  10.785  0.1282 -2.7289 -1.6091
17488TIP3   OH273878   5.035   4.739  12.275 -0.4556  0.2734  0.2500
17488TIP3    H173879   5.002   4.652  12.296 -0.5869 -0.1813 -1.6761
17488TIP3    H273880   5.104   4.755  12.339 -1.1618 -0.7806  1.3019
17489TIP3   OH273881   4.536   3.573  11.263 -0.1401  0.0086 -0.1888
17489TIP3    H173882   4.529   3.526  11.180  0.2353  0.2049 -0.3313
17489TIP3    H273883   4.574   3.658  11.240  0.4202 -0.1195  0.2483
17490TIP3   OH273884   1.794   3.397  12.408  0.0265 -0.3149  0.1674
17490TIP3    H173885   1.774   3.490  12.392  2.5048  0.2204 -0.3198
17490TIP3    H273886   1.812   3.392  12.501  1.5368  0.0983 -0.0776
17491TIP3   OH273887   4.783   4.204  16.017 -0.0667 -0.0903 -0.1571
17491TIP3    H173888   4.875   4.220  15.997 -0.1209  1.3120  0.6073
17491TIP3    H273889   4.784   4.129  16.077  0.7735  1.1953  1.5231
17492TIP3   OH273890   6.327   6.025  15.930 -0.2969 -0.5194  0.0769
17492TIP3    H173891   6.392   5.963  15.965  0.0469  0.0834  0.5233
17492TIP3    H273892   6.253   5.970  15.907 -0.1534 -1.0678  0.8524
17493TIP3   OH273893   5.460   3.175  12.938  0.2781  0.2907  0.5226
17493TIP3    H173894   5.461   3.156  13.032 -1.0537 -2.0603  0.1315
17493TIP3    H273895   5.372   3.154  12.910  0.7560  0.6058 -1.3555
17494TIP3   OH273896   3.988   3.892   2.219  0.4569 -0.2551 -0.2596
17494TIP3    H173897   3.998   3.804   2.255  0.0728 -0.9974 -1.8933
17494TIP3    H273898   3.894   3.904   2.210  0.5340  0.0219 -0.7373
17495TIP3   OH273899   0.932   1.631   4.333  0.1325  0.3728 -0.3658
17495TIP3    H173900   0.981   1.622   4.415  0.9777  2.3924 -0.5788
17495TIP3    H273901   0.851   1.583   4.348  0.4408  0.3532  1.5134
17496TIP3   OH273902   0.647   4.507   4.415  0.0293 -0.4327 -0.3901
17496TIP3    H173903   0.598   4.430   4.444 -0.7641  1.1857  3.0485
17496TIP3    H273904   0.738   4.483   4.427 -0.2329 -0.4533  2.1650
17497TIP3   OH273905   5.471   5.994   2.473  0.0763 -0.8485 -0.0353
17497TIP3    H173906   5.397   6.017   2.530  0.3512  0.3921 -0.1665
17497TIP3    H273907   5.506   6.078   2.444 -0.7284 -1.3937 -2.9251
17498TIP3   OH273908   3.937   6.060  11.599  0.1245 -0.0960  0.7478
17498TIP3    H173909   3.850   6.067  11.639  0.1083  0.9528  0.5787
17498TIP3    H273910   3.931   5.983  11.543 -1.3664  1.0255 -0.7645
17499TIP3   OH273911   3.579   0.289   3.371 -0.0152 -0.3510 -0.4787
17499TIP3    H173912   3.545   0.224   3.432  0.0116 -0.0211 -0.1109
17499TIP3    H273913   3.672   0.297   3.394 -0.2371  0.5512  0.1455
17500TIP3   OH273914   2.955   3.741   0.661 -0.4275 -0.6868  0.4976
17500TIP3    H173915   2.925   3.830   0.682  1.1698 -0.3482  1.5932
17500TIP3    H273916   3.010   3.717   0.736 -0.5649 -2.4914  0.0642
17501TIP3   OH273917   5.685   1.037  11.296 -0.2198  0.3019 -0.5838
17501TIP3    H173918   5.762   0.981  11.281 -0.4578 -0.3796  0.6256
17501TIP3    H273919   5.610   0.980  11.278 -0.5086 -0.3492  2.2125
17502TIP3   OH273920   5.469   4.589   4.282  0.0401  0.2287 -0.0248
17502TIP3    H173921   5.406   4.518   4.291 -0.4583  0.4875 -1.2486
17502TIP3    H273922   5.524   4.583   4.360 -0.5168 -0.9722  0.2913
17503TIP3   OH273923   0.406   6.710   4.893  0.2589 -0.0857 -0.6880
17503TIP3    H173924   0.455   6.655   4.953 -0.0428 -1.4549 -1.6434
17503TIP3    H273925   0.413   6.798   4.929  1.4743 -0.6129  0.4250
17504TIP3   OH273926   0.516   0.634  13.080  0.8025 -0.3044  0.0145
17504TIP3    H173927   0.546   0.543  13.090  3.3055  0.5961  1.5415
17504TIP3    H273928   0.513   0.647  12.985  0.9108 -1.8204 -0.2289
17505TIP3   OH273929   2.608   2.926  11.738 -0.2536 -0.2708  0.2749
17505TIP3    H173930   2.643   2.910  11.651 -0.3027 -1.7883  0.5033
17505TIP3    H273931   2.590   3.020  11.741 -2.4010 -0.4964 -2.1495
17506TIP3   OH273932   5.821   5.853   3.345 -0.4979 -0.1154  0.5232
17506TIP3    H173933   5.751   5.797   3.311 -0.0209 -1.5080  1.7343
17506TIP3    H273934   5.852   5.807   3.423  0.1965  1.6505  1.3347
17507TIP3   OH273935   4.288   5.099   0.037  0.1113 -0.0160 -0.0494
17507TIP3    H173936   4.329   5.185   0.035 -0.1412  0.0967 -0.3737
17507TIP3    H273937   4.361   5.038   0.023  0.0883  0.2122 -1.3413
17508TIP3   OH273938   4.876   6.736  16.245  0.6399  0.2825  0.5277
17508TIP3    H173939   4.902   6.760  16.156 -0.2138 -1.7972 -0.3553
17508TIP3    H273940   4.857   6.819  16.288  1.1660  1.3511 -1.2004
17509TIP3   OH273941   3.019   5.919  14.473 -0.6749 -0.1908  0.0537
17509TIP3    H173942   2.993   5.929  14.564 -0.8874 -0.7079  0.0542
17509TIP3    H273943   3.067   5.836  14.470  0.5739  0.5081 -0.0392
17510TIP3   OH273944   1.069   1.853  13.581 -0.1474 -0.1283 -0.9860
17510TIP3    H173945   0.991   1.898  13.614 -1.9037 -3.6532  0.2074
17510TIP3    H273946   1.104   1.806  13.657  2.0570 -0.1466 -1.9321
17511TIP3   OH273947   1.054   1.538  10.326 -0.4239 -0.2185  0.0811
17511TIP3    H173948   1.001   1.568  10.253  0.7312  1.0738 -0.2662
17511TIP3    H273949   1.075   1.447  10.305  2.1193  0.8421 -2.6408
17512TIP3   OH273950   5.626   1.943   2.944  0.1127 -0.1161 -0.3333
17512TIP3    H173951   5.721   1.942   2.938  0.1006 -1.7468 -0.7373
17512TIP3    H273952   5.603   2.035   2.952  1.9030  0.1812  3.2649
17513TIP3   OH273953   4.536   4.098   0.483 -0.1538  0.8494 -0.1127
17513TIP3    H173954   4.573   4.185   0.498 -0.9015  0.8309  2.2865
17513TIP3    H273955   4.464   4.091   0.546 -0.4194 -1.3152 -0.5709
17514TIP3   OH273956   5.893   5.902  15.394  0.3404  0.2782  0.1358
17514TIP3    H173957   5.983   5.868  15.395  0.7680  1.3669 -0.4443
17514TIP3    H273958   5.895   5.974  15.332 -0.6602  1.0864  1.0103
17515TIP3   OH273959   6.450   6.771  11.102  0.0978  0.3973 -0.1216
17515TIP3    H173960   6.477   6.710  11.171 -0.5377 -0.9538 -1.0104
17515TIP3    H273961   6.530   6.789  11.053  0.2257 -0.0797 -0.0977
17516TIP3   OH273962   2.760   5.390  16.289 -0.8867  0.0497 -0.5078
17516TIP3    H173963   2.735   5.313  16.340 -1.7270  0.3695 -0.4318
17516TIP3    H273964   2.680   5.441  16.280 -0.6274  0.2798 -1.6648
17517TIP3   OH273965   6.468   6.468   5.001  0.2236 -0.3093 -0.0704
17517TIP3    H173966   6.433   6.394   5.052  0.9945  1.3412  3.0945
17517TIP3    H273967   6.469   6.541   5.062  1.2075  1.9135 -2.5535
17518TIP3   OH273968   3.735   1.257   4.328 -0.4213  0.2247 -0.1024
17518TIP3    H173969   3.741   1.347   4.358  0.0460  0.5313 -1.0904
17518TIP3    H273970   3.811   1.245   4.271 -0.1237 -0.9836  0.5086
17519TIP3   OH273971   1.050   5.804  14.337 -0.8019 -0.4658  0.0477
17519TIP3    H173972   1.101   5.808  14.418  1.5125 -0.9512 -1.2817
17519TIP3    H273973   0.965   5.840  14.360  1.3095  4.4247  1.5395
17520TIP3   OH273974   0.298   1.121  11.235 -0.1912 -0.1463  0.6087
17520TIP3    H173975   0.283   1.143  11.327 -1.5633  0.1392  0.3367
17520TIP3    H273976   0.234   1.173  11.187 -0.8013 -1.7336 -0.3641
17521TIP3   OH273977   5.158   4.369   1.920 -0.0238 -0.0650 -0.5843
17521TIP3    H173978   5.170   4.458   1.887  0.9041  1.1823  2.6799
17521TIP3    H273979   5.063   4.359   1.929 -0.1055  1.0938  0.0838
17522TIP3   OH273980   0.419   1.634  13.135 -0.0312  0.1987 -0.8187
17522TIP3    H173981   0.358   1.597  13.199  0.9519 -0.9881 -0.5275
17522TIP3    H273982   0.420   1.569  13.064 -0.5457  1.1393 -1.7041
17523TIP3   OH273983   4.460   1.213  10.582 -0.0162  0.1457  0.2044
17523TIP3    H173984   4.461   1.278  10.653  0.5890 -0.4140  0.7170
17523TIP3    H273985   4.388   1.241  10.525  1.7592  2.7130 -0.9529
17524TIP3   OH273986   1.454   2.574  14.848  0.6971  0.4636 -0.4766
17524TIP3    H173987   1.449   2.521  14.768  1.1473 -1.1271  0.5102
17524TIP3    H273988   1.497   2.655  14.819  1.7772 -0.4739 -1.6805
17525TIP3   OH273989   4.380   2.993  11.022 -0.4338  0.0358  0.4468
17525TIP3    H173990   4.372   3.051  10.947 -1.2053 -0.0346  0.4607
17525TIP3    H273991   4.391   3.051  11.097  2.2304  0.0749  0.1116
17526TIP3   OH273992   5.990   3.868   6.192  0.4604 -0.2095 -0.1682
17526TIP3    H173993   5.926   3.901   6.255 -0.7568 -0.1788 -1.3857
17526TIP3    H273994   6.006   3.778   6.219 -1.1457 -0.6662 -0.6077
17527TIP3   OH273995   6.289   4.996  11.594 -0.2986  0.3013 -0.5970
17527TIP3    H173996   6.351   4.926  11.572 -0.2028  0.0967  0.2918
17527TIP3    H273997   6.211   4.976  11.543  0.8392  1.3907 -2.9290
17528TIP3   OH273998   0.078   3.865  13.868 -0.2677  0.1656  0.2364
17528TIP3    H173999   0.085   3.960  13.882 -1.0404  0.3070 -0.2758
17528TIP3    H274000   0.159   3.841  13.823  0.7393  0.2680  1.9132
17529TIP3   OH274001   3.501   0.510   4.341  0.0282 -0.5166 -0.1242
17529TIP3    H174002   3.577   0.464   4.376  1.0418  1.8709  0.9673
17529TIP3    H274003   3.432   0.496   4.406  0.5575  0.1489  0.5830
17530TIP3   OH274004   2.502   2.957  13.110  0.3365  0.5348  0.2336
17530TIP3    H174005   2.479   2.865  13.110  1.1906  0.3151  0.8014
17530TIP3    H274006   2.419   3.003  13.120 -0.1984 -0.1346 -0.9688
17531TIP3   OH274007   3.606   3.308  15.461 -0.1028  0.0082 -0.2938
17531TIP3    H174008   3.531   3.297  15.519  1.4602  0.4142  1.9720
17531TIP3    H274009   3.593   3.393  15.419 -0.4473  0.5273  0.8279
17532TIP3   OH274010   0.116   5.543   0.316  0.0505 -0.1735 -0.2429
17532TIP3    H174011   0.021   5.549   0.304  0.0370  0.0966 -0.0222
17532TIP3    H274012   0.145   5.634   0.323  0.6512 -0.1033 -2.6680
17533TIP3   OH274013   3.870   2.006   3.603  0.1511 -0.0018  0.0137
17533TIP3    H174014   3.833   1.997   3.691 -0.3707 -0.4687 -0.2419
17533TIP3    H274015   3.938   2.073   3.611  0.0682 -0.0036  0.7581
17534TIP3   OH274016   5.497   5.904  15.869  0.0328  0.3879 -0.0885
17534TIP3    H174017   5.501   5.899  15.773  0.5363 -1.0498 -0.0217
17534TIP3    H274018   5.584   5.933  15.895  0.1066  0.1434 -0.0537
17535TIP3   OH274019   2.332   4.588   1.042  0.3417 -0.2497  0.2226
17535TIP3    H174020   2.259   4.567   1.101  1.0321 -1.6962  0.6146
17535TIP3    H274021   2.313   4.538   0.963  0.0015  0.8030 -0.3811
17536TIP3   OH274022   6.211   3.716   4.488  0.1421  0.3741 -0.6564
17536TIP3    H174023   6.211   3.666   4.406  1.7427  0.1939 -0.5842
17536TIP3    H274024   6.119   3.723   4.512 -0.2052 -2.1097 -0.9424
17537TIP3   OH274025   4.783   3.597  12.655  0.2730 -0.8997  0.5850
17537TIP3    H174026   4.779   3.658  12.581 -0.9484 -0.6361  0.8479
17537TIP3    H274027   4.858   3.627  12.706 -0.0582  0.1412  0.4845
17538TIP3   OH274028   5.980   4.952  14.066 -0.1765 -0.2696  0.0551
17538TIP3    H174029   5.906   4.895  14.045  0.1051 -0.6492  0.0703
17538TIP3    H274030   6.008   4.923  14.153  0.9572 -1.1960 -0.5760
17539TIP3   OH274031   2.284   6.197  16.019 -0.5429  0.5858 -0.1241
17539TIP3    H174032   2.309   6.110  15.990  1.5055  0.4161  1.8551
17539TIP3    H274033   2.233   6.183  16.099  0.1288  1.1539  0.4321
17540TIP3   OH274034   3.586   4.015   4.690  0.3666 -0.3499  0.0311
17540TIP3    H174035   3.573   3.964   4.610 -0.3079  0.5210 -0.4282
17540TIP3    H274036   3.513   3.992   4.746  1.7530 -2.2946  1.1583
17541TIP3   OH274037   1.365   0.348   4.555 -0.1033  0.1129  0.2022
17541TIP3    H174038   1.406   0.327   4.639 -0.5289  1.2042  0.6973
17541TIP3    H274039   1.281   0.386   4.578  0.6967  2.5986 -0.5844
17542TIP3   OH274040   3.988   2.907  15.283 -0.9525 -0.3577  0.0789
17542TIP3    H174041   3.983   2.956  15.201 -0.1820  1.7307  1.2163
17542TIP3    H274042   4.068   2.855  15.275 -1.2045 -0.6432 -0.7091
17543TIP3   OH274043   3.846   1.032   6.629  0.3042  0.0857 -0.9429
17543TIP3    H174044   3.929   1.077   6.644  0.4100  0.7051 -3.1461
17543TIP3    H274045   3.871   0.945   6.600  0.1201 -0.4053  0.2882
17544TIP3   OH274046   3.473   0.672   1.103 -0.3147 -0.4576  0.7024
17544TIP3    H174047   3.548   0.619   1.075 -1.2221 -1.1863 -0.4202
17544TIP3    H274048   3.401   0.644   1.046 -1.3658  0.4568  1.5421
17545TIP3   OH274049   2.972   5.751   0.900 -0.3943 -0.2122  0.4247
17545TIP3    H174050   3.026   5.753   0.978  0.2122  0.0600 -0.0013
17545TIP3    H274051   3.025   5.791   0.831 -0.4675 -1.4610 -0.4063
17546TIP3   OH274052   0.611   5.124  12.578 -0.0045  0.9386  0.2745
17546TIP3    H174053   0.667   5.131  12.656 -1.5755  2.2797  1.3530
17546TIP3    H274054   0.661   5.167  12.508  1.4688 -0.3596  0.4862
17547TIP3   OH274055   0.783   4.125  10.326 -0.0857  0.2848 -0.2641
17547TIP3    H174056   0.692   4.127  10.356  0.4354 -3.1261  2.0590
17547TIP3    H274057   0.776   4.099  10.234 -1.5192 -1.4653  0.2692
17548TIP3   OH274058   4.676   3.148   0.149  0.1714  0.6394 -0.5123
17548TIP3    H174059   4.685   3.221   0.089  1.1145  2.4734  1.7025
17548TIP3    H274060   4.610   3.091   0.110 -0.3561  2.5090 -2.4595
17549TIP3   OH274061   6.599   6.005   4.164 -0.5518 -0.0647 -0.1535
17549TIP3    H174062   6.588   6.056   4.244  2.8195  1.7381 -0.6621
17549TIP3    H274063   6.523   6.027   4.111 -0.5145  2.4499  0.7069
17550TIP3   OH274064   5.305   2.671  12.286  0.1872  0.4766  0.3066
17550TIP3    H174065   5.276   2.688  12.197 -1.4228  0.5595  0.8256
17550TIP3    H274066   5.307   2.576  12.294 -1.0544  0.4585  0.5914
17551TIP3   OH274067   5.723   1.128  12.967  0.1043  0.0758 -0.5185
17551TIP3    H174068   5.705   1.038  12.938 -0.1192  0.3176 -1.1321
17551TIP3    H274069   5.817   1.140  12.951 -0.1827  0.5033 -1.9842
17552TIP3   OH274070   1.919   1.860  16.819  0.1003 -0.3541 -0.3746
17552TIP3    H174071   1.946   1.882  16.908 -0.1388 -1.1454 -0.0927
17552TIP3    H274072   1.976   1.911  16.762 -0.7699  1.3716  0.2268
17553TIP3   OH274073   2.474   3.175   1.730  0.2370 -0.1403 -0.2169
17553TIP3    H174074   2.401   3.234   1.748  1.6157  2.2706 -1.9648
17553TIP3    H274075   2.447   3.126   1.652  0.1498  0.1621 -0.3796
17554TIP3   OH274076   1.418   3.254   0.307  0.2987 -0.2028  0.0266
17554TIP3    H174077   1.340   3.199   0.305  0.1785 -0.0162 -0.7064
17554TIP3    H274078   1.407   3.309   0.385 -0.4443  0.0286 -0.2378
17555TIP3   OH274079   1.301   3.387  14.829 -0.4451 -0.0158 -0.2548
17555TIP3    H174080   1.304   3.350  14.740  2.6284 -1.1375  0.1886
17555TIP3    H274081   1.352   3.467  14.823 -0.4995  0.0729  0.4278
17556TIP3   OH274082   1.830   3.996  11.705 -0.2217 -0.1050 -0.2208
17556TIP3    H174083   1.741   3.997  11.740  0.4195  0.3757  1.4887
17556TIP3    H274084   1.825   3.938  11.629 -1.6920 -1.1965  0.6611
17557TIP3   OH274085   1.931   0.245   6.102  0.6216  0.0479  0.0230
17557TIP3    H174086   1.954   0.255   6.009 -0.8512  1.0870 -0.2590
17557TIP3    H274087   1.953   0.330   6.141 -0.7149  0.3498  0.1658
17558TIP3   OH274088   2.284   0.664  14.515  0.1721  0.3699 -0.0947
17558TIP3    H174089   2.276   0.595  14.580 -0.4728 -0.9843 -1.5323
17558TIP3    H274090   2.195   0.675  14.480  0.5333  0.8970 -0.8900
17559TIP3   OH274091   0.793   1.934   6.151 -0.4212 -0.5976 -0.0870
17559TIP3    H174092   0.760   1.854   6.193  0.0246 -1.1506 -0.7571
17559TIP3    H274093   0.797   1.912   6.058 -0.6632  0.3493 -0.3320
17560TIP3   OH274094   2.777   1.151   4.855 -0.1912  0.4617 -0.1231
17560TIP3    H174095   2.688   1.150   4.818 -0.0469  0.4055 -0.4733
17560TIP3    H274096   2.766   1.114   4.942 -0.5977  0.9440  0.0374
17561TIP3   OH274097   6.126   4.371  12.611  0.1540 -0.1140 -0.0002
17561TIP3    H174098   6.116   4.414  12.525  0.8060  1.0906  0.5000
17561TIP3    H274099   6.215   4.394  12.639 -0.6752  1.0758  1.8217
17562TIP3   OH274100   0.499   5.890  11.008 -0.0710  0.1731  0.4530
17562TIP3    H174101   0.566   5.899  10.940  1.5899 -1.0864  1.8339
17562TIP3    H274102   0.476   5.980  11.031 -1.6332  0.6755 -2.5555
17563TIP3   OH274103   0.719   5.924   2.025 -0.1786 -0.1358  0.2136
17563TIP3    H174104   0.662   5.950   1.953  0.7760 -0.0159 -0.5290
17563TIP3    H274105   0.781   5.997   2.034 -0.3179 -0.1238  1.2046
17564TIP3   OH274106   6.048   2.106   1.042 -0.9874  0.3450 -0.3627
17564TIP3    H174107   6.023   2.170   1.109  2.3780 -0.8677  2.3262
17564TIP3    H274108   5.998   2.028   1.063  0.6225 -0.2911  1.4386
17565TIP3   OH274109   2.174   1.482  14.991 -0.2067  0.5710 -0.0838
17565TIP3    H174110   2.175   1.535  15.071 -0.0785 -0.7092  0.7860
17565TIP3    H274111   2.112   1.412  15.009  1.3821 -0.9514 -0.2769
17566TIP3   OH274112   2.220   3.081   2.707 -0.2033  0.3580  0.4435
17566TIP3    H174113   2.262   3.057   2.790 -0.6325 -0.2237  0.5017
17566TIP3    H274114   2.137   3.033   2.708 -1.6578  2.7238  1.0684
17567TIP3   OH274115   1.944   0.027   2.786  0.1161  0.1737 -0.6100
17567TIP3    H174116   1.962  -0.063   2.814  1.6935  0.5253 -0.4009
17567TIP3    H274117   1.851   0.026   2.763 -0.2194 -1.1928  0.5995
17568TIP3   OH274118   5.544   0.248   4.565  0.3095  0.4769 -0.0459
17568TIP3    H174119   5.592   0.186   4.510  0.6837  0.8834 -0.1799
17568TIP3    H274120   5.609   0.282   4.626  0.1024  0.7273  0.0369
17569TIP3   OH274121   4.149   2.540   2.227  0.1619  1.0125  0.3411
17569TIP3    H174122   4.099   2.493   2.294 -0.2340  1.4316  0.3413
17569TIP3    H274123   4.128   2.632   2.241  1.3804  1.2510  0.7033
17570TIP3   OH274124   0.515   0.989  16.569  0.6223  0.3907  0.1274
17570TIP3    H174125   0.581   0.976  16.638  2.1625  0.9307 -1.1714
17570TIP3    H274126   0.500   1.084  16.568 -0.1421  0.2782  0.3688
17571TIP3   OH274127   1.761   1.265   2.229  0.3128  0.0825  0.6803
17571TIP3    H174128   1.737   1.286   2.139 -2.2882 -3.8326  0.1857
17571TIP3    H274129   1.819   1.336   2.257 -1.2858  3.1089 -2.9519
17572TIP3   OH274130   5.778   4.188   3.123  0.4251 -0.1504 -0.6260
17572TIP3    H174131   5.728   4.108   3.143  0.8452 -0.1658  0.4327
17572TIP3    H274132   5.736   4.223   3.044  0.4203 -1.5663 -1.2816
17573TIP3   OH274133   0.087   3.804  11.110 -0.4242  0.0374 -0.2816
17573TIP3    H174134   0.172   3.762  11.096 -0.7661 -0.9015  0.3639
17573TIP3    H274135   0.057   3.826  11.022 -0.1852 -0.9905 -0.6307
17574TIP3   OH274136   2.438   1.345   1.707  0.3733 -0.0929 -0.5256
17574TIP3    H174137   2.523   1.317   1.741  0.2607  1.3871  1.1140
17574TIP3    H274138   2.375   1.294   1.757  0.2666 -0.5614 -1.1301
17575TIP3   OH274139   4.806   5.583   5.392 -0.0518 -0.2773 -0.6293
17575TIP3    H174140   4.881   5.553   5.342  0.0397  1.7890 -1.8479
17575TIP3    H274141   4.752   5.505   5.404  1.2169 -1.3427 -1.6405
17576TIP3   OH274142   3.802   6.222   2.265  0.4848 -0.2204  0.7142
17576TIP3    H174143   3.851   6.155   2.313 -1.5854 -2.2764  0.1044
17576TIP3    H274144   3.713   6.215   2.297 -0.2625  0.6662 -1.0225
17577TIP3   OH274145   3.232   1.323   6.205  1.1105  0.2845 -0.6294
17577TIP3    H174146   3.173   1.351   6.275  1.1264 -1.7641  0.2462
17577TIP3    H274147   3.319   1.319   6.246  1.0550 -1.3405 -0.6110
17578TIP3   OH274148   4.603   4.773   1.234  0.4413 -0.3022  0.1706
17578TIP3    H174149   4.557   4.689   1.229 -1.9393  0.9253 -0.1606
17578TIP3    H274150   4.584   4.805   1.322 -0.2239  0.6736 -0.3105
17579TIP3   OH274151   0.026   4.724   2.949 -0.4422  0.1601  0.3055
17579TIP3    H174152   0.074   4.672   3.014 -1.0403 -0.6953  0.0738
17579TIP3    H274153   0.045   4.680   2.865 -1.8955 -0.4021  0.2522
17580TIP3   OH274154   5.405   6.335  11.523 -0.3376 -0.0318 -0.3892
17580TIP3    H174155   5.382   6.265  11.462 -0.4154  2.0867 -2.9376
17580TIP3    H274156   5.329   6.342  11.581 -1.4022 -0.3783 -1.7095
17581TIP3   OH274157   3.536   1.759   2.770  0.2187  0.1414  0.0665
17581TIP3    H174158   3.543   1.832   2.708 -1.8372 -0.7996 -1.3833
17581TIP3    H274159   3.574   1.684   2.724 -1.9129 -0.7171 -0.4164
17582TIP3   OH274160   5.573   1.423  15.676  0.3473  0.3949  0.2738
17582TIP3    H174161   5.545   1.374  15.754 -1.3923 -0.2177 -0.6727
17582TIP3    H274162   5.629   1.362  15.629 -1.0787 -0.4144 -0.4450
17583TIP3   OH274163   4.987   5.577   0.925  0.0904  0.1330  0.5687
17583TIP3    H174164   5.010   5.486   0.946 -0.2284  0.0067  0.3763
17583TIP3    H274165   4.892   5.579   0.924  0.0680  0.0309 -1.1979
17584TIP3   OH274166   3.133   2.870   4.941 -0.3454  0.6505  0.9414
17584TIP3    H174167   3.151   2.815   5.018 -0.7074 -0.6498  0.1288
17584TIP3    H274168   3.214   2.867   4.890 -1.6594 -2.9372 -1.3392
17585TIP3   OH274169   0.844   2.011  15.988 -0.0191  0.4847  0.5178
17585TIP3    H174170   0.803   2.074  16.046  0.9359  2.0144 -0.4112
17585TIP3    H274171   0.867   1.937  16.045 -3.2406 -0.1462  1.2137
17586TIP3   OH274172   3.042   2.131   4.806  1.0022 -0.1082 -0.5925
17586TIP3    H174173   3.023   2.194   4.876  2.9514 -0.2080  0.0971
17586TIP3    H274174   3.023   2.046   4.846 -1.1333 -0.0492 -1.3547
17587TIP3   OH274175   6.780   2.918  12.839 -0.1176  0.2876  0.3779
17587TIP3    H174176   6.732   2.856  12.895 -1.2609  0.0598 -0.7971
17587TIP3    H274177   6.777   3.001  12.887 -0.5694 -0.0380  0.9288
17588TIP3   OH274178   3.873   4.341   0.700 -0.0995 -0.2588 -0.1410
17588TIP3    H174179   3.873   4.283   0.624 -0.5223  2.1248 -2.0808
17588TIP3    H274180   3.959   4.327   0.741 -0.5461 -2.8902  0.0846
17589TIP3   OH274181   2.894   1.434   3.387 -0.2135 -0.4274  0.3659
17589TIP3    H174182   2.934   1.425   3.474  1.6276 -0.1510 -0.3954
17589TIP3    H274183   2.968   1.427   3.327 -1.2127  1.0076 -1.1006
17590TIP3   OH274184   5.897   1.128   4.836 -0.3565  0.5553  0.0384
17590TIP3    H174185   5.980   1.106   4.878 -0.2084 -0.8634 -0.9258
17590TIP3    H274186   5.846   1.170   4.905  0.4691 -0.2321  1.1792
17591TIP3   OH274187   5.631   4.937   2.919 -0.0975 -0.6780 -0.2952
17591TIP3    H174188   5.633   5.031   2.902  0.5745 -0.6857 -0.3114
17591TIP3    H274189   5.677   4.927   3.002 -1.6034 -0.8366  0.5526
17592TIP3   OH274190   1.711   3.940  14.656 -0.3869 -0.3999 -0.3585
17592TIP3    H174191   1.693   3.878  14.585 -2.2150  0.6108 -0.8559
17592TIP3    H274192   1.625   3.972  14.682  0.1838 -0.9257  2.5700
17593TIP3   OH274193   5.100   1.452   0.204  0.3081 -0.5924  0.3251
17593TIP3    H174194   5.064   1.531   0.164 -1.3655 -0.3506  2.1418
17593TIP3    H274195   5.187   1.478   0.236  0.8558 -0.2677 -1.3425
17594TIP3   OH274196   2.926   2.123  16.726 -0.0098  0.3718 -0.2078
17594TIP3    H174197   2.997   2.159  16.780  1.1111 -0.9098 -0.7837
17594TIP3    H274198   2.965   2.111  16.640 -0.6608 -1.1604 -0.3142
17595TIP3   OH274199   3.824   1.103   5.430  0.2935 -0.0111  0.7950
17595TIP3    H174200   3.845   1.121   5.522  0.0676  0.0822  0.8309
17595TIP3    H274201   3.908   1.084   5.389  0.5074  0.8789  0.8130
17596TIP3   OH274202   5.078   6.294   3.808 -0.0917  0.0985 -0.7664
17596TIP3    H174203   5.156   6.240   3.791 -1.4446 -2.5833  0.8962
17596TIP3    H274204   5.007   6.248   3.764 -1.5225 -0.3234  1.7731
17597TIP3   OH274205   3.689   3.099   4.852 -0.1410 -0.3220  0.3489
17597TIP3    H174206   3.716   3.190   4.862 -0.1728 -0.2399 -0.2494
17597TIP3    H274207   3.680   3.087   4.757  0.2265 -1.0507  0.3981
17598TIP3   OH274208   5.465   3.562  11.765  0.2565  0.1196  0.7564
17598TIP3    H174209   5.467   3.645  11.718 -0.9156  0.8166  1.8743
17598TIP3    H274210   5.419   3.582  11.847  1.4972 -1.2327  1.8386
17599TIP3   OH274211   5.270   5.779  17.028 -0.5575 -0.4801  0.0071
17599TIP3    H174212   5.189   5.758  16.982 -2.6646  2.3094  2.0762
17599TIP3    H274213   5.253   5.754  17.119  0.6122  0.8432  0.6237
17600TIP3   OH274214   6.735   3.496   4.957 -0.1024 -0.4697 -0.2810
17600TIP3    H174215   6.744   3.577   4.907  0.4806 -0.9480 -0.9795
17600TIP3    H274216   6.787   3.432   4.908  1.1189 -0.7878  1.3354
17601TIP3   OH274217   3.359   1.923  16.044  0.2221  0.1912 -0.3576
17601TIP3    H174218   3.380   1.988  16.111  0.4289 -0.0892 -0.1445
17601TIP3    H274219   3.302   1.861  16.089 -1.3392  1.1007 -1.0035
17602TIP3   OH274220   4.398   3.790   4.360 -0.6385 -0.2604  0.3206
17602TIP3    H174221   4.407   3.872   4.313 -0.3037 -0.1563  0.5559
17602TIP3    H274222   4.349   3.733   4.301 -0.6862  0.0380  0.0698
17603TIP3   OH274223   1.572   3.218  16.987  0.0371  0.8994 -0.6922
17603TIP3    H174224   1.513   3.143  16.976  2.3339 -1.2600  0.8276
17603TIP3    H274225   1.591   3.220  17.080  1.1882  2.4933 -0.9217
17604TIP3   OH274226   3.147   0.487  15.426  0.0581 -0.0172  0.1202
17604TIP3    H174227   3.074   0.509  15.368  1.4377  1.1186 -1.2651
17604TIP3    H274228   3.140   0.392  15.437 -1.0071 -0.0810 -0.8731
17605TIP3   OH274229   0.966   2.431  13.875 -0.2703  0.5557  0.0132
17605TIP3    H174230   0.979   2.465  13.787  2.1623 -0.4054 -0.0741
17605TIP3    H274231   1.051   2.394  13.899 -2.3671 -4.9686  0.3268
17606TIP3   OH274232   0.091   5.082  12.260  0.0672 -0.6957  0.0634
17606TIP3    H174233   0.085   4.989  12.281  1.4264 -0.4433  1.7899
17606TIP3    H274234   0.181   5.095  12.229 -0.2384 -0.0208 -0.5889
17607TIP3   OH274235   0.907   2.667  11.696 -0.2553  0.4020  0.8399
17607TIP3    H174236   0.917   2.572  11.688 -1.6203  0.1609  1.7058
17607TIP3    H274237   0.963   2.690  11.770  0.7425  0.4233  0.1026
17608TIP3   OH274238   1.960   5.786   5.845 -0.2471  0.0109 -0.4203
17608TIP3    H174239   2.043   5.739   5.838  0.0278  0.7462 -4.0805
17608TIP3    H274240   1.982   5.865   5.895  0.8311 -0.6487  0.1770
17609TIP3   OH274241   2.980   1.463   3.655 -0.1324  0.2038  0.1599
17609TIP3    H174242   3.052   1.448   3.716 -0.1969  1.0511  0.4535
17609TIP3    H274243   2.903   1.472   3.711 -0.0638  1.8248  0.0384
17610TIP3   OH274244   5.830   6.059  10.776 -0.4088  0.3861  0.4788
17610TIP3    H174245   5.821   6.106  10.859  0.9885  2.0549 -0.2676
17610TIP3    H274246   5.805   5.969  10.798 -0.3952  0.8363  2.6346
17611TIP3   OH274247   1.318   5.775   1.542 -0.6816 -0.0994  0.0911
17611TIP3    H174248   1.247   5.788   1.479 -1.7399 -2.3781  0.7025
17611TIP3    H274249   1.273   5.767   1.626  0.4341 -0.3646  0.6674
17612TIP3   OH274250   1.140   2.316  11.163  0.2920 -0.0963  0.1688
17612TIP3    H174251   1.052   2.281  11.177  0.5465 -0.4044  1.0461
17612TIP3    H274252   1.141   2.343  11.071 -1.1068  1.0212  0.4489
17613TIP3   OH274253   5.745   5.294   5.114 -0.3402 -0.4180  0.3403
17613TIP3    H174254   5.806   5.307   5.041 -1.1388 -0.9524 -0.4571
17613TIP3    H274255   5.775   5.214   5.156 -0.7994 -1.0045 -0.4079
17614TIP3   OH274256   3.212   6.655   1.599  0.0775 -0.3385 -0.4070
17614TIP3    H174257   3.257   6.716   1.657 -0.5441 -0.3570  0.1046
17614TIP3    H274258   3.132   6.700   1.575  0.0206 -0.6033 -0.7194
17615TIP3   OH274259   5.812   0.781  16.460  0.0041 -0.0939 -0.2352
17615TIP3    H174260   5.896   0.820  16.481 -0.0108 -0.9677  1.7518
17615TIP3    H274261   5.752   0.815  16.527 -0.6678 -1.2412 -0.2200
17616TIP3   OH274262   0.143   3.664   0.297  0.0864 -0.6317  0.6937
17616TIP3    H174263   0.140   3.568   0.302  2.9393 -0.8988 -0.5615
17616TIP3    H274264   0.112   3.684   0.209 -1.0972 -0.2911  1.1629
17617TIP3   OH274265   5.860   2.789   5.607  0.8297  0.0034  0.5793
17617TIP3    H174266   5.800   2.829   5.543  0.5889 -0.7284  0.3319
17617TIP3    H274267   5.825   2.701   5.620 -0.7130  0.9785  3.7881
17618TIP3   OH274268   5.972   4.695  14.720  0.1800  0.5452  0.5194
17618TIP3    H174269   6.012   4.742  14.648  0.3685  0.4135  0.5375
17618TIP3    H274270   5.891   4.743  14.739 -0.3248  0.0701 -0.3628
17619TIP3   OH274271   6.618   1.812  11.525  0.0006 -0.1248 -0.3254
17619TIP3    H174272   6.602   1.732  11.475 -0.2743  0.0763 -0.5613
17619TIP3    H274273   6.537   1.828  11.573 -1.2061  1.7846 -2.7627
17620TIP3   OH274274   0.801   1.434   3.921  0.1694  0.1528  0.0923
17620TIP3    H174275   0.865   1.478   3.977  0.5214  0.3469 -0.4552
17620TIP3    H274276   0.854   1.381   3.861 -0.1884  0.1582 -0.2343
17621TIP3   OH274277   4.618   2.785   5.325 -0.3974 -0.0471 -0.3098
17621TIP3    H174278   4.602   2.857   5.386  0.4630  0.2421 -0.4083
17621TIP3    H274279   4.603   2.706   5.377 -0.6550  0.1974 -0.0049
17622TIP3   OH274280   3.115   6.112  10.992 -0.3418 -0.7648 -0.5223
17622TIP3    H174281   3.086   6.144  10.906  2.9138  4.3651 -0.1579
17622TIP3    H274282   3.200   6.072  10.974  0.0618 -0.2485  0.2283
17623TIP3   OH274283   3.421   1.337   4.268 -0.7596 -0.4516 -0.2671
17623TIP3    H174284   3.331   1.369   4.270 -0.5827 -0.0031  0.9473
17623TIP3    H274285   3.475   1.416   4.259 -0.3695 -0.4489  1.7767
17624TIP3   OH274286   2.279   3.649  16.588  0.8729 -0.0524  0.0912
17624TIP3    H174287   2.282   3.617  16.678  1.5980 -0.0246  0.0830
17624TIP3    H274288   2.255   3.573  16.536  0.0630  0.0179  0.3407
17625TIP3   OH274289   4.107   2.567  16.328 -0.3281 -0.3455 -0.1772
17625TIP3    H174290   4.028   2.620  16.318 -0.3602  0.4382  3.1246
17625TIP3    H274291   4.075   2.482  16.360  0.0452 -0.7616 -0.8827
17626TIP3   OH274292   5.428   5.994  16.993 -0.3277  0.4791  0.1636
17626TIP3    H174293   5.410   5.901  17.007  1.2315 -0.1478 -1.5886
17626TIP3    H274294   5.407   6.035  17.077 -3.1284 -1.0725  0.3502
17627TIP3   OH274295   2.653   2.040   1.281 -0.0454  0.4784  0.7661
17627TIP3    H174296   2.613   1.956   1.258 -0.4024  1.0608 -0.8727
17627TIP3    H274297   2.736   2.041   1.233 -0.2885  1.2767  0.3474
17628TIP3   OH274298   0.913   0.352   1.783 -0.1203  0.1138  0.1475
17628TIP3    H174299   1.002   0.381   1.763  0.2026 -0.5784  0.5430
17628TIP3    H274300   0.920   0.257   1.794 -0.9894 -0.0109 -0.2413
17629TIP3   OH274301   3.459   1.609   5.885  0.1836 -0.0485  0.3162
17629TIP3    H174302   3.492   1.661   5.957  0.4566 -0.0247  0.1740
17629TIP3    H274303   3.437   1.524   5.924 -0.4197  0.2209  0.5826
17630TIP3   OH274304   2.714   5.710  16.016 -0.1953  0.1566 -0.0441
17630TIP3    H174305   2.796   5.666  16.039 -0.3725  0.6820  1.7453
17630TIP3    H274306   2.667   5.646  15.963  0.1719 -1.2863  1.2878
17631TIP3   OH274307   4.062   2.785  14.453  0.0464  0.2633  0.0191
17631TIP3    H174308   4.103   2.782  14.539  0.6062  2.5228 -0.0887
17631TIP3    H274309   4.105   2.858  14.409  3.0529 -3.4059 -3.9491
17632TIP3   OH274310   3.519   3.038  12.235  0.5575 -0.6949  0.3034
17632TIP3    H174311   3.459   3.073  12.302  1.0781 -0.1672  0.5010
17632TIP3    H274312   3.550   2.956  12.272 -0.0913 -1.0076  0.1706
17633TIP3   OH274313   3.187   6.016   1.965 -0.5442 -0.2279 -0.3371
17633TIP3    H174314   3.215   6.002   1.874  0.4384 -0.7715  0.0295
17633TIP3    H274315   3.209   6.108   1.982 -0.9907 -0.0419 -0.7269
17634TIP3   OH274316   6.588   6.004  15.351 -0.0532 -0.2939 -0.0557
17634TIP3    H174317   6.570   6.051  15.270  0.3334  0.2698  0.1784
17634TIP3    H274318   6.609   5.915  15.323  1.4097  0.2267 -0.6937
17635TIP3   OH274319   2.806   6.735   0.695 -0.0337  0.0026 -0.0133
17635TIP3    H174320   2.769   6.716   0.609 -0.3632 -0.1260  0.1583
17635TIP3    H274321   2.901   6.727   0.682  0.0606  1.7734 -0.8157
17636TIP3   OH274322   6.227   5.415   1.422  0.0275  0.5021 -0.3074
17636TIP3    H174323   6.306   5.456   1.459 -0.2637 -0.0548  0.9714
17636TIP3    H274324   6.250   5.323   1.413  0.2380  0.6847 -1.9738
17637TIP3   OH274325   6.519   4.394   2.772  0.1437  0.0922  0.1738
17637TIP3    H174326   6.453   4.342   2.819  2.2317 -1.5164  1.5436
17637TIP3    H274327   6.532   4.471   2.827  0.9544 -0.6938  1.1473
17638TIP3   OH274328   4.683   3.658  13.907 -0.2136  0.8974  0.4577
17638TIP3    H174329   4.632   3.643  13.986  1.0535  0.5238  1.2264
17638TIP3    H274330   4.682   3.753  13.896  0.0870  1.0010  1.2641
17639TIP3   OH274331   0.894   6.700  14.997  0.1634 -0.0258  1.0481
17639TIP3    H174332   0.896   6.628  15.060  0.7924  0.4595  1.5811
17639TIP3    H274333   0.803   6.730  14.997  0.1290 -0.1323  1.5977
17640TIP3   OH274334   5.675   3.304  11.026 -0.1495 -0.2595  0.2519
17640TIP3    H174335   5.726   3.384  11.041 -1.5920  0.9787 -1.0539
17640TIP3    H274336   5.706   3.242  11.093  1.2367  1.2711  1.0942
17641TIP3   OH274337   5.841   3.686   4.734 -0.2534  0.2966  0.1419
17641TIP3    H174338   5.754   3.689   4.693  0.0349 -0.6192 -0.5519
17641TIP3    H274339   5.827   3.724   4.821 -2.1722 -3.0577  1.4892
17642TIP3   OH274340   3.897   2.335   5.323  0.8298  0.3705 -0.1144
17642TIP3    H174341   3.872   2.279   5.250 -0.8356  0.8133  0.0814
17642TIP3    H274342   3.931   2.415   5.281 -0.2565  0.6825 -0.4352
17643TIP3   OH274343   6.720   4.179   1.892 -0.2925 -0.0913  0.6496
17643TIP3    H174344   6.643   4.235   1.881  1.5925  2.3152 -1.5348
17643TIP3    H274345   6.776   4.228   1.952  0.7302 -0.3836 -0.0473
17644TIP3   OH274346   4.884   0.793   0.968 -0.1102  0.1456 -0.2448
17644TIP3    H174347   4.970   0.767   0.935  0.3611  1.0403  0.2344
17644TIP3    H274348   4.832   0.713   0.966  0.6490 -0.3453 -0.8099
17645TIP3   OH274349   3.980   2.077   3.307  1.1323 -0.2830  0.5606
17645TIP3    H174350   3.924   2.044   3.377  1.0095  0.5961  0.8931
17645TIP3    H274351   4.069   2.051   3.333  0.9296 -1.4767  0.1475
17646TIP3   OH274352   1.934   5.815   5.532 -0.5337  0.3729 -0.0344
17646TIP3    H174353   1.846   5.845   5.511 -0.9778 -0.2865  0.8158
17646TIP3    H274354   1.934   5.807   5.628  0.5786  0.7583  0.0080
17647TIP3   OH274355   5.564   2.624   4.854  0.1744  0.0892  0.0628
17647TIP3    H174356   5.506   2.583   4.918 -0.2911 -1.2841 -1.1939
17647TIP3    H274357   5.629   2.670   4.908 -1.0647  0.2655  1.5037
17648TIP3   OH274358   3.040   6.323  12.956 -0.3883  0.0939  0.2192
17648TIP3    H174359   3.002   6.321  12.868 -0.8856 -0.3367  0.4330
17648TIP3    H274360   3.025   6.234  12.989 -0.4674  0.3412  0.8456
17649TIP3   OH274361   4.261   1.307   1.464  0.4695 -0.1446 -0.0710
17649TIP3    H174362   4.237   1.346   1.548  0.1022  1.5862 -0.9250
17649TIP3    H274363   4.208   1.228   1.459 -0.4517  0.3846  0.8058
17650TIP3   OH274364   4.849   1.327  16.213  0.0391  0.8859 -0.0691
17650TIP3    H174365   4.844   1.412  16.170  0.1692  0.2386 -1.4012
17650TIP3    H274366   4.773   1.279  16.181 -0.5072  0.7771  1.3351
17651TIP3   OH274367   5.380   0.263   1.930 -0.2477  0.9245  0.0494
17651TIP3    H174368   5.390   0.179   1.884  0.5386 -0.1827  2.1116
17651TIP3    H274369   5.400   0.329   1.864  3.9786 -0.6506 -0.5244
17652TIP3   OH274370   4.451   5.936   0.127 -0.3992  0.5432  0.8713
17652TIP3    H174371   4.467   5.962   0.036  0.7601 -1.0013  0.5846
17652TIP3    H274372   4.371   5.884   0.123 -0.2522  0.3257  0.6867
17653TIP3   OH274373   0.607   3.602  15.583 -0.4488 -0.5766  0.2061
17653TIP3    H174374   0.633   3.674  15.525 -2.9237  1.3312  1.2449
17653TIP3    H274375   0.573   3.534  15.524 -0.2222  0.0943 -0.7171
17654TIP3   OH274376   1.201   3.622   4.535 -0.1871  0.3560  0.0182
17654TIP3    H174377   1.116   3.624   4.577 -0.8857  0.0788 -1.3184
17654TIP3    H274378   1.231   3.713   4.536 -0.8305  0.5756 -0.1403
17655TIP3   OH274379   5.641   3.622  16.940 -0.4052  0.4785 -0.1145
17655TIP3    H174380   5.699   3.574  16.998 -1.9136 -1.0962  0.1714
17655TIP3    H274381   5.663   3.714  16.955  1.0910 -0.0115  0.9165
17656TIP3   OH274382   3.057   6.208  14.606  0.4663  0.8334  0.2585
17656TIP3    H174383   3.142   6.164  14.602  0.5600  1.0773 -0.7100
17656TIP3    H274384   2.996   6.145  14.568  0.0756  0.3739  1.6057
17657TIP3   OH274385   1.698   0.745   1.284 -0.2028 -0.7413  0.3404
17657TIP3    H174386   1.701   0.839   1.264  2.0248 -1.0277 -0.9664
17657TIP3    H274387   1.655   0.705   1.208 -1.5676 -0.7845  1.0978
17658TIP3   OH274388   0.659   4.281   4.130  0.0987  0.0095 -0.4162
17658TIP3    H174389   0.677   4.257   4.039  2.8435  0.7175 -0.1313
17658TIP3    H274390   0.726   4.345   4.152  0.2386 -0.9766  2.4770
17659TIP3   OH274391   1.124   4.125  13.396  0.0205  0.4250  0.4228
17659TIP3    H174392   1.075   4.195  13.441 -0.3427  0.1032  0.5327
17659TIP3    H274393   1.152   4.166  13.314 -2.5530 -0.0721 -0.8175
17660TIP3   OH274394   4.593   2.460  14.683 -0.2103 -0.1585 -0.4468
17660TIP3    H174395   4.571   2.497  14.768 -0.9787  0.7204 -1.0016
17660TIP3    H274396   4.515   2.475  14.630  0.9972  1.2199 -1.9142
17661TIP3   OH274397   5.541   2.614  11.999 -0.1344 -0.3147 -0.9784
17661TIP3    H174398   5.562   2.707  11.992  1.3213 -0.5837 -0.5960
17661TIP3    H274399   5.534   2.583  11.909  2.2797 -0.4099 -1.1931
17662TIP3   OH274400   2.869   1.479  15.238 -0.0049  0.1988  0.0841
17662TIP3    H174401   2.798   1.449  15.295 -0.0318 -1.0225 -0.5684
17662TIP3    H274402   2.941   1.498  15.299  0.4989 -2.5802  0.4820
17663TIP3   OH274403   3.193   2.017  10.296  0.3589 -0.1589 -0.4339
17663TIP3    H174404   3.107   1.997  10.333  0.8114  0.6146  1.0689
17663TIP3    H274405   3.219   1.935  10.253 -1.8854  0.1122 -2.5381
17664TIP3   OH274406   1.925   6.555   2.799  0.0320  0.2404 -0.6493
17664TIP3    H174407   1.987   6.483   2.814  0.0075  0.4033  0.2964
17664TIP3    H274408   1.862   6.519   2.737  0.6082 -0.2058 -0.9871
17665TIP3   OH274409   1.160   4.124  15.479 -0.4281  0.0239  0.1215
17665TIP3    H174410   1.245   4.091  15.448 -0.3708  0.5095 -0.2485
17665TIP3    H274411   1.096   4.061  15.446 -0.1012 -1.1795  1.6518
17666TIP3   OH274412   2.540   2.657  15.759  0.3427  0.7082 -0.8108
17666TIP3    H174413   2.503   2.669  15.846  2.1375  1.1778 -0.0545
17666TIP3    H274414   2.482   2.595  15.716 -0.3104  0.0800  0.9093
17667TIP3   OH274415   4.633   2.451  11.938  0.3068  0.3716  0.1027
17667TIP3    H174416   4.584   2.497  11.870 -0.1367 -0.4537 -0.1556
17667TIP3    H274417   4.722   2.444  11.904  0.0958 -0.0027 -0.3887
17668TIP3   OH274418   3.115   3.136  13.449  0.1347  0.0611 -0.1504
17668TIP3    H174419   3.135   3.064  13.389  0.2564 -0.6996  0.7673
17668TIP3    H274420   3.175   3.122  13.523 -0.9854  0.1193  0.8001
17669TIP3   OH274421   5.397   4.079  15.157 -0.7347 -0.2408  0.1484
17669TIP3    H174422   5.363   3.992  15.179 -1.0267 -0.1006  0.2627
17669TIP3    H274423   5.487   4.078  15.189  0.1144 -1.3836 -2.1234
17670TIP3   OH274424   6.028   2.682   3.635 -0.3754 -0.2574 -0.0565
17670TIP3    H174425   5.976   2.653   3.710 -0.1571 -1.8520 -0.5042
17670TIP3    H274426   6.095   2.616   3.624 -0.0118  0.2795 -1.2775
17671TIP3   OH274427   5.500   0.498  15.245 -0.0629  0.6398 -0.0732
17671TIP3    H174428   5.552   0.470  15.321 -0.4910  1.4539  0.5266
17671TIP3    H274429   5.563   0.500  15.173  0.4673  0.3970  0.3699
17672TIP3   OH274430   2.110   3.146  15.699  0.3191  0.2130 -0.4170
17672TIP3    H174431   2.040   3.128  15.636  0.0407 -2.3425  0.4815
17672TIP3    H274432   2.065   3.186  15.774 -0.2573 -1.2686  0.0892
17673TIP3   OH274433   5.896   4.166  11.964 -0.0406 -0.0694  0.2716
17673TIP3    H174434   5.937   4.085  11.994  0.8007  0.9561  2.0045
17673TIP3    H274435   5.942   4.188  11.883  1.1075 -0.2833  0.8482
17674TIP3   OH274436   5.091   4.057   5.906 -0.9026  0.1174 -0.2446
17674TIP3    H174437   5.158   4.125   5.902 -2.6557  1.9891  0.0497
17674TIP3    H274438   5.097   4.022   5.995  0.4431 -0.6090 -0.6039
17675TIP3   OH274439   1.242   6.487  10.766 -0.1154  0.6668 -0.2240
17675TIP3    H174440   1.262   6.396  10.787 -0.3015  0.4101 -1.1253
17675TIP3    H274441   1.210   6.524  10.848  1.7705  0.4592  0.6723
17676TIP3   OH274442   4.370   4.700   5.774  0.1069 -0.3401  0.4587
17676TIP3    H174443   4.409   4.711   5.860  0.8048 -2.2631  0.4488
17676TIP3    H274444   4.313   4.623   5.783 -0.9854  0.3373 -0.4171
17677TIP3   OH274445   4.808   0.521   1.616  0.1681 -0.2062  0.0816
17677TIP3    H174446   4.843   0.606   1.642  0.1820 -0.5846  1.4011
17677TIP3    H274447   4.844   0.504   1.529  0.0089  1.2147 -0.2749
17678TIP3   OH274448   6.251   3.262  11.683  0.5581  0.3083  0.1243
17678TIP3    H174449   6.274   3.174  11.713 -0.6754 -0.4563 -1.0213
17678TIP3    H274450   6.232   3.310  11.763 -1.8913 -1.4311  0.7273
17679TIP3   OH274451   5.825   3.775   3.436 -0.4098  0.3392 -0.2534
17679TIP3    H174452   5.779   3.730   3.365 -2.9752 -1.9548  2.5644
17679TIP3    H274453   5.909   3.729   3.442  0.3173  1.2727 -2.3466
17680TIP3   OH274454   1.386   6.491   4.493 -0.4376  0.7166 -0.0167
17680TIP3    H174455   1.437   6.410   4.486 -2.4649 -0.6640  0.2417
17680TIP3    H274456   1.312   6.477   4.434 -1.0968  2.1943  0.4249
17681TIP3   OH274457   2.312   6.386  16.550  0.7053  0.1200 -0.1731
17681TIP3    H174458   2.258   6.377  16.628  1.0756  0.6457  0.1518
17681TIP3    H274459   2.392   6.339  16.570  0.3998 -0.6115 -0.6343
17682TIP3   OH274460   6.030   0.751   3.825  0.0996 -0.1670 -0.1152
17682TIP3    H174461   6.050   0.783   3.913 -0.2869  3.0409 -1.0417
17682TIP3    H274462   5.936   0.732   3.826  0.1952 -0.6216  0.2855
17683TIP3   OH274463   2.753   3.937   1.093 -0.5044 -0.7164 -0.8824
17683TIP3    H174464   2.823   3.883   1.132 -0.8957  0.2919  1.3844
17683TIP3    H274465   2.675   3.881   1.098 -1.0522  0.1402  2.0662
17684TIP3   OH274466   4.616   4.444  16.046 -0.1782 -0.5456  0.0176
17684TIP3    H174467   4.668   4.517  16.079 -0.9131 -0.8976  2.0669
17684TIP3    H274468   4.669   4.367  16.064 -1.0270 -0.8358  1.4150
17685TIP3   OH274469   5.584   0.600  10.911 -0.0025  0.0869 -0.0690
17685TIP3    H174470   5.628   0.516  10.893 -1.3540 -0.3380 -1.5735
17685TIP3    H274471   5.596   0.651  10.831  0.5279  1.2347  0.7211
17686TIP3   OH274472   5.942   3.111   3.110 -0.3528 -0.3288 -0.0596
17686TIP3    H174473   5.853   3.119   3.145 -1.2368  0.1647 -2.2614
17686TIP3    H274474   5.970   3.202   3.095  1.0460 -0.4100  1.7102
17687TIP3   OH274475   0.538   5.596  16.209  0.0854  0.3363 -0.3245
17687TIP3    H174476   0.568   5.626  16.123  3.0414 -0.4445  0.3180
17687TIP3    H274477   0.533   5.676  16.262  1.5162  0.4622 -0.3565
17688TIP3   OH274478   3.871   0.348  11.119  0.1470  0.5269 -0.3659
17688TIP3    H174479   3.854   0.277  11.057  0.6074 -0.0601  0.1653
17688TIP3    H274480   3.959   0.329  11.153 -0.2992  0.5403  0.8465
17689TIP3   OH274481   0.701   6.784   5.033  0.0745  0.3912  0.2122
17689TIP3    H174482   0.658   6.712   5.079 -2.0984  0.6064 -1.3034
17689TIP3    H274483   0.775   6.808   5.088 -1.1922 -0.6943  2.5141
17690TIP3   OH274484   5.900   1.768   5.859 -0.1546 -0.3223 -0.0046
17690TIP3    H174485   5.910   1.798   5.949  1.1023 -0.9442  0.0944
17690TIP3    H274486   5.806   1.758   5.846 -0.3778  0.3256  1.0519
17691TIP3   OH274487   5.449   0.105   4.090  0.2334  0.0687 -0.6471
17691TIP3    H174488   5.452   0.009   4.088  0.5634  0.0837 -0.9603
17691TIP3    H274489   5.363   0.128   4.055  0.4318 -0.0914 -1.2411
17692TIP3   OH274490   1.731   5.152  16.398  0.3067  0.0607 -0.3765
17692TIP3    H174491   1.707   5.060  16.405  0.0647  0.0731 -0.9694
17692TIP3    H274492   1.662   5.198  16.446  0.9845 -0.1272  0.8049
17693TIP3   OH274493   5.360   3.837   1.016  0.1550 -0.0182 -0.0268
17693TIP3    H174494   5.308   3.773   0.968 -0.6045  0.1183  0.5827
17693TIP3    H274495   5.295   3.895   1.057  0.7064 -0.8481  2.1669
17694TIP3   OH274496   1.231   1.085   0.196  0.3133 -0.3245 -0.3718
17694TIP3    H174497   1.154   1.030   0.178 -0.9270  1.2445 -0.1030
17694TIP3    H274498   1.243   1.135   0.115  0.5659 -0.0049 -0.1389
17695TIP3   OH274499   4.030   3.885   1.613  0.6524  0.9442 -0.0460
17695TIP3    H174500   3.936   3.868   1.613  1.0690 -1.6476 -0.1545
17695TIP3    H274501   4.048   3.916   1.702 -0.1634  0.6201  0.2436
17696TIP3   OH274502   0.348   3.341  15.766 -0.1987 -0.5000 -0.3965
17696TIP3    H174503   0.325   3.328  15.858  0.9373 -1.5848 -0.2405
17696TIP3    H274504   0.428   3.394  15.769 -0.7822  0.4306 -0.8108
17697TIP3   OH274505   2.222   1.670  16.412  0.0282  0.7354 -0.2031
17697TIP3    H174506   2.140   1.673  16.461  0.5332  0.0147  0.7034
17697TIP3    H274507   2.241   1.762  16.392 -1.5519  0.8435 -1.4029
17698TIP3   OH274508   2.424   6.257   0.873 -0.1588  0.2919  0.5693
17698TIP3    H174509   2.449   6.311   0.798  2.3816  0.3292  1.3473
17698TIP3    H274510   2.484   6.284   0.942  2.9253 -4.9311  0.4270
17699TIP3   OH274511   5.202   6.643  12.893  0.3935  0.2382 -0.3982
17699TIP3    H174512   5.118   6.690  12.893  0.1981 -0.1019 -0.7660
17699TIP3    H274513   5.184   6.562  12.845  0.5888 -0.4627  0.6650
17700TIP3   OH274514   3.433   5.778  17.083 -0.2774  0.1270  0.2963
17700TIP3    H174515   3.391   5.741  17.161  0.2193 -0.5022  0.2794
17700TIP3    H274516   3.504   5.831  17.117 -0.6229  0.5903  0.2989
17701TIP3   OH274517   2.126   0.880  13.630 -0.6769  0.1687 -0.3075
17701TIP3    H174518   2.131   0.837  13.715 -0.5395 -1.8111 -1.2564
17701TIP3    H274519   2.044   0.930  13.633 -1.7873 -1.5962  0.2477
17702TIP3   OH274520   0.404   5.288  11.354  0.1365 -0.1091 -0.0196
17702TIP3    H174521   0.474   5.262  11.294 -0.1771 -1.3838  0.1407
17702TIP3    H274522   0.426   5.246  11.437 -1.5611 -1.7936 -0.3540
17703TIP3   OH274523   1.537   2.938   0.991  0.1689 -0.3434  0.5149
17703TIP3    H174524   1.622   2.894   0.988  0.0546 -0.5142 -0.8383
17703TIP3    H274525   1.548   3.005   1.058  1.6113  0.0842 -0.0972
17704TIP3   OH274526   2.707   1.283   4.214  0.6719 -0.0510  0.1893
17704TIP3    H174527   2.733   1.251   4.127 -1.7862  1.2083 -1.1134
17704TIP3    H274528   2.693   1.204   4.266  0.1690 -0.9079 -1.2004
17705TIP3   OH274529   1.383   1.998  12.195 -0.3123  0.2065 -0.0904
17705TIP3    H174530   1.347   1.909  12.204 -0.7022  0.0408 -2.4159
17705TIP3    H274531   1.478   1.984  12.191 -0.1811  0.2173  2.1795
17706TIP3   OH274532   0.861   4.033  12.496 -0.2800 -0.5184 -0.0365
17706TIP3    H174533   0.766   4.029  12.510 -0.2109  0.4782  0.8772
17706TIP3    H274534   0.879   3.962  12.435 -1.8066  0.1563 -1.3414
17707TIP3   OH274535   2.440   4.946  14.700 -0.4976 -0.4284  0.4017
17707TIP3    H174536   2.413   4.873  14.645 -1.0175  0.7706 -0.9918
17707TIP3    H274537   2.358   4.981  14.735 -0.1073 -3.0419  4.6323
17708TIP3   OH274538   6.114   4.346   1.298  0.0226  0.3429  0.5011
17708TIP3    H174539   6.209   4.335   1.302 -0.1392 -1.3390  0.2611
17708TIP3    H274540   6.097   4.372   1.207  0.0657 -1.9807 -0.2455
17709TIP3   OH274541   3.237   0.877   4.884 -0.2420 -0.1534  0.2815
17709TIP3    H174542   3.282   0.896   4.966 -0.8130  0.0828  0.5448
17709TIP3    H274543   3.167   0.943   4.879  2.0422  2.3880 -2.2180
17710TIP3   OH274544   5.472   3.905  14.751 -0.1014  0.5571 -0.2176
17710TIP3    H174545   5.553   3.906  14.700  0.4105  1.2787  0.5906
17710TIP3    H274546   5.500   3.889  14.841 -0.8054  1.3565  0.1540
17711TIP3   OH274547   5.827   4.958   3.644  0.2702 -0.2303 -0.3984
17711TIP3    H174548   5.749   4.920   3.683  1.2152 -1.7982  0.0531
17711TIP3    H274549   5.834   4.917   3.558 -0.4084  1.3211 -1.2343
17712TIP3   OH274550   2.235   6.567  13.474 -0.4026 -0.5645 -0.1687
17712TIP3    H174551   2.238   6.662  13.484 -0.5703 -0.6974  1.3225
17712TIP3    H274552   2.162   6.539  13.530 -1.4172 -1.4424 -1.8411
17713TIP3   OH274553   3.969   5.130   4.961 -0.0343  0.3437  0.2777
17713TIP3    H174554   3.922   5.127   4.877  0.5429 -0.4234 -0.0316
17713TIP3    H274555   4.013   5.045   4.967  3.0561  1.7392 -0.4754
17714TIP3   OH274556   1.118   2.207  14.974 -0.7260 -0.5449  0.1970
17714TIP3    H174557   1.123   2.303  14.979 -0.9499 -0.5720  1.1217
17714TIP3    H274558   1.174   2.176  15.044 -1.7191 -1.0638  0.7833
17715TIP3   OH274559   6.040   1.092   5.588  0.1701  0.3014 -0.2110
17715TIP3    H174560   5.994   1.083   5.671  0.5081 -0.9331 -0.1482
17715TIP3    H274561   6.032   1.185   5.567 -1.4584  0.2945  0.2937
17716TIP3   OH274562   3.884   1.389  11.022  0.2720 -0.3095 -0.3663
17716TIP3    H174563   3.865   1.407  10.929  0.3294  1.5573 -0.0538
17716TIP3    H274564   3.854   1.467  11.068  1.9336 -0.4123  0.9936
17717TIP3   OH274565   1.700   1.915  10.703  0.5958 -0.5162  0.2385
17717TIP3    H174566   1.775   1.858  10.722  1.7591  0.6118 -0.8114
17717TIP3    H274567   1.645   1.864  10.644  0.0613 -1.6825  1.6828
17718TIP3   OH274568   2.283   1.969   0.295 -0.0178  0.4673 -0.2718
17718TIP3    H174569   2.234   1.943   0.374 -1.2645 -1.9278 -1.7184
17718TIP3    H274570   2.309   2.059   0.313 -0.2769  0.0585  2.8523
17719TIP3   OH274571   1.920   0.174  16.532  1.0848  0.0603 -0.9018
17719TIP3    H174572   1.951   0.103  16.476  0.5506 -0.2522 -0.8126
17719TIP3    H274573   1.959   0.156  16.618  0.5934 -0.3839 -0.7660
17720TIP3   OH274574   2.902   0.324  12.327  0.0820 -0.0401 -0.1774
17720TIP3    H174575   2.896   0.332  12.422 -0.4785  0.7730 -0.2679
17720TIP3    H274576   2.850   0.397  12.293 -1.6986 -1.6658 -1.1355
17721TIP3   OH274577   4.119   2.501  12.207 -0.7574  0.2810  0.4225
17721TIP3    H174578   4.092   2.434  12.144  0.5775 -2.0132  2.1088
17721TIP3    H274579   4.037   2.543  12.234 -1.4896  0.3346 -1.6871
17722TIP3   OH274580   0.602   2.187   0.507 -0.0074  0.3664  0.2615
17722TIP3    H174581   0.616   2.247   0.580  1.5073 -1.0105  1.1783
17722TIP3    H274582   0.691   2.161   0.480 -0.6047 -1.0385 -0.4550
17723TIP3   OH274583   2.493   5.411  13.584 -0.1005 -0.0034  0.5261
17723TIP3    H174584   2.416   5.454  13.547 -0.2421 -0.5327  0.1854
17723TIP3    H274585   2.533   5.366  13.510 -0.7553 -1.6226  1.0988
17724TIP3   OH274586   3.928   2.819   5.424 -0.6379 -0.7499  0.2986
17724TIP3    H174587   3.961   2.830   5.514 -1.9237 -0.0772  0.7073
17724TIP3    H274588   3.902   2.727   5.420 -0.3426 -0.8473  0.5339
17725TIP3   OH274589   1.401   1.671   3.477  0.4445  0.2939 -0.1928
17725TIP3    H174590   1.360   1.710   3.554 -1.2519 -0.5914 -0.6088
17725TIP3    H274591   1.471   1.616   3.512 -0.1839  0.0493  0.6943
17726TIP3   OH274592   2.802   5.761   0.659 -0.1682 -0.0146  0.2052
17726TIP3    H174593   2.831   5.681   0.614 -0.0280 -0.0753  0.3970
17726TIP3    H274594   2.810   5.830   0.594 -0.1062 -0.1267  0.0934
17727TIP3   OH274595   3.945   2.591  14.208 -0.8701 -0.3067 -0.4042
17727TIP3    H174596   3.892   2.571  14.131  0.7750  0.5846 -1.8365
17727TIP3    H274597   3.986   2.675  14.188  1.3338 -1.1041  0.4455
17728TIP3   OH274598   3.224   1.013  14.462 -0.1296  0.0435  0.0492
17728TIP3    H174599   3.258   1.024  14.551 -0.9170 -0.5192  0.4275
17728TIP3    H274600   3.152   1.076  14.456 -0.6070 -0.4911  0.0956
17729TIP3   OH274601   0.609   5.608   0.492  0.2538 -0.7350  0.1803
17729TIP3    H174602   0.605   5.694   0.535  1.7933  0.1595 -1.3544
17729TIP3    H274603   0.520   5.574   0.500  0.2006 -0.2009  3.1263
17730TIP3   OH274604   5.625   3.379  13.661  0.9742  0.0440 -0.5577
17730TIP3    H174605   5.584   3.460  13.691 -0.6008 -0.1763 -1.9575
17730TIP3    H274606   5.599   3.314  13.726  0.2148  0.1855 -0.7100
17731TIP3   OH274607   6.115   2.148  14.111  0.1226  0.2288  0.1247
17731TIP3    H174608   6.140   2.170  14.022 -1.2948  1.7977  0.0824
17731TIP3    H274609   6.091   2.231  14.151 -1.8961 -0.7753  1.1259
17732TIP3   OH274610   2.480   4.179  14.843  0.5006 -0.5922  0.1892
17732TIP3    H174611   2.456   4.271  14.842 -1.0894 -0.9781 -0.2861
17732TIP3    H274612   2.499   4.158  14.752  1.0432 -0.6844  0.3243
17733TIP3   OH274613   2.883   6.135  16.782 -0.4665  0.6864 -0.2373
17733TIP3    H174614   2.891   6.230  16.773 -0.5879  0.7705  0.5565
17733TIP3    H274615   2.789   6.118  16.781 -0.5518  0.1513 -4.4964
17734TIP3   OH274616   0.519   3.088   0.184 -0.2165  0.4043  0.7259
17734TIP3    H174617   0.493   3.068   0.274 -0.9685  2.8375  1.1162
17734TIP3    H274618   0.440   3.075   0.132  0.1402 -0.7052  0.4330
17735TIP3   OH274619   5.855   5.024   0.516 -0.1717  0.2820  1.1613
17735TIP3    H174620   5.777   5.067   0.551  0.6828 -0.3202  4.1100
17735TIP3    H274621   5.907   5.002   0.594  1.2152 -2.6248 -0.4157
17736TIP3   OH274622   4.151   4.908  16.118 -0.6667 -0.3994  0.2074
17736TIP3    H174623   4.181   4.819  16.102  0.5342 -0.0041  0.1741
17736TIP3    H274624   4.229   4.962  16.105 -1.3357  0.6335  0.4170
17737TIP3   OH274625   4.308   2.421   6.083 -0.6342  0.1834 -0.3927
17737TIP3    H174626   4.293   2.457   6.170 -0.4796 -0.7588  0.0407
17737TIP3    H274627   4.390   2.371   6.092 -1.5107 -1.3545 -0.6016
17738TIP3   OH274628   1.789   5.301  13.090  0.3581  0.2716 -1.0289
17738TIP3    H174629   1.865   5.288  13.034  1.7827 -2.3865  1.2628
17738TIP3    H274630   1.723   5.241  13.055  0.4459  0.2353 -1.1329
17739TIP3   OH274631   2.267   3.207  13.968  0.3878  0.4959 -0.0871
17739TIP3    H174632   2.256   3.243  13.879 -0.7180  0.9190  0.2006
17739TIP3    H274633   2.189   3.152  13.980  0.6736  0.2288  0.5227
17740TIP3   OH274634   0.701   1.419  11.799  0.2720 -0.3394 -0.6615
17740TIP3    H174635   0.753   1.460  11.868 -0.4715  1.7779 -1.2707
17740TIP3    H274636   0.611   1.446  11.817 -0.1310 -0.9750 -1.6247
17741TIP3   OH274637   1.745   4.974  12.196  0.4473  0.3354  0.1876
17741TIP3    H174638   1.654   4.985  12.167  0.0186 -1.2785  0.7699
17741TIP3    H274639   1.788   4.929  12.123  0.1488 -1.0025  0.8082
17742TIP3   OH274640   5.165   2.595   4.001  0.3922 -0.2083 -0.8285
17742TIP3    H174641   5.206   2.676   4.032 -1.0034 -0.3846  1.7692
17742TIP3    H274642   5.112   2.565   4.075 -1.9348 -1.6467 -2.9047
17743TIP3   OH274643   6.479   5.858   0.735 -0.4785 -0.0276  0.3269
17743TIP3    H174644   6.467   5.813   0.651  1.0892 -0.1357  0.1230
17743TIP3    H274645   6.442   5.798   0.800  0.4685 -1.0873 -0.0654
17744TIP3   OH274646   4.909   0.175   6.373  0.1788 -0.0710 -0.3005
17744TIP3    H174647   4.974   0.123   6.421  0.1325  0.3997  0.2698
17744TIP3    H274648   4.835   0.184   6.434 -0.8527 -1.4196 -1.2698
17745TIP3   OH274649   5.021   1.871  11.958 -0.0279 -0.0666  0.4447
17745TIP3    H174650   5.078   1.856  12.034  1.7968  0.6825 -0.7223
17745TIP3    H274651   5.036   1.796  11.901 -0.3711  0.0368  0.2161
17746TIP3   OH274652   0.088   2.837   3.546  0.6035  0.0547  0.3909
17746TIP3    H174653   0.041   2.899   3.602  0.6260 -0.4506  0.9923
17746TIP3    H274654   0.118   2.769   3.607 -0.0559 -0.9280 -0.3537
17747TIP3   OH274655   6.734   2.553   1.397 -0.3213  0.5473 -0.3810
17747TIP3    H174656   6.720   2.642   1.428  0.5850  0.6414 -0.2232
17747TIP3    H274657   6.827   2.536   1.413 -0.0529  0.2375 -2.1032
17748TIP3   OH274658   1.024   4.688   5.112  0.0120 -0.4331 -0.0748
17748TIP3    H174659   0.966   4.684   5.188 -1.0154  0.7282 -0.7705
17748TIP3    H274660   1.011   4.776   5.076  1.4634 -0.5007 -0.8416
17749TIP3   OH274661   0.589   1.209   2.501 -0.1224 -0.1904  0.1920
17749TIP3    H174662   0.544   1.290   2.478  1.0929  0.4725  0.0404
17749TIP3    H274663   0.598   1.212   2.596 -2.1651 -1.3189  0.4824
17750TIP3   OH274664   4.901   5.297  14.889 -0.0181 -0.6039 -0.2815
17750TIP3    H174665   4.988   5.273  14.859  0.5683  1.0863 -0.0471
17750TIP3    H274666   4.842   5.261  14.823  0.9865 -0.3419 -1.3501
17751TIP3   OH274667   2.031   0.123  16.240  0.2063  0.2926 -0.0036
17751TIP3    H174668   1.958   0.062  16.250  0.5356 -0.3663 -1.3800
17751TIP3    H274669   2.086   0.108  16.317  0.1846 -1.0266 -0.2179
17752TIP3   OH274670   0.326   6.745  14.937  0.8840  0.2750 -0.6808
17752TIP3    H174671   0.260   6.811  14.960  1.2092  0.4284 -0.1868
17752TIP3    H274672   0.314   6.732  14.843 -0.3240 -0.2024 -0.4880
17753TIP3   OH274673   2.091   3.566  14.247  0.2639  0.0692 -0.4988
17753TIP3    H174674   2.177   3.590  14.284  0.6747 -2.4506  0.3943
17753TIP3    H274675   2.108   3.557  14.153  0.8282  0.1677 -0.4156
17754TIP3   OH274676   1.326   0.582  14.359 -0.1760  0.0618 -0.3776
17754TIP3    H174677   1.284   0.668  14.353 -0.0666  0.1718  0.3532
17754TIP3    H274678   1.309   0.542  14.273 -3.2188 -0.5591  0.3864
17755TIP3   OH274679   3.377   3.421   5.924 -0.1168  0.4141 -0.3395
17755TIP3    H174680   3.427   3.345   5.894 -0.7383  0.3402 -1.2280
17755TIP3    H274681   3.369   3.409   6.019  0.4055 -0.2514 -0.3754
17756TIP3   OH274682   5.188   0.524   4.763  0.0434  0.0952  0.4949
17756TIP3    H174683   5.150   0.468   4.831 -1.4239  0.9397  0.4333
17756TIP3    H274684   5.255   0.575   4.808  3.6996 -3.7098 -0.0479
17757TIP3   OH274685   5.778   5.696  15.130 -0.1466 -0.1509 -0.3018
17757TIP3    H174686   5.687   5.699  15.101  0.0031 -0.8794 -0.8685
17757TIP3    H274687   5.819   5.773  15.091 -0.7582  0.7843  0.8381
17758TIP3   OH274688   3.421   5.224   2.044 -0.4286 -0.2894 -0.0013
17758TIP3    H174689   3.347   5.178   2.003 -0.2058 -0.3691 -0.3146
17758TIP3    H274690   3.494   5.209   1.985 -0.3126  0.3411 -0.0230
17759TIP3   OH274691   5.428   2.975   5.368  0.1825  0.2815  0.2791
17759TIP3    H174692   5.389   3.062   5.356  0.4630  0.2130 -1.2927
17759TIP3    H274693   5.355   2.914   5.354  0.3330  0.2252 -0.2864
17760TIP3   OH274694   3.396   3.706   2.654 -0.2886  0.7040  0.1867
17760TIP3    H174695   3.360   3.786   2.693 -1.2018 -0.2636  1.3961
17760TIP3    H274696   3.372   3.712   2.561 -0.8827  1.5307  0.3846
17761TIP3   OH274697   1.748   6.612   4.151 -0.3463 -0.3327 -0.5671
17761TIP3    H174698   1.794   6.593   4.069 -0.1534  0.2345 -0.5895
17761TIP3    H274699   1.760   6.533   4.204  1.8394  0.2978 -0.0280
17762TIP3   OH274700   3.883   5.521  13.524 -0.0834 -0.2935  0.1963
17762TIP3    H174701   3.963   5.468  13.519 -1.2773 -2.0226 -2.7255
17762TIP3    H274702   3.849   5.505  13.612  2.2503 -0.2283  1.1849
17763TIP3   OH274703   4.082   2.416   0.536 -0.6340  0.7399 -0.0728
17763TIP3    H174704   4.040   2.398   0.452 -0.6289 -0.8471  0.2263
17763TIP3    H274705   4.024   2.375   0.601 -0.8230  2.2359  0.7585
17764TIP3   OH274706   1.650   1.231   0.047 -0.2114  0.4235 -0.2487
17764TIP3    H174707   1.687   1.269   0.127 -1.2155  2.4373 -0.6749
17764TIP3    H274708   1.725   1.219  -0.011  0.1104  2.5591 -0.3613
17765TIP3   OH274709   4.465   6.309  16.717  0.0941 -0.2956  0.3504
17765TIP3    H174710   4.505   6.261  16.645  2.9931  1.2255  0.8007
17765TIP3    H274711   4.431   6.242  16.775  2.4538 -1.7709  0.1275
17766TIP3   OH274712   6.663   2.879   0.798 -0.3608  0.1409 -0.3026
17766TIP3    H174713   6.634   2.963   0.761  0.6172  0.4687 -0.3486
17766TIP3    H274714   6.584   2.826   0.800 -0.6138  0.3650 -2.1662
17767TIP3   OH274715   5.677   2.527  13.584  0.3026 -0.5044  0.2401
17767TIP3    H174716   5.742   2.595  13.605  0.1189 -0.3502  0.3091
17767TIP3    H274717   5.594   2.563  13.615  0.2578 -0.9103  0.5924
17768TIP3   OH274718   3.761   2.920  13.930  0.6871 -0.1625 -0.3518
17768TIP3    H174719   3.796   2.840  13.970  1.5022  0.4226  0.1167
17768TIP3    H274720   3.821   2.989  13.957 -0.5045  0.7780  0.0103
17769TIP3   OH274721   0.041   4.827  12.280 -0.2707  0.0738 -0.3841
17769TIP3    H174722  -0.053   4.808  12.284 -0.1492 -0.9333 -1.7180
17769TIP3    H274723   0.082   4.756  12.330 -0.2627  1.2367  1.3415
17770TIP3   OH274724   0.242   1.571  10.899  0.3082 -0.6081  0.0563
17770TIP3    H174725   0.197   1.535  10.823 -1.0188 -0.3343  0.6697
17770TIP3    H274726   0.306   1.504  10.924 -1.1814 -1.9648  0.3811
17771TIP3   OH274727   2.899   1.161   1.797  0.2150  0.8412 -0.0170
17771TIP3    H174728   2.850   1.102   1.854  1.4319 -0.0945  0.1110
17771TIP3    H274729   2.857   1.153   1.712 -0.3692  0.7020  0.2762
17772TIP3   OH274730   0.831   3.080  12.654  0.3139 -0.3501 -0.2516
17772TIP3    H174731   0.759   3.016  12.648 -0.8141  0.3712  3.1943
17772TIP3    H274732   0.831   3.124  12.569 -2.6304 -1.1382 -0.7876
17773TIP3   OH274733   5.482   4.273  13.467  0.0953  0.2266  0.2462
17773TIP3    H174734   5.468   4.180  13.488  0.9823  0.2265  0.9022
17773TIP3    H274735   5.575   4.287  13.483  0.5149  0.6433 -2.2325
17774TIP3   OH274736   5.093   2.204   5.729  0.0049 -0.2315  0.2825
17774TIP3    H174737   5.188   2.203   5.715  0.5124  0.9520  3.0864
17774TIP3    H274738   5.067   2.294   5.709 -0.3741 -0.2894  0.5151
17775TIP3   OH274739   2.804   5.597   4.473  0.2637 -0.3054 -0.0884
17775TIP3    H174740   2.895   5.568   4.466  0.8986  1.5657 -0.2025
17775TIP3    H274741   2.772   5.558   4.554  0.6201 -2.3235 -0.8724
17776TIP3   OH274742   2.139   6.326  14.613  0.2600  0.1887 -0.5268
17776TIP3    H174743   2.095   6.402  14.575 -0.8536 -0.7938 -1.3139
17776TIP3    H274744   2.102   6.252  14.565  2.1673 -0.7679 -0.6045
17777TIP3   OH274745   4.635   0.711  15.761 -0.1261 -0.1500 -0.3163
17777TIP3    H174746   4.707   0.740  15.704 -0.0357 -0.7641 -0.5274
17777TIP3    H274747   4.671   0.636  15.808 -1.1548 -1.6089 -1.7275
17778TIP3   OH274748   4.210   2.990   1.381 -0.3306  0.3293  1.0199
17778TIP3    H174749   4.147   3.007   1.311 -0.3504 -0.1459  0.9196
17778TIP3    H274750   4.209   3.069   1.434 -1.3577  0.1408  1.2878
17779TIP3   OH274751   5.266   4.685   2.739 -0.2158  0.3510  0.2392
17779TIP3    H174752   5.272   4.598   2.778 -0.1292 -0.1265 -0.8128
17779TIP3    H274753   5.175   4.710   2.750  0.0613  0.7795  1.8673
17780TIP3   OH274754   3.472   1.994   3.010  0.0279 -0.7372 -0.0848
17780TIP3    H174755   3.393   1.996   3.064 -0.8076 -0.7350 -1.2656
17780TIP3    H274756   3.449   2.043   2.932  1.5472  0.1440 -0.0269
17781TIP3   OH274757   1.902   6.808   1.458 -0.4556  0.0466 -0.4725
17781TIP3    H174758   1.912   6.801   1.552 -0.6618 -1.6489 -0.5426
17781TIP3    H274759   1.985   6.845   1.427 -0.3624  0.5405  0.3687
17782TIP3   OH274760   3.190   2.507   2.165  0.0024 -0.1177 -0.0249
17782TIP3    H174761   3.157   2.560   2.238 -0.3126  0.8829 -0.8679
17782TIP3    H274762   3.113   2.486   2.113  0.4963  1.2924 -1.4051
17783TIP3   OH274763   5.212   3.887  16.279  0.1486  0.5507 -0.3006
17783TIP3    H174764   5.128   3.863  16.240  0.0922  1.2197 -0.6163
17783TIP3    H274765   5.198   3.881  16.373 -0.2090  0.5112 -0.3554
17784TIP3   OH274766   1.567   6.076  15.358  0.0139 -0.1360  0.2389
17784TIP3    H174767   1.608   6.151  15.314  0.3381 -0.5965 -0.2618
17784TIP3    H274768   1.636   6.009  15.361 -0.6119 -0.8237 -0.3596
17785TIP3   OH274769   0.648   5.265   1.086  0.1009 -0.5242  0.0745
17785TIP3    H174770   0.727   5.265   1.032 -0.8529 -1.8930 -1.4283
17785TIP3    H274771   0.581   5.306   1.031 -0.6148 -0.8506  0.6757
17786TIP3   OH274772   0.747   1.182   4.681 -0.4492  0.0991  0.5082
17786TIP3    H174773   0.837   1.204   4.704 -0.9327  1.4161  1.2476
17786TIP3    H274774   0.738   1.210   4.590  0.1547 -0.9664  0.1009
17787TIP3   OH274775   0.842   2.604   5.320 -0.0978 -0.6296 -0.0239
17787TIP3    H174776   0.772   2.670   5.323  0.2167 -0.3091  0.3402
17787TIP3    H274777   0.905   2.633   5.386  0.4601 -0.8307 -0.4603
17788TIP3   OH274778   3.224   6.391   5.851 -0.3376  0.1209 -0.3573
17788TIP3    H174779   3.217   6.486   5.842  1.1781  0.0535 -3.4364
17788TIP3    H274780   3.136   6.359   5.830 -0.5741  0.7944 -0.4387
17789TIP3   OH274781   0.045   0.005  16.655  0.4353  0.1011  0.1145
17789TIP3    H174782   0.140   0.015  16.650  0.7763 -2.4438  0.0583
17789TIP3    H274783   0.030  -0.088  16.635 -2.1460  0.6226 -0.7349
17790TIP3   OH274784   1.909   5.819   4.897 -0.7934  0.3448  0.7426
17790TIP3    H174785   1.930   5.905   4.862  0.6100 -0.7134 -1.2317
17790TIP3    H274786   1.901   5.832   4.991 -1.1138  2.6965  0.4389
17791TIP3   OH274787   0.858   0.256   5.292 -0.0045  0.1823  0.1354
17791TIP3    H174788   0.826   0.328   5.346  0.4525 -0.2076  0.9260
17791TIP3    H274789   0.784   0.235   5.234 -0.7900  0.0531  1.1677
17792TIP3   OH274790   2.761   4.654   3.868 -0.1349 -0.7916  0.1311
17792TIP3    H174791   2.755   4.735   3.817  3.3528 -0.1082  0.5596
17792TIP3    H274792   2.681   4.654   3.921 -0.2717  2.4838  0.1841
17793TIP3   OH274793   2.848   2.475  16.067  0.1244 -0.3967 -0.1663
17793TIP3    H174794   2.760   2.498  16.099  0.6972  1.3766  0.2177
17793TIP3    H274795   2.837   2.462  15.973 -0.4240  0.5916 -0.2536
17794TIP3   OH274796   4.596   0.938   4.680 -0.2097  1.1504  0.0680
17794TIP3    H174797   4.631   0.925   4.592  0.3993  0.3643  0.4037
17794TIP3    H274798   4.664   0.987   4.726  0.0951  0.3749  0.4747
17795TIP3   OH274799   1.903   6.674  11.346  0.2030 -0.5822  0.1628
17795TIP3    H174800   1.933   6.758  11.311 -0.2018 -0.7387 -0.5991
17795TIP3    H274801   1.983   6.628  11.370  0.3733  0.6359  2.1053
17796TIP3   OH274802   2.228   4.796  14.280 -0.3418 -0.4148  0.3815
17796TIP3    H174803   2.174   4.873  14.297 -0.4904 -0.4880  0.2486
17796TIP3    H274804   2.165   4.723  14.275 -0.2123 -0.5286  0.4131
17797TIP3   OH274805   5.924   3.142  15.161  0.4834  0.3855 -0.1366
17797TIP3    H174806   5.964   3.082  15.098 -0.4349 -0.3495 -0.0449
17797TIP3    H274807   5.837   3.160  15.126  0.0316  0.1247  0.8045
17798TIP3   OH274808   0.823   1.892   1.044  0.3976  0.2178  0.1655
17798TIP3    H174809   0.907   1.875   1.000 -0.3273 -2.3470 -0.4428
17798TIP3    H274810   0.762   1.908   0.972 -0.2746 -1.3498  0.3548
17799TIP3   OH274811   3.540   0.759  12.969 -0.2324 -0.4864  0.0573
17799TIP3    H174812   3.480   0.834  12.970  0.8517  0.4036  0.5263
17799TIP3    H274813   3.509   0.702  13.039 -1.2800 -0.6686 -0.5339
17800TIP3   OH274814   3.154   6.272  12.141 -0.2388  0.1177  0.1845
17800TIP3    H174815   3.165   6.224  12.058  0.9349  0.6579  0.0197
17800TIP3    H274816   3.149   6.203  12.207 -0.8517 -0.3111 -0.2868
17801TIP3   OH274817   0.308   2.528   4.355  0.0570  0.1367 -0.3279
17801TIP3    H174818   0.360   2.608   4.362  0.0796  0.0151  1.3552
17801TIP3    H274819   0.315   2.488   4.442 -0.6777 -1.2404 -0.8782
17802TIP3   OH274820   3.286   5.572   0.483  0.5814 -0.7904 -0.5938
17802TIP3    H174821   3.279   5.610   0.570  1.4133  2.5495 -1.8046
17802TIP3    H274822   3.197   5.549   0.459 -0.2006  1.4178 -0.0502
17803TIP3   OH274823   4.684   3.560  16.321 -0.4978 -0.1827 -0.5418
17803TIP3    H174824   4.595   3.584  16.348 -0.5036  0.8715 -1.4241
17803TIP3    H274825   4.705   3.483  16.373 -2.5001 -1.3720 -1.3770
17804TIP3   OH274826   0.604   1.612   2.522  0.4189  0.2004 -0.1005
17804TIP3    H174827   0.612   1.692   2.470  1.9391  1.0678  1.3642
17804TIP3    H274828   0.548   1.636   2.596  2.3188  0.5135  1.3155
17805TIP3   OH274829   2.217   5.545   5.082  0.1839  0.1935  0.1659
17805TIP3    H174830   2.152   5.596   5.034  0.3338  0.8607  0.6559
17805TIP3    H274831   2.300   5.567   5.039  0.0277 -1.2742 -0.9838
17806TIP3   OH274832   6.322   3.593   5.073 -0.5791  0.3077  0.3232
17806TIP3    H174833   6.365   3.523   5.024 -2.2312 -0.3111 -0.3456
17806TIP3    H274834   6.290   3.550   5.153 -0.0106  0.7443  0.7922
17807TIP3   OH274835   1.962   6.129  13.326 -0.0377  0.1066 -0.1838
17807TIP3    H174836   1.929   6.178  13.401  0.2949 -0.2052  0.1691
17807TIP3    H274837   1.886   6.080  13.294  0.2628 -1.3429  1.2016
17808TIP3   OH274838   1.782   0.200   4.619 -0.0082  0.6430  0.1956
17808TIP3    H174839   1.813   0.237   4.536 -1.4195  2.1973  0.3102
17808TIP3    H274840   1.860   0.199   4.675  1.3740 -1.9004 -1.5468
17809TIP3   OH274841   3.430   6.096  11.262  0.0047 -0.0645 -0.3907
17809TIP3    H174842   3.524   6.116  11.254 -0.3487  1.8648 -0.2280
17809TIP3    H274843   3.424   6.002  11.246  1.9119 -0.1411 -0.9131
17810TIP3   OH274844   0.562   5.377  12.786 -0.5353 -0.4399 -0.2640
17810TIP3    H174845   0.551   5.398  12.693 -0.7720 -2.1354 -0.6547
17810TIP3    H274846   0.656   5.363  12.797 -0.6323 -1.3422 -0.5199
17811TIP3   OH274847   2.371   5.082   3.479  0.0316  0.0665  0.3089
17811TIP3    H174848   2.373   5.147   3.549  0.0778 -1.0414  1.3907
17811TIP3    H274849   2.453   5.094   3.432  0.9313 -0.4070  1.6791
17812TIP3   OH274850   1.005   6.454  15.855 -0.2447 -0.8499  0.0199
17812TIP3    H174851   0.986   6.374  15.903  0.2915 -0.3628  1.0636
17812TIP3    H274852   1.101   6.459  15.853 -0.2694  0.0952  0.5409
17813TIP3   OH274853   1.079   1.549  14.801 -0.5449 -0.1750  0.5882
17813TIP3    H174854   1.036   1.505  14.874 -0.0380  1.2458  1.8012
17813TIP3    H274855   1.008   1.571  14.741 -1.5602  1.7618  2.3607
17814TIP3   OH274856   3.424   5.715   4.827  0.0475  0.2672  0.0020
17814TIP3    H174857   3.472   5.760   4.896  2.0883 -2.1012  0.2949
17814TIP3    H274858   3.466   5.742   4.746  0.7059 -0.3926  0.1094
17815TIP3   OH274859   4.404   0.980   0.407 -0.4616  0.4897 -0.6309
17815TIP3    H174860   4.410   1.073   0.385 -2.6854  0.9400  0.3970
17815TIP3    H274861   4.382   0.938   0.324  2.8778  0.4425 -1.6492
17816TIP3   OH274862   2.412   1.973   2.952 -0.1450  0.5090  0.2024
17816TIP3    H174863   2.325   1.934   2.954 -0.6531  1.6534  1.4597
17816TIP3    H274864   2.397   2.067   2.958  1.1328  0.8230 -0.9722
17817TIP3   OH274865   4.106   6.658  15.523 -0.4884 -0.1942  0.0131
17817TIP3    H174866   4.064   6.609  15.453 -1.7744 -0.1534  0.7328
17817TIP3    H274867   4.160   6.594  15.569  1.6482  0.0922 -1.9179
17818TIP3   OH274868   2.774   4.646   1.868  0.2810 -0.1743 -0.5155
17818TIP3    H174869   2.768   4.674   1.959  0.1510  0.1757 -0.6338
17818TIP3    H274870   2.864   4.613   1.859 -0.7366 -3.8448  0.7900
17819TIP3   OH274871   1.805   3.583   1.502  0.7477  0.6523 -0.0433
17819TIP3    H174872   1.872   3.641   1.539 -0.7437  0.1336  3.9526
17819TIP3    H274873   1.787   3.519   1.572 -0.6255 -2.1368 -2.7028
17820TIP3   OH274874   2.140   1.519   3.673 -0.1991  0.0825  0.4210
17820TIP3    H174875   2.142   1.586   3.605  1.1005 -1.1987 -0.8927
17820TIP3    H274876   2.216   1.537   3.728  0.5314 -0.6323 -0.3162
17821TIP3   OH274877   4.838   5.696  13.214  0.4855  0.3838 -0.1056
17821TIP3    H174878   4.781   5.707  13.290  0.0577 -0.1755 -0.3353
17821TIP3    H274879   4.863   5.785  13.190 -1.4801  0.7844 -0.8800
17822TIP3   OH274880   3.691   1.452   0.269  0.1133 -0.0314 -0.6122
17822TIP3    H174881   3.714   1.408   0.187  0.3817 -0.5896 -0.2410
17822TIP3    H274882   3.746   1.531   0.270  0.8294 -0.5239 -0.5083
17823TIP3   OH274883   5.191   2.600  11.452  0.3671  0.1781 -0.0126
17823TIP3    H174884   5.098   2.580  11.466  0.3349 -0.5878 -1.1173
17823TIP3    H274885   5.234   2.514  11.457  0.7960  0.3285 -0.9736
17824TIP3   OH274886   4.508   6.643   0.553  0.4518  0.5935  0.2175
17824TIP3    H174887   4.473   6.663   0.639  0.6244  0.3299  0.3495
17824TIP3    H274888   4.490   6.721   0.501  0.2997  0.7311  0.4768
17825TIP3   OH274889   2.278   3.967   3.177  0.4647 -0.6317 -0.7305
17825TIP3    H174890   2.347   3.994   3.116 -0.3035  0.9968 -0.9366
17825TIP3    H274891   2.325   3.941   3.256  1.3657 -0.8048 -1.3049
17826TIP3   OH274892   4.983   4.219   0.424 -0.0167 -0.2080  0.5200
17826TIP3    H174893   4.922   4.220   0.350 -0.1210 -0.8522  0.5884
17826TIP3    H274894   4.973   4.131   0.462 -1.2740  0.6764  2.3944
17827TIP3   OH274895   1.436   3.013   0.701  0.1040  0.0283  0.0810
17827TIP3    H174896   1.360   3.068   0.718 -1.1727 -1.7679  0.3975
17827TIP3    H274897   1.452   2.968   0.784  1.2384  0.0408 -0.1158
17828TIP3   OH274898   5.389   6.110   2.882  0.1933  0.1303 -0.2229
17828TIP3    H174899   5.311   6.165   2.888  0.1783  0.0290  0.7739
17828TIP3    H274900   5.452   6.163   2.834 -0.0554  0.7484  0.1136
17829TIP3   OH274901   4.583   0.203   0.048 -0.0567  0.1469 -0.5697
17829TIP3    H174902   4.641   0.274   0.024  1.4659 -0.9014 -0.1179
17829TIP3    H274903   4.503   0.246   0.078  0.4629  1.6158 -1.2306
17830TIP3   OH274904   6.316   0.599   4.828 -0.4729  0.3479 -0.4742
17830TIP3    H174905   6.318   0.507   4.802 -0.7858  0.2426 -0.1296
17830TIP3    H274906   6.224   0.624   4.820 -0.3917  0.6255 -0.5447
17831TIP3   OH274907   0.234   1.864  16.995 -0.1142  0.1891 -0.1405
17831TIP3    H174908   0.190   1.798  17.048 -1.1005 -0.2629 -1.4718
17831TIP3    H274909   0.234   1.943  17.051  1.8686 -1.0718  1.8208
17832TIP3   OH274910   5.553   3.698  15.882 -0.2809  0.1493  0.1768
17832TIP3    H174911   5.471   3.691  15.931 -0.3372  1.7397  0.3597
17832TIP3    H274912   5.561   3.791  15.862  0.9193 -0.1460 -0.8285
17833TIP3   OH274913   4.217   0.988   2.678  0.3342  0.3742  0.2156
17833TIP3    H174914   4.206   0.900   2.644  0.8610  1.1904 -2.2630
17833TIP3    H274915   4.132   1.030   2.666  0.1968  0.3443  1.0165
17834TIP3   OH274916   2.010   4.076  16.153 -0.3332  0.2561 -0.1944
17834TIP3    H174917   1.970   3.989  16.152 -0.0244 -0.0539  2.9817
17834TIP3    H274918   2.101   4.061  16.178 -0.5486  1.4994  1.5017
17835TIP3   OH274919   6.235   3.820   2.755 -0.8434  0.7736 -0.4460
17835TIP3    H174920   6.142   3.835   2.737 -1.8789 -1.2235  2.3982
17835TIP3    H274921   6.255   3.737   2.712 -1.2157 -0.1643  1.0928
17836TIP3   OH274922   5.332   1.796  11.435  0.3401  0.4819  0.4499
17836TIP3    H174923   5.327   1.739  11.359  0.3342  0.0283  0.7877
17836TIP3    H274924   5.421   1.832  11.432  0.3848  0.3613  0.3036
17837TIP3   OH274925   0.683   6.367   5.610 -0.0194 -0.1647 -0.3038
17837TIP3    H174926   0.702   6.459   5.597  0.7903 -0.0578  1.3682
17837TIP3    H274927   0.662   6.334   5.523  0.8366  1.3269 -1.1109
17838TIP3   OH274928   6.209   3.368  16.890  0.3859 -0.4980 -0.3626
17838TIP3    H174929   6.179   3.299  16.949 -1.3142  0.4609 -0.0409
17838TIP3    H274930   6.161   3.352  16.808  0.1527  0.1498 -0.3579
17839TIP3   OH274931   2.753   1.856  16.021  0.4548  0.2634 -0.7345
17839TIP3    H174932   2.711   1.933  15.982  1.3304  0.5296 -1.1534
17839TIP3    H274933   2.685   1.788  16.017 -0.1618  0.8659 -0.8035
17840TIP3   OH274934   2.492   2.134  16.572  0.0513  0.9515  0.2053
17840TIP3    H174935   2.419   2.164  16.517 -2.0888 -1.1859  1.6432
17840TIP3    H274936   2.510   2.045  16.541 -0.4228  0.1390  2.1109
17841TIP3   OH274937   5.959   6.388   1.998  0.6303 -0.1357  0.0175
17841TIP3    H174938   5.981   6.301   1.964 -2.3526 -0.4719 -1.3121
17841TIP3    H274939   5.971   6.446   1.923 -3.5043 -0.4876 -1.1181
17842TIP3   OH274940   2.772   0.612   1.257 -0.7107 -0.7977 -0.0294
17842TIP3    H174941   2.735   0.697   1.282 -0.3375 -0.5057 -0.4518
17842TIP3    H274942   2.798   0.572   1.340 -1.1887 -0.6436  0.1990
17843TIP3   OH274943   3.868   5.192   3.245 -0.2771  0.0543  0.4441
17843TIP3    H174944   3.935   5.241   3.197  0.2755 -1.1827 -0.0951
17843TIP3    H274945   3.815   5.259   3.288  0.3138  1.1208 -0.4468
17844TIP3   OH274946   6.523   1.024   0.460 -0.4287 -0.1933 -1.1142
17844TIP3    H174947   6.455   0.957   0.453 -1.6869  0.6257  1.9617
17844TIP3    H274948   6.602   0.975   0.485 -1.0410 -0.6755 -0.0910
17845TIP3   OH274949   6.510   6.261   1.269  0.2718  0.5076 -0.3526
17845TIP3    H174950   6.428   6.218   1.245 -0.3152 -0.4694  2.9772
17845TIP3    H274951   6.495   6.354   1.251 -1.6667  0.3724  0.3598
17846TIP3   OH274952   0.563   1.000   5.158 -0.1716  0.0863  0.3942
17846TIP3    H174953   0.618   1.044   5.223 -1.0411  0.6272  0.7750
17846TIP3    H274954   0.474   1.020   5.184 -0.5489 -0.2484 -0.5906
17847TIP3   OH274955   3.683   1.303  11.414  0.1343 -0.2984 -0.0120
17847TIP3    H174956   3.598   1.281  11.375 -0.1605  2.7693 -1.4531
17847TIP3    H274957   3.746   1.283  11.345 -0.3234  4.4678 -2.2430
17848TIP3   OH274958   5.587   3.005  15.285 -0.7322  0.3708  0.5090
17848TIP3    H174959   5.523   2.937  15.265  0.2176 -0.3070 -0.3140
17848TIP3    H274960   5.621   3.032  15.200  1.0560 -0.2627  0.9702
17849TIP3   OH274961   4.341   5.665  15.074  0.4344 -0.3501 -0.3770
17849TIP3    H174962   4.313   5.583  15.032 -0.2565  0.8500 -2.4153
17849TIP3    H274963   4.382   5.715  15.004  1.9280  0.6079  1.1025
17850TIP3   OH274964   0.148   2.134   3.353 -0.1764 -0.0001  0.1744
17850TIP3    H174965   0.186   2.221   3.339  2.8687 -1.3318 -0.7181
17850TIP3    H274966   0.106   2.139   3.439 -1.3506  2.6846 -0.4559
17851TIP3   OH274967   5.638   1.184  13.456  0.1011 -0.6950  0.1452
17851TIP3    H174968   5.723   1.165  13.416 -0.2128 -4.1727  0.8190
17851TIP3    H274969   5.656   1.189  13.550 -0.1022  1.4778  0.1386
17852TIP3   OH274970   0.358   5.314   0.880  0.1361  0.5858  0.0368
17852TIP3    H174971   0.328   5.224   0.872 -0.0406  0.0989  4.0375
17852TIP3    H274972   0.440   5.317   0.830 -0.3685 -1.4988 -0.9930
17853TIP3   OH274973   3.206   1.923  16.567 -0.0086 -0.1539 -0.1090
17853TIP3    H174974   3.111   1.937  16.564 -0.1157 -0.7495  0.3851
17853TIP3    H274975   3.216   1.828  16.567  0.6279 -0.1101 -1.1412
17854TIP3   OH274976   3.823   3.086   5.757  0.2808 -0.0220 -0.1847
17854TIP3    H174977   3.747   3.058   5.706 -0.1774 -0.6365  0.7921
17854TIP3    H274978   3.786   3.141   5.826  0.9357  1.1760 -0.7685
17855TIP3   OH274979   3.598   0.112  16.381 -0.4374  0.0450 -0.4178
17855TIP3    H174980   3.676   0.145  16.427 -0.9439 -1.7063  1.8707
17855TIP3    H274981   3.622   0.023  16.355 -0.7751  0.4231 -2.1618
17856TIP3   OH274982   0.516   1.682  14.972  0.2633 -0.2263 -0.2833
17856TIP3    H174983   0.433   1.658  14.930  1.4150 -2.9313 -1.2392
17856TIP3    H274984   0.575   1.609  14.953  1.8923 -0.0663  3.2593
17857TIP3   OH274985   2.642   5.000   3.208  0.4126  0.0104  0.5797
17857TIP3    H174986   2.592   5.071   3.167 -2.0479  0.0908  3.4083
17857TIP3    H274987   2.619   4.922   3.157  1.1808  0.7685 -1.0126
17858TIP3   OH274988   6.366   0.267   0.535 -0.3535  0.1693 -0.2863
17858TIP3    H174989   6.365   0.186   0.483  0.4746  0.0956 -0.2013
17858TIP3    H274990   6.336   0.335   0.474 -1.4985 -0.2592 -0.2317
17859TIP3   OH274991   3.574   1.522   1.750 -0.5997 -0.1083  0.2590
17859TIP3    H174992   3.583   1.476   1.667  0.4021 -0.1180  0.3617
17859TIP3    H274993   3.622   1.469   1.814 -0.8906  0.1798  0.7287
17860TIP3   OH274994   1.129   3.062   5.701 -0.1593 -0.0586 -0.0115
17860TIP3    H174995   1.178   3.125   5.753 -2.4887  1.1746  0.8553
17860TIP3    H274996   1.038   3.092   5.707 -1.3233 -3.2520  0.0537
17861TIP3   OH274997   1.537   6.020  14.257  0.0247 -0.5043  0.1809
17861TIP3    H174998   1.622   6.033  14.215 -0.4230  1.1306 -0.2683
17861TIP3    H274999   1.523   6.099  14.309 -2.8859  1.1519 -2.7593
17862TIP3   OH275000   6.156   3.171   4.918 -0.5111  0.5427  0.4686
17862TIP3    H175001   6.103   3.103   4.876  0.7857  0.6041 -1.3947
17862TIP3    H275002   6.105   3.252   4.905 -1.9379  0.0564  2.4755
17863TIP3   OH275003   2.618   0.447   1.094 -0.0212  0.5854 -0.4713
17863TIP3    H175004   2.648   0.432   1.005 -0.0699  0.1594 -0.4227
17863TIP3    H275005   2.692   0.487   1.139  0.5611 -0.6224 -0.3005
17864TIP3   OH275006   5.585   1.071  11.770  0.5521 -0.3288 -0.0241
17864TIP3    H175007   5.602   1.095  11.679  0.2774 -1.0060 -0.2634
17864TIP3    H275008   5.667   1.034  11.801  0.2520 -1.3839 -0.4376
17865TIP3   OH275009   2.822   1.801  12.780  0.1139 -0.1688  0.5112
17865TIP3    H175010   2.821   1.714  12.739  3.8006 -0.7283  1.2864
17865TIP3    H275011   2.903   1.841  12.749 -1.0236  2.6768  0.9348
17866TIP3   OH275012   0.940   0.733  10.757 -0.1260 -0.4088 -0.2596
17866TIP3    H175013   0.896   0.801  10.707  1.0577 -0.6155 -1.6335
17866TIP3    H275014   0.975   0.778  10.834  0.5472  0.5082 -1.0938
17867TIP3   OH275015   0.134   3.730   4.028  0.1541  0.0467  0.3285
17867TIP3    H175016   0.127   3.651   4.081  0.4493 -0.3748 -0.2559
17867TIP3    H275017   0.226   3.736   4.005 -0.0487 -0.0224 -0.5189
17868TIP3   OH275018   5.445   3.528  12.649 -0.7925  0.0804  0.4503
17868TIP3    H175019   5.475   3.571  12.730 -1.4093  2.9381 -0.7218
17868TIP3    H275020   5.521   3.478  12.619 -0.6236 -1.2901  2.8483
17869TIP3   OH275021   6.618   2.242   2.298 -0.1800  0.2371 -0.4216
17869TIP3    H175022   6.580   2.301   2.364  1.0727 -0.0760  0.6505
17869TIP3    H275023   6.544   2.206   2.251 -1.1182  0.6762  0.6699
17870TIP3   OH275024   3.529   4.923   4.062 -0.1133  0.4546  0.1334
17870TIP3    H175025   3.588   4.885   3.997  0.8192  0.8436  0.7259
17870TIP3    H275026   3.524   5.016   4.038 -1.4090  0.2177 -0.5867
17871TIP3   OH275027   0.774   1.303  14.018  0.2477  0.0661  0.3217
17871TIP3    H175028   0.749   1.324  13.928  0.0870 -0.4493  0.2457
17871TIP3    H275029   0.730   1.220  14.037 -0.1913  0.4614  1.0765
17872TIP3   OH275030   5.816   5.390  16.487 -0.3838 -0.4318  0.2529
17872TIP3    H175031   5.826   5.481  16.459 -0.7512 -0.0916  1.2128
17872TIP3    H275032   5.732   5.387  16.532 -0.1508 -1.1348  0.6621
17873TIP3   OH275033   0.941   1.107  15.280  0.1646 -0.4241  0.1857
17873TIP3    H175034   0.941   1.054  15.360  0.0904  0.3990  0.7462
17873TIP3    H275035   1.030   1.102  15.247  0.4072 -0.1260  0.7727
17874TIP3   OH275036   4.004   6.493  13.526  0.2611 -0.0068  0.1590
17874TIP3    H175037   4.034   6.445  13.448 -0.1232 -2.4551  1.4255
17874TIP3    H275038   3.909   6.483  13.525  0.2327  0.1855  0.7943
17875TIP3   OH275039   1.450   6.638   1.391 -0.3828  0.3942 -0.3447
17875TIP3    H175040   1.370   6.611   1.346 -1.0836  0.6728  0.6865
17875TIP3    H275041   1.496   6.693   1.328 -0.4117 -0.7338 -1.3785
17876TIP3   OH275042   2.203   3.031   5.148  0.3724 -0.2309  0.4368
17876TIP3    H175043   2.229   2.952   5.101 -0.6676 -0.2439 -0.1352
17876TIP3    H275044   2.159   3.085   5.083 -0.2922  0.1462  1.1772
17877TIP3   OH275045   4.338   3.533  13.926 -0.3834  0.2049 -0.4754
17877TIP3    H175046   4.304   3.445  13.944  0.7177 -0.0982  0.1892
17877TIP3    H275047   4.353   3.571  14.013  0.1674  0.6511 -0.7629
17878TIP3   OH275048   4.561   2.679   0.349 -0.4633 -0.0756  0.3152
17878TIP3    H175049   4.531   2.734   0.421 -0.9994 -0.0514  0.0750
17878TIP3    H275050   4.484   2.631   0.321  0.2960 -2.1721  1.5587
17879TIP3   OH275051   1.081   4.714   6.163 -0.2015  0.2117  0.1205
17879TIP3    H175052   1.090   4.662   6.083 -0.5098 -0.7446  0.6856
17879TIP3    H275053   0.989   4.741   6.163 -0.5457 -0.8994  0.7928
17880TIP3   OH275054   6.553   3.510  15.404  0.7115 -0.4318  0.1518
17880TIP3    H175055   6.603   3.459  15.467  1.3366 -0.2058 -0.1501
17880TIP3    H275056   6.495   3.446  15.362  1.3422 -0.8684 -0.0782
17881TIP3   OH275057   5.093   4.922  11.787  0.8250  0.1644  0.4308
17881TIP3    H175058   5.187   4.908  11.791  0.6674 -1.2183 -0.0903
17881TIP3    H275059   5.064   4.916  11.878  1.0232 -1.2593  0.4216
17882TIP3   OH275060   6.729   5.304  15.212  0.3939  0.6924  0.1035
17882TIP3    H175061   6.736   5.232  15.275  1.3456 -0.1176 -0.8947
17882TIP3    H275062   6.653   5.281  15.158  0.2275  0.8368  0.2759
17883TIP3   OH275063   3.351   0.187   1.530  0.5612 -0.0088 -0.3837
17883TIP3    H175064   3.372   0.280   1.520 -0.0847  0.1838 -0.0248
17883TIP3    H275065   3.256   0.184   1.531  0.5716 -0.7149 -0.6844
17884TIP3   OH275066   2.922   6.273   5.563 -0.0434 -0.4547 -0.9069
17884TIP3    H175067   2.879   6.230   5.636  0.5305 -0.9373 -0.8417
17884TIP3    H275068   2.876   6.240   5.485 -1.0443  0.5201 -0.7449
17885TIP3   OH275069   6.372   2.128  14.920  0.1777 -0.6974 -0.0687
17885TIP3    H175070   6.382   2.214  14.879  0.7458 -0.9930 -0.5717
17885TIP3    H275071   6.278   2.111  14.920  0.2234 -1.4322 -2.8617
17886TIP3   OH275072   4.918   2.427   4.478  0.0315  0.1945 -0.9713
17886TIP3    H175073   4.826   2.430   4.502  0.5353 -1.0600  1.5079
17886TIP3    H275074   4.955   2.509   4.511  0.6500 -1.3721  2.7711
17887TIP3   OH275075   4.692   0.368  12.520  0.3500  0.3397  0.2148
17887TIP3    H175076   4.761   0.327  12.572  0.7530  1.6069  0.7172
17887TIP3    H275077   4.716   0.461  12.518 -1.0847  0.7273 -0.0002
17888TIP3   OH275078   6.049   0.367  12.169  0.3151  0.6224  0.2950
17888TIP3    H175079   6.074   0.422  12.095  2.1047  1.4821  1.4528
17888TIP3    H275080   5.976   0.414  12.210 -0.5664  0.2308 -0.7631
17889TIP3   OH275081   2.435   6.114  13.989  0.4805 -0.6900  0.0777
17889TIP3    H175082   2.448   6.110  13.894 -2.3836 -0.5615 -0.4119
17889TIP3    H275083   2.418   6.207  14.007  2.5390 -0.4239  1.0527
17890TIP3   OH275084   5.498   2.873   5.738 -0.6031 -0.2709  0.2827
17890TIP3    H175085   5.498   2.894   5.645 -2.9463 -0.3803  0.2000
17890TIP3    H275086   5.518   2.956   5.782 -2.6522  0.5688 -0.2590
17891TIP3   OH275087   3.562   3.871  14.244  0.4337 -0.4235  0.0536
17891TIP3    H175088   3.505   3.928  14.193  0.1805  0.0790  0.8851
17891TIP3    H275089   3.503   3.802  14.277  0.7367 -1.1855 -0.9477
17892TIP3   OH275090   1.508   6.178   0.780  0.2881  0.2149 -0.1936
17892TIP3    H175091   1.584   6.132   0.745 -0.6509 -0.4030 -1.4985
17892TIP3    H275092   1.545   6.257   0.820  1.7755 -0.8886  0.7609
17893TIP3   OH275093   5.435   6.049   4.291 -0.1122  0.2449  0.1309
17893TIP3    H175094   5.444   6.135   4.251  1.1128  0.5023  0.9098
17893TIP3    H275095   5.351   6.052   4.337  0.0064  1.0943  0.3017
17894TIP3   OH275096   6.472   6.511  13.460  0.3757 -0.4335  0.0024
17894TIP3    H175097   6.488   6.569  13.534  0.8728  0.4491 -0.7719
17894TIP3    H275098   6.396   6.459  13.486  1.7057 -1.5635  1.9349
17895TIP3   OH275099   4.997   1.275   3.433  0.1544 -0.2353  0.5833
17895TIP3    H175100   5.088   1.256   3.412 -0.2954  0.1396 -2.0568
17895TIP3    H275101   4.999   1.364   3.470  0.6225  1.1739 -2.5342
17896TIP3   OH275102   1.810   0.304   6.459 -0.1224  0.2293 -0.0660
17896TIP3    H175103   1.735   0.339   6.506  0.4176  0.3411  0.7418
17896TIP3    H275104   1.849   0.242   6.521  0.6814  0.4797 -0.3130
17897TIP3   OH275105   2.202   3.264   1.678 -0.3438 -0.0120  0.0866
17897TIP3    H175106   2.185   3.297   1.590 -0.7346 -0.0859  0.1315
17897TIP3    H275107   2.130   3.203   1.695  0.0376 -0.4239  0.2403
17898TIP3   OH275108   6.720   1.712   3.429 -0.4076 -0.0010 -0.3824
17898TIP3    H175109   6.638   1.738   3.470 -0.9223 -0.7586 -0.9140
17898TIP3    H275110   6.788   1.744   3.489 -1.1344 -2.0813  1.7085
17899TIP3   OH275111   6.637   3.023  11.989  0.2312  0.3955  0.1483
17899TIP3    H175112   6.543   3.008  11.982 -0.0146  1.6866  0.2686
17899TIP3    H275113   6.670   2.953  12.044 -1.1857  1.5914  2.6618
17900TIP3   OH275114   3.611   1.048  11.964  0.0391  0.1354 -0.2269
17900TIP3    H175115   3.655   1.108  12.024 -0.3173  0.5091 -0.3321
17900TIP3    H275116   3.617   1.090  11.878  0.5624 -0.4055 -0.4634
17901TIP3   OH275117   4.024   6.099   2.063  0.1138  1.2081 -0.3409
17901TIP3    H175118   4.104   6.149   2.048  1.0126  0.4613  1.6399
17901TIP3    H275119   3.955   6.165   2.071  0.4723  1.8581 -2.1131
17902TIP3   OH275120   5.304   2.877  15.280  0.1987  0.1915  0.8682
17902TIP3    H175121   5.304   2.878  15.376  1.5327  0.5425  0.8860
17902TIP3    H275122   5.285   2.786  15.257  1.2960 -0.2295  1.5148
17903TIP3   OH275123   4.868   3.845   4.073 -0.2691 -0.1859  0.1650
17903TIP3    H175124   4.803   3.895   4.123  0.2744  0.8214 -0.0921
17903TIP3    H275125   4.952   3.878   4.105  0.0895 -0.0383 -0.8994
17904TIP3   OH275126   6.588   4.743   5.587 -0.9153 -0.1938  0.1253
17904TIP3    H175127   6.588   4.780   5.675 -0.4743 -0.9036  0.4290
17904TIP3    H275128   6.550   4.812   5.533  0.5475  1.0120  0.5525
17905TIP3   OH275129   2.546   3.404   4.571 -0.4977  0.1052 -0.6718
17905TIP3    H175130   2.501   3.334   4.618 -2.5641  0.3815 -2.0717
17905TIP3    H275131   2.567   3.470   4.637 -1.4171 -0.4356  0.1686
17906TIP3   OH275132   3.337   3.823   4.195  0.0129 -0.2631  0.5202
17906TIP3    H175133   3.290   3.879   4.133 -0.4429  0.5868  1.5917
17906TIP3    H275134   3.269   3.764   4.229 -0.2184  0.6525  1.7198
17907TIP3   OH275135   1.251   2.727   6.139 -0.3062 -0.2211 -0.2499
17907TIP3    H175136   1.309   2.711   6.214 -1.0685 -0.9530  0.1972
17907TIP3    H275137   1.226   2.640   6.109  0.1547  0.0625 -1.5010
17908TIP3   OH275138   1.318   4.693   1.154 -0.3558  0.3446  0.5179
17908TIP3    H175139   1.393   4.723   1.103 -1.3208 -0.0541 -1.2429
17908TIP3    H275140   1.351   4.618   1.203  0.5722  0.6178  0.3317
17909TIP3   OH275141   4.793   0.462  12.033 -0.4133  0.3982  0.1433
17909TIP3    H175142   4.773   0.451  11.940 -0.6654 -0.5291  0.3054
17909TIP3    H275143   4.709   0.454  12.077 -0.0376 -1.1961  0.6214
17910TIP3   OH275144   5.888   1.864  10.920 -0.1262  0.1561 -0.1215
17910TIP3    H175145   5.856   1.896  10.835  1.4492 -1.3906 -1.3577
17910TIP3    H275146   5.880   1.769  10.915  0.7944 -0.0122  1.1342
17911TIP3   OH275147   5.787   0.102  16.100 -0.4209  0.3856  0.0841
17911TIP3    H175148   5.729   0.176  16.089 -1.3440 -0.4530 -0.8978
17911TIP3    H275149   5.738   0.027  16.066  0.8864 -0.4977  0.0591
17912TIP3   OH275150   5.116   2.385  12.445  0.6578  0.0088 -0.0948
17912TIP3    H175151   5.205   2.360  12.469  0.3113  0.0209  1.2934
17912TIP3    H275152   5.120   2.404  12.351  1.1937 -4.2360 -1.1280
17913TIP3   OH275153   0.508   5.052  14.014 -0.7220  0.7997 -0.6625
17913TIP3    H175154   0.565   5.095  14.078 -0.6867  1.4420 -1.1266
17913TIP3    H275155   0.443   5.118  13.990 -1.2183  0.3068 -0.6953
17914TIP3   OH275156   3.376   1.922   4.795 -0.3494  0.5225  0.2956
17914TIP3    H175157   3.319   1.976   4.741  0.7875  3.4562  1.8382
17914TIP3    H275158   3.349   1.940   4.885  0.5145 -0.9996  0.9001
17915TIP3   OH275159   5.532   3.190   3.016  0.0601 -0.3769  0.4083
17915TIP3    H175160   5.568   3.178   3.104  0.5796  1.3701  0.4544
17915TIP3    H275161   5.549   3.281   2.994 -1.0695 -0.4717 -1.0683
17916TIP3   OH275162   3.455   2.507  10.517  0.2743  0.4705 -0.1229
17916TIP3    H175163   3.528   2.564  10.541 -0.0042  0.2586  1.3092
17916TIP3    H275164   3.487   2.418  10.532  0.1972  0.3072 -0.8857
17917TIP3   OH275165   1.711   0.766  10.725 -0.1170 -0.0078  0.7883
17917TIP3    H175166   1.762   0.832  10.772 -1.3005  0.4281  1.4819
17917TIP3    H275167   1.654   0.728  10.791 -1.4006  0.2062 -0.1683
17918TIP3   OH275168   2.805   5.194   1.664  0.1237  0.3495  0.5883
17918TIP3    H175169   2.802   5.198   1.760  1.7679 -1.2203  0.7687
17918TIP3    H275170   2.804   5.100   1.645  0.6501  0.6306 -0.8920
17919TIP3   OH275171   3.104   3.225  15.690  0.2072 -0.7479  0.2844
17919TIP3    H175172   3.057   3.175  15.757 -1.9299 -0.3922 -0.8704
17919TIP3    H275173   3.047   3.223  15.613  1.4659  0.9018 -0.7753
17920TIP3   OH275174   6.136   3.760   3.005 -0.0481 -0.0770  0.1120
17920TIP3    H175175   6.179   3.768   2.920  1.0417 -1.6008  0.4884
17920TIP3    H275176   6.152   3.845   3.047  1.5138 -0.1587 -0.2643
17921TIP3   OH275177   2.700   2.339  16.618  0.0995  0.3103 -0.0580
17921TIP3    H175178   2.758   2.333  16.543 -2.1256 -0.0151 -1.8463
17921TIP3    H275179   2.632   2.274  16.601 -1.0078  0.9116  1.7740
17922TIP3   OH275180   2.550   6.270   2.927  0.7877 -0.0005 -0.2654
17922TIP3    H175181   2.584   6.254   3.015 -0.7003  1.7029  0.6773
17922TIP3    H275182   2.531   6.183   2.893 -2.7014 -0.6980  2.8255
17923TIP3   OH275183   1.389   2.284  16.338  0.0878 -0.0966 -0.3711
17923TIP3    H175184   1.462   2.346  16.344 -1.1243  1.5766 -1.8284
17923TIP3    H275185   1.419   2.217  16.277  0.6502  0.1998 -0.4244
17924TIP3   OH275186   0.701   1.001  14.496  0.3896  0.4185  0.0687
17924TIP3    H175187   0.714   0.906  14.486  0.1423  0.1918  1.7238
17924TIP3    H275188   0.770   1.028  14.556 -1.1596  0.7826  1.7690
17925TIP3   OH275189   6.111   6.594   0.234  0.2119  0.2399  0.7781
17925TIP3    H175190   6.116   6.678   0.188 -0.2593  0.1054  0.4694
17925TIP3    H275191   6.201   6.560   0.232  0.0808 -0.1055 -0.7281
17926TIP3   OH275192   5.513   3.241   0.903  0.2958 -0.0869 -0.2843
17926TIP3    H175193   5.501   3.222   0.810 -1.1224 -0.9528  0.0399
17926TIP3    H275194   5.553   3.162   0.939 -0.5980 -0.3781  0.1010
17927TIP3   OH275195   0.540   4.446  14.983 -0.1644 -0.1695  0.1814
17927TIP3    H175196   0.558   4.467  15.075  0.8196  0.8318 -0.2161
17927TIP3    H275197   0.484   4.369  14.986  0.9799 -0.9736  1.5950
17928TIP3   OH275198   6.394   4.515  11.331 -0.0885 -0.9635 -0.5328
17928TIP3    H175199   6.480   4.502  11.292 -0.2972  2.0546 -2.4045
17928TIP3    H275200   6.334   4.521  11.256 -1.1733  1.2632  0.4057
17929TIP3   OH275201   2.206   2.705   3.680  0.0227 -0.3123 -0.6735
17929TIP3    H175202   2.217   2.610   3.687  1.0485 -0.2744 -1.5872
17929TIP3    H275203   2.116   2.716   3.648 -0.1633 -0.9671 -0.3893
17930TIP3   OH275204   2.020   3.704   0.650 -0.2032  0.0313 -0.4980
17930TIP3    H175205   1.928   3.675   0.649  0.1677 -1.2200 -1.4909
17930TIP3    H275206   2.027   3.764   0.576  0.1069 -1.0574 -1.3771
17931TIP3   OH275207   4.456   0.964  11.384 -0.0910 -0.7541  0.5599
17931TIP3    H175208   4.419   0.877  11.370 -1.1505 -0.1835 -0.2983
17931TIP3    H275209   4.523   0.973  11.317  1.2081 -1.5319  1.7031
17932TIP3   OH275210   3.541   2.548   1.460  0.5530  0.3920 -0.6111
17932TIP3    H175211   3.524   2.454   1.467 -1.7227  0.8791  2.0928
17932TIP3    H275212   3.602   2.567   1.532 -0.4738  1.2474  0.0552
17933TIP3   OH275213   4.853   2.626  15.670  0.3221 -0.3259 -0.2148
17933TIP3    H175214   4.877   2.642  15.761  2.5518 -1.9531 -0.4223
17933TIP3    H275215   4.758   2.624  15.669  0.2627 -0.4952  2.1347
17934TIP3   OH275216   5.846   5.069   4.681 -0.1965 -0.3082 -0.2041
17934TIP3    H175217   5.931   5.095   4.646 -0.0621 -1.1741 -0.5422
17934TIP3    H275218   5.784   5.085   4.609 -0.2705 -0.0298 -0.0833
17935TIP3   OH275219   6.036   4.268  11.184  0.1451 -0.4271 -1.0200
17935TIP3    H175220   6.050   4.305  11.272  1.0642 -0.2632 -1.2279
17935TIP3    H275221   6.064   4.338  11.124  0.4170 -0.8901 -1.4334
17936TIP3   OH275222   1.178   1.623  11.635  0.0282 -0.5332  0.4509
17936TIP3    H175223   1.256   1.574  11.606 -0.5506  0.0154 -2.2869
17936TIP3    H275224   1.196   1.713  11.610 -1.9013 -0.5640 -1.2852
17937TIP3   OH275225   1.986   6.393  11.568 -0.1461  0.1730  0.3303
17937TIP3    H175226   2.057   6.332  11.588  0.6793  1.2258  0.7479
17937TIP3    H275227   2.028   6.464  11.520 -1.1978  0.1350 -0.6847
17938TIP3   OH275228   1.640   1.085  13.693  0.4070 -0.0706 -0.5343
17938TIP3    H175229   1.551   1.096  13.726  0.5815 -0.1845 -0.0109
17938TIP3    H275230   1.659   1.167  13.646 -0.0579 -0.1468 -0.8617
17939TIP3   OH275231   4.548   1.839   1.331 -0.6567  0.4518 -0.0218
17939TIP3    H175232   4.605   1.871   1.401 -1.0845  0.3598  0.3729
17939TIP3    H275233   4.551   1.908   1.265 -1.8818  1.5398  0.9888
17940TIP3   OH275234   6.234   0.372  11.671  0.1157  0.3760 -0.0872
17940TIP3    H175235   6.279   0.335  11.747  1.0239 -0.4484 -1.0029
17940TIP3    H275236   6.156   0.317  11.662  0.8059 -0.5247 -0.6733
17941TIP3   OH275237   6.134   1.920   5.435 -0.3888  0.1164 -0.7041
17941TIP3    H175238   6.105   1.928   5.526  0.6439 -0.9508 -0.2603
17941TIP3    H275239   6.060   1.879   5.390 -0.9012  0.6391 -0.3459
17942TIP3   OH275240   1.775   1.045  11.162 -0.4047 -0.5283 -0.4398
17942TIP3    H175241   1.755   0.954  11.186 -0.6857 -0.3468  0.0314
17942TIP3    H275242   1.827   1.078  11.234  0.7167 -0.6629 -1.1612
17943TIP3   OH275243   1.446   4.146   3.125 -0.3413  0.0176  0.7436
17943TIP3    H175244   1.367   4.118   3.079 -0.3539  0.9487  0.1731
17943TIP3    H275245   1.505   4.071   3.117 -0.5811 -0.0884 -0.2509
17944TIP3   OH275246   1.077   0.155  15.412 -0.3969  0.0448  0.3952
17944TIP3    H175247   1.128   0.236  15.412  3.4886 -2.1117  1.3981
17944TIP3    H275248   1.062   0.136  15.320 -1.2617  1.8108  0.1481
17945TIP3   OH275249   2.240   4.602   1.320  0.2552  0.1152  0.0729
17945TIP3    H175250   2.310   4.549   1.359 -0.3921 -1.2244 -0.5282
17945TIP3    H275251   2.160   4.570   1.361  0.0151  2.2767  1.4560
17946TIP3   OH275252   1.413   4.781   0.672  0.5580  0.3131  0.3006
17946TIP3    H175253   1.483   4.844   0.652 -1.9292  3.1601 -0.2442
17946TIP3    H275254   1.424   4.712   0.607  2.5550  0.9184 -0.0671
17947TIP3   OH275255   3.428   6.493   2.944 -0.0051 -0.1048  0.4091
17947TIP3    H175256   3.448   6.586   2.946  0.0599 -0.0964 -0.2132
17947TIP3    H275257   3.434   6.464   3.035 -0.4314  0.5792  0.6544
17948TIP3   OH275258   6.746   0.577  12.963  0.0481  0.6158 -0.5381
17948TIP3    H175259   6.832   0.590  13.003 -0.8521 -0.5520  1.9687
17948TIP3    H275260   6.710   0.666  12.953  0.6008  0.9845  0.6160
17949TIP3   OH275261   2.039   1.763   4.695  0.4301  0.1249 -0.1401
17949TIP3    H175262   1.991   1.680   4.686  0.1498  0.2981 -0.2633
17949TIP3    H275263   2.131   1.738   4.690  0.4080 -0.3796  1.3815
17950TIP3   OH275264   3.471   0.626  11.835 -0.1218 -0.2393 -0.2044
17950TIP3    H175265   3.490   0.547  11.885  0.1058  0.6244  1.1449
17950TIP3    H275266   3.557   0.663  11.816 -0.2402  0.5960  0.7584
17951TIP3   OH275267   1.286   0.500  16.706 -0.2399  1.1258  0.4211
17951TIP3    H175268   1.250   0.476  16.621 -1.6920 -1.5560  1.6669
17951TIP3    H275269   1.225   0.463  16.770  1.9111  1.1368  2.6562
17952TIP3   OH275270   3.852   3.405   2.302  0.0499  0.6429  0.1756
17952TIP3    H175271   3.785   3.369   2.361 -0.5942  1.2856 -0.1355
17952TIP3    H275272   3.821   3.382   2.214 -0.2011  1.6427 -0.0099
17953TIP3   OH275273   2.419   2.334  12.349  0.4122 -0.5362 -0.1688
17953TIP3    H175274   2.340   2.361  12.302  1.5185  1.1658 -1.1411
17953TIP3    H275275   2.469   2.284  12.285  1.0674  0.1713 -0.2100
17954TIP3   OH275276   3.617   5.350  11.920  0.0245 -0.2287 -0.0335
17954TIP3    H175277   3.687   5.345  11.855  0.5669 -1.3569  0.6108
17954TIP3    H275278   3.563   5.273  11.904 -0.8107  0.3693 -0.1981
17955TIP3   OH275279   0.519   1.890  13.176  0.0943  0.0565 -0.0565
17955TIP3    H175280   0.479   1.804  13.165  0.8990 -0.1981 -1.0895
17955TIP3    H275281   0.569   1.883  13.258 -0.9470 -0.0023  0.5948
17956TIP3   OH275282   0.315   1.890   4.052  0.2168 -0.1156  0.1381
17956TIP3    H175283   0.295   1.850   4.137  3.2877 -0.1697  0.9703
17956TIP3    H275284   0.330   1.982   4.073 -0.1899  0.1196 -0.5874
17957TIP3   OH275285   4.140   4.458   5.623 -0.5560  0.1978 -0.3378
17957TIP3    H175286   4.090   4.429   5.699  0.2541 -1.3679 -0.3535
17957TIP3    H275287   4.097   4.416   5.548  0.8292 -1.3621 -0.3298
17958TIP3   OH275288   1.767   2.659  17.028 -0.0612 -0.1469  0.0361
17958TIP3    H175289   1.742   2.746  17.058  0.8901  0.7682 -1.6520
17958TIP3    H275290   1.829   2.628  17.094  1.2813  1.4172 -0.4216
17959TIP3   OH275291   6.464   4.093  15.479  0.3128 -0.0939  0.2610
17959TIP3    H175292   6.425   4.016  15.521  2.5284 -0.9910  0.8064
17959TIP3    H275293   6.490   4.063  15.392  3.1488 -0.7252  1.2087
17960TIP3   OH275294   6.696   0.103  14.311 -0.2132  0.0637 -0.7438
17960TIP3    H175295   6.678   0.185  14.358  1.4184 -0.7595  1.4995
17960TIP3    H275296   6.631   0.041  14.345  0.2018 -0.2173 -0.4462
17961TIP3   OH275297   0.409   4.608  15.893 -0.1535 -0.5583  0.0962
17961TIP3    H175298   0.340   4.673  15.881 -2.5002 -2.8084  0.4946
17961TIP3    H275299   0.414   4.596  15.988  0.1205 -1.1046  0.0133
17962TIP3   OH275300   0.702   5.134  16.808 -0.3117  0.3014 -0.1100
17962TIP3    H175301   0.728   5.225  16.818 -1.7446  0.8975 -1.3721
17962TIP3    H275302   0.758   5.100  16.738  0.3802  0.1236  0.5162
17963TIP3   OH275303   3.430   1.974  15.129 -0.1687 -0.6387  0.1475
17963TIP3    H175304   3.355   2.032  15.141  0.3841 -0.2451  2.0150
17963TIP3    H275305   3.497   2.008  15.188  0.5673 -2.5183  0.4830
17964TIP3   OH275306   5.836   1.562  12.085 -0.5817  0.5077 -0.5481
17964TIP3    H175307   5.789   1.495  12.035  1.3752 -0.2612 -1.4188
17964TIP3    H275308   5.926   1.557  12.054  0.4446  0.8895  2.1647
17965TIP3   OH275309   5.423   5.120   3.815 -0.3286 -0.1664  0.9619
17965TIP3    H175310   5.354   5.178   3.847  0.1516  0.0420  1.6430
17965TIP3    H275311   5.488   5.178   3.778 -1.2081 -0.4411 -1.1326
17966TIP3   OH275312   2.735   0.612  14.552 -0.6913  0.3854 -0.4580
17966TIP3    H175313   2.673   0.606  14.479  0.2180  0.1135 -1.2201
17966TIP3    H275314   2.804   0.549  14.531  1.6958  3.1104 -1.4632
17967TIP3   OH275315   3.786   5.291   1.919 -0.1470 -0.7217 -0.2639
17967TIP3    H175316   3.805   5.362   1.980  1.1261 -0.5406 -0.8538
17967TIP3    H275317   3.793   5.331   1.833  1.4322 -1.7273 -0.6345
17968TIP3   OH275318   6.295   0.406  14.300  0.6258  0.4800  0.6232
17968TIP3    H175319   6.245   0.440  14.374 -2.0492 -0.1821 -0.7285
17968TIP3    H275320   6.351   0.478  14.273  0.1497  1.4127  2.0213
17969TIP3   OH275321   2.074   0.606   4.939 -0.1054  0.4362  0.3100
17969TIP3    H175322   2.022   0.686   4.930 -0.6908  0.2209  1.5678
17969TIP3    H275323   2.009   0.537   4.957  0.0461 -0.9243 -3.4945
17970TIP3   OH275324   6.403   4.112   5.544  0.3100 -0.2773  0.2897
17970TIP3    H175325   6.353   4.118   5.625 -0.0239 -0.8785  0.1323
17970TIP3    H275326   6.453   4.030   5.553  1.2124  0.2728  0.4131
17971TIP3   OH275327   3.960   2.972   3.398 -0.2030  0.4709  0.3865
17971TIP3    H175328   4.042   2.970   3.348 -0.9288 -1.4025 -0.8176
17971TIP3    H275329   3.905   3.034   3.351 -0.0045  0.6116  0.3343
17972TIP3   OH275330   3.064   5.774   0.539 -0.5120  0.1026  0.2558
17972TIP3    H175331   3.074   5.843   0.604  1.1267 -0.3045  0.4680
17972TIP3    H275332   3.058   5.821   0.456  1.9725  0.5395  0.2393
17973TIP3   OH275333   2.579   1.447   5.074 -0.0770 -0.0682 -0.1849
17973TIP3    H175334   2.636   1.520   5.050 -0.4949  0.5960  0.7822
17973TIP3    H275335   2.491   1.486   5.076 -0.3041 -0.6016  0.3092
17974TIP3   OH275336   4.173   2.959   4.181 -0.2994  0.0787 -0.0591
17974TIP3    H175337   4.244   2.964   4.244  0.4453 -1.6404 -0.6797
17974TIP3    H275338   4.213   2.919   4.103 -1.6412  0.2687 -0.8857
17975TIP3   OH275339   5.180   3.413   4.942 -0.1109  0.1446  0.1620
17975TIP3    H175340   5.205   3.453   5.025 -0.3146 -0.2294  0.4075
17975TIP3    H275341   5.242   3.449   4.878 -0.8243  1.5278  0.1967
17976TIP3   OH275342   5.361   4.459   3.430 -0.2636  0.0843 -0.6456
17976TIP3    H175343   5.410   4.377   3.421 -0.6465  0.0105 -2.3289
17976TIP3    H275344   5.355   4.493   3.341 -2.4986  0.5595 -0.3664
17977TIP3   OH275345   3.066   0.519   4.322 -0.5689 -0.0277 -0.1413
17977TIP3    H175346   3.029   0.529   4.234  1.0546  0.9043 -0.7643
17977TIP3    H275347   3.145   0.574   4.321  0.0116 -0.7669  1.5824
17978TIP3   OH275348   5.517   1.114  14.338  0.3630  0.0399  0.1549
17978TIP3    H175349   5.567   1.039  14.306  0.8198  0.2852  0.2904
17978TIP3    H275350   5.455   1.075  14.401 -0.0250 -0.3379 -0.4462
17979TIP3   OH275351   3.077   6.689   0.630 -0.1513  0.1434  0.1244
17979TIP3    H175352   3.170   6.673   0.618 -0.2616  0.9186 -2.0112
17979TIP3    H275353   3.034   6.612   0.593 -0.3955  0.8957 -1.2243
17980TIP3   OH275354   2.694   3.668   1.947 -0.2246 -0.1530 -0.9374
17980TIP3    H175355   2.775   3.710   1.917 -0.4159  0.7431 -0.2500
17980TIP3    H275356   2.666   3.722   2.022 -1.3913 -0.5228 -1.0959
17981TIP3   OH275357   4.372   5.938  12.700  0.0496  0.1300  0.1243
17981TIP3    H175358   4.375   5.935  12.795 -0.0650 -2.4220  0.1058
17981TIP3    H275359   4.307   6.006  12.680  0.6148  1.2360  1.8033
17982TIP3   OH275360   1.378   2.189  15.074 -0.4193  0.2377  0.1885
17982TIP3    H175361   1.384   2.281  15.051 -0.4660  0.5616  1.3813
17982TIP3    H275362   1.468   2.162  15.088 -0.1526 -0.5955 -2.5477
17983TIP3   OH275363   1.323   1.363  14.823  0.2564 -0.2740  0.3153
17983TIP3    H175364   1.266   1.438  14.805  0.6276  0.5976  2.4376
17983TIP3    H275365   1.327   1.359  14.919 -1.2985 -4.2101  0.4117
17984TIP3   OH275366   6.680   0.024   1.176 -0.3365 -0.1447  0.3481
17984TIP3    H175367   6.622   0.064   1.112  1.1921  0.5048 -0.6861
17984TIP3    H275368   6.673  -0.070   1.160 -0.9449 -0.0662  0.1220
17985TIP3   OH275369   6.675   1.146   5.483  0.1893  0.0642  0.2756
17985TIP3    H175370   6.749   1.207   5.478 -0.7318  1.3033  1.3259
17985TIP3    H275371   6.598   1.202   5.491 -0.9224 -1.2035 -1.0622
17986TIP3   OH275372   3.201   1.597   5.549 -0.0308  0.1989  0.1965
17986TIP3    H175373   3.131   1.656   5.577  1.2507  1.6307  0.4760
17986TIP3    H275374   3.235   1.637   5.469 -0.5145 -1.3166 -0.8166
17987TIP3   OH275375   4.477   6.645   0.245  0.0060 -0.5812  0.5218
17987TIP3    H175376   4.569   6.647   0.218  0.5884 -0.4089  2.3741
17987TIP3    H275377   4.464   6.727   0.293 -0.9333 -0.8948  0.8285
17988TIP3   OH275378   6.662   6.173   2.842 -0.5320  0.9311 -0.3840
17988TIP3    H175379   6.708   6.247   2.881  1.2229 -0.5951  0.5583
17988TIP3    H275380   6.645   6.201   2.751  0.1470  2.4302 -0.0813
17989TIP3   OH275381   6.288   5.813  10.855  0.1029  0.3910  0.0737
17989TIP3    H175382   6.353   5.872  10.892  1.5776 -0.1067 -1.5875
17989TIP3    H275383   6.234   5.868  10.798 -0.1629  0.5962  0.5268
17990TIP3   OH275384   4.637   6.448   2.647 -0.4896  0.4354 -0.0790
17990TIP3    H175385   4.548   6.479   2.664 -0.7103  0.1220 -0.6470
17990TIP3    H275386   4.673   6.511   2.585 -0.8565 -0.2971 -1.0494
17991TIP3   OH275387   2.512   4.256  10.890  0.6023 -0.4474  0.5117
17991TIP3    H175388   2.536   4.277  10.800 -0.4094  0.8270  0.5088
17991TIP3    H275389   2.578   4.192  10.918  1.8612  0.2983 -0.6161
17992TIP3   OH275390   4.111   0.585  14.868  0.4193  0.0638  0.4141
17992TIP3    H175391   4.139   0.587  14.959  0.3827  2.0633  0.4186
17992TIP3    H275392   4.046   0.656  14.861  1.4011  0.8477 -1.4532
17993TIP3   OH275393   1.951   3.821   5.908 -0.1296  0.4695 -0.0408
17993TIP3    H175394   1.970   3.729   5.928  0.1867  0.2684 -1.1839
17993TIP3    H275395   1.947   3.864   5.994  3.6522  0.1697  0.4866
17994TIP3   OH275396   5.257   4.402   1.067  0.3258  0.1761 -0.1186
17994TIP3    H175397   5.335   4.439   1.026  0.0098  2.3964  1.1422
17994TIP3    H275398   5.185   4.433   1.013  0.1131  0.8183  0.5178
17995TIP3   OH275399   0.822   4.386   3.442 -0.3133  0.4032  0.3586
17995TIP3    H175400   0.830   4.479   3.461  0.2678  1.0514 -2.6846
17995TIP3    H275401   0.912   4.356   3.432 -0.5448  0.1370 -1.1668
17996TIP3   OH275402   0.788   5.784  16.626  0.0563 -0.2599 -0.0786
17996TIP3    H175403   0.715   5.726  16.608 -0.8961  1.5886 -2.7151
17996TIP3    H275404   0.815   5.817  16.541  0.4013  3.2736  1.2096
17997TIP3   OH275405   5.320   4.008  11.673 -0.2409 -0.5777  0.0150
17997TIP3    H175406   5.253   4.058  11.626 -0.4067 -0.6259  0.1978
17997TIP3    H275407   5.298   4.020  11.765  1.4072  1.4435  0.2210
17998TIP3   OH275408   1.987   1.580  13.607 -0.1400 -1.0857 -0.9621
17998TIP3    H175409   1.893   1.565  13.600 -0.9589  1.4436  2.0719
17998TIP3    H275410   2.021   1.499  13.647 -2.0735 -0.3031  2.8013
17999TIP3   OH275411   1.324   6.281   3.922 -0.0875 -0.2803 -0.3704
17999TIP3    H175412   1.346   6.223   3.850 -0.5507  0.4957 -1.1586
17999TIP3    H275413   1.408   6.317   3.952  0.1681 -1.1145 -0.0717
18000TIP3   OH275414   2.072   2.044  16.659 -0.2307 -0.7934  0.2409
18000TIP3    H175415   2.096   2.133  16.687  1.4205 -0.1645 -2.7751
18000TIP3    H275416   1.988   2.054  16.616 -1.1716 -1.1928  1.8708
18001TIP3   OH275417   5.276   2.550   1.035  0.1861  0.6178 -0.2128
18001TIP3    H175418   5.369   2.542   1.055 -0.2362  0.2606  1.9236
18001TIP3    H275419   5.236   2.574   1.119 -1.5084  2.0496 -1.3667
18002TIP3   OH275420   1.611   3.208   3.534  0.5142  0.5002  0.3315
18002TIP3    H175421   1.666   3.280   3.564  0.0186  1.1456 -0.2977
18002TIP3    H275422   1.551   3.247   3.470  0.5471 -0.5482 -0.3757
18003TIP3   OH275423   6.531   4.909   4.068  0.5228 -0.0998  0.1155
18003TIP3    H175424   6.620   4.873   4.061  0.4115 -0.0972 -1.6403
18003TIP3    H275425   6.516   4.953   3.984 -1.3373 -0.5496  0.1820
18004TIP3   OH275426   3.863   4.276   3.060 -0.4102  0.3015  0.3031
18004TIP3    H175427   3.949   4.249   3.095 -0.8303 -0.2350  0.9485
18004TIP3    H275428   3.825   4.195   3.026 -0.6245  0.5574 -0.0715
18005TIP3   OH275429   3.208   3.335   1.565 -0.0149 -0.2215 -0.2504
18005TIP3    H175430   3.196   3.287   1.647  0.5371  0.3520  0.1742
18005TIP3    H275431   3.120   3.340   1.527 -0.8698  2.0782  1.7616
18006TIP3   OH275432   3.460   3.195  11.870 -0.4524 -0.8570 -0.4960
18006TIP3    H175433   3.535   3.161  11.921 -0.2287  0.1586 -0.1234
18006TIP3    H275434   3.419   3.117  11.834  0.6505 -1.4622 -0.5100
18007TIP3   OH275435   4.521   0.689   1.384  0.0342  0.0799 -0.1481
18007TIP3    H175436   4.492   0.750   1.316 -0.3804 -0.4547 -0.4587
18007TIP3    H275437   4.616   0.683   1.372  0.2938  1.7369  0.7891
18008TIP3   OH275438   1.777   0.580   4.227 -0.1319  0.1662 -0.2281
18008TIP3    H175439   1.835   0.532   4.285  0.2420  0.9179  0.0326
18008TIP3    H275440   1.699   0.599   4.280  0.1784  0.7881  0.0119
18009TIP3   OH275441   5.016   1.637   3.271 -0.2582 -0.0935  0.3801
18009TIP3    H175442   4.925   1.638   3.240 -0.1833 -1.1210  0.0657
18009TIP3    H275443   5.066   1.605   3.195  0.3099  0.1008  0.6716
18010TIP3   OH275444   4.184   5.392   2.026 -0.0808  0.3185 -0.3281
18010TIP3    H175445   4.274   5.371   2.000 -0.1478  1.1078 -1.2653
18010TIP3    H275446   4.133   5.317   1.997  0.1573  0.2447 -0.5597
18011TIP3   OH275447   4.755   5.562  15.889  0.3706 -0.6074 -0.4434
18011TIP3    H175448   4.802   5.528  15.965  1.0832  1.5510  0.1789
18011TIP3    H275449   4.663   5.553  15.911  0.5539  0.9350  1.2227
18012TIP3   OH275450   0.888   6.136   2.775 -0.0686  0.3952  0.3666
18012TIP3    H175451   0.862   6.044   2.771  1.6674 -0.0823 -2.2200
18012TIP3    H275452   0.969   6.135   2.826  0.1126  0.4338  0.0823
18013TIP3   OH275453   2.484   4.478  14.525  0.4378 -0.5785  0.4614
18013TIP3    H175454   2.460   4.407  14.466  1.3958 -0.1923 -0.4354
18013TIP3    H275455   2.578   4.467  14.539  0.2257 -0.6433  1.9148
18014TIP3   OH275456   1.036   5.187   5.494  0.2794  0.1913  0.1610
18014TIP3    H175457   1.030   5.128   5.419  0.3930 -0.0960  0.3741
18014TIP3    H275458   1.019   5.274   5.458  2.4869  0.3599 -0.6057
18015TIP3   OH275459   0.038   1.413  12.023  0.0030  0.0053  0.6172
18015TIP3    H175460   0.080   1.374  12.100  0.6635  1.6283  1.1081
18015TIP3    H275461   0.102   1.402  11.953 -0.8951 -2.1485  0.0471
18016TIP3   OH275462   0.447   1.127   3.696 -0.2360 -0.3692 -0.3618
18016TIP3    H175463   0.501   1.082   3.761  1.4384  0.5489 -1.0715
18016TIP3    H275464   0.374   1.162   3.747 -0.4365 -1.9833  0.5447
18017TIP3   OH275465   1.838   6.772   4.991  0.0955 -0.0522 -0.0388
18017TIP3    H175466   1.842   6.713   4.915  0.1951  0.0200 -0.0906
18017TIP3    H275467   1.768   6.833   4.970 -1.0478 -1.0716  0.6887
18018TIP3   OH275468   6.229   1.530   1.623  0.6203  0.0212 -0.7639
18018TIP3    H175469   6.307   1.579   1.649 -1.3853  2.1322  1.8506
18018TIP3    H275470   6.240   1.443   1.662  0.7060  1.0397  1.6425
18019TIP3   OH275471   6.507   4.054   4.262  0.0316  0.0574 -0.0193
18019TIP3    H175472   6.572   3.986   4.277 -0.7918 -0.8430 -0.4012
18019TIP3    H275473   6.431   4.026   4.314 -0.8633 -0.1493 -1.3878
18020TIP3   OH275474   5.514   0.105   1.715 -0.0770  0.3010 -0.2993
18020TIP3    H175475   5.574   0.167   1.755 -0.0039 -0.0683  0.1695
18020TIP3    H275476   5.490   0.145   1.631  0.5590  0.6034 -0.3397
18021TIP3   OH275477   3.078   4.758   0.215  0.4711  0.6939  0.2666
18021TIP3    H175478   3.004   4.816   0.196  0.9475  1.4174  0.5565
18021TIP3    H275479   3.152   4.818   0.229  0.9862  0.0104  0.5273
18022TIP3   OH275480   2.434   5.042   6.268  0.0486  0.2534  0.3732
18022TIP3    H175481   2.385   5.120   6.243  1.6012  1.5294  1.0897
18022TIP3    H275482   2.492   5.072   6.338  0.6761 -1.5612  0.6814
18023TIP3   OH275483   4.647   3.459   5.369  0.1462 -0.7910 -0.5663
18023TIP3    H175484   4.634   3.548   5.399 -1.6254 -1.1682 -0.0818
18023TIP3    H275485   4.583   3.449   5.298 -1.3984 -2.3520  0.9426
18024TIP3   OH275486   6.791   6.054  16.610  0.2034 -0.5189  0.0754
18024TIP3    H175487   6.721   6.082  16.668  1.7578  0.0295  1.8021
18024TIP3    H275488   6.784   5.958  16.607 -1.0322 -0.4318 -0.4021
18025TIP3   OH275489   6.787   5.299   2.163 -0.3626 -0.2496  0.4368
18025TIP3    H175490   6.764   5.217   2.205 -0.8646  0.3643  1.3970
18025TIP3    H275491   6.705   5.348   2.159  0.1580  0.7004  1.0207
18026TIP3   OH275492   0.647   2.876   3.308 -0.5091  0.3453  0.3560
18026TIP3    H175493   0.570   2.916   3.350 -0.5345  0.8498 -0.1532
18026TIP3    H275494   0.610   2.810   3.249 -0.6272  1.2669 -0.6288
18027TIP3   OH275495   1.696   5.451   2.216 -0.4403  0.0552 -0.3622
18027TIP3    H175496   1.741   5.431   2.134 -2.5195 -2.0496 -1.1027
18027TIP3    H275497   1.603   5.438   2.197 -0.9726 -1.1746  2.4654
18028TIP3   OH275498   5.468   2.635   1.409  0.0750 -0.6536  0.1813
18028TIP3    H175499   5.392   2.579   1.424  0.0824 -0.9244 -0.7781
18028TIP3    H275500   5.507   2.645   1.496 -2.1176  1.0606  1.0546
18029TIP3   OH275501   1.547   2.735  15.120  0.2424 -0.2910 -0.3507
18029TIP3    H175502   1.567   2.826  15.141 -2.9467  0.3423  0.4410
18029TIP3    H275503   1.457   2.737  15.087 -0.3004 -3.2533  0.6457
18030TIP3   OH275504   5.497   4.775   0.465 -0.0448  0.3535  0.1711
18030TIP3    H175505   5.448   4.694   0.484 -0.9800  0.7782 -0.3673
18030TIP3    H275506   5.589   4.751   0.478 -0.0053 -1.6667 -2.8656
18031TIP3   OH275507   0.599   0.080  13.003  0.7279  0.3846 -0.4645
18031TIP3    H175508   0.599   0.150  12.937  1.3223 -0.1999 -1.1169
18031TIP3    H275509   0.643   0.118  13.079  1.6002  0.5472 -1.0317
18032TIP3   OH275510   4.086   2.601   5.779 -0.5332 -0.3741 -0.4607
18032TIP3    H175511   4.069   2.685   5.736 -0.1907 -1.0738 -2.0494
18032TIP3    H275512   4.057   2.614   5.869 -1.5387  1.0939 -0.9533
18033TIP3   OH275513   3.167   5.734   5.433 -0.2856 -0.0085 -0.1316
18033TIP3    H175514   3.231   5.805   5.427 -1.5336  1.6527  3.5857
18033TIP3    H275515   3.211   5.666   5.484 -0.4856 -0.1201 -0.1060
18034TIP3   OH275516   2.779   1.790   2.564 -0.8577  0.1859 -0.8941
18034TIP3    H175517   2.748   1.711   2.608 -2.0770  0.5836 -1.0020
18034TIP3    H275518   2.794   1.853   2.635 -3.2783  0.9843 -0.9910
18035TIP3   OH275519   0.227   0.692  13.757  0.4417 -0.3178 -0.2035
18035TIP3    H175520   0.174   0.768  13.779 -1.2695 -1.2764 -0.7468
18035TIP3    H275521   0.242   0.647  13.840  1.9664  0.8715  0.2039
18036TIP3   OH275522   0.314   0.439  14.263 -0.1322 -0.2283  0.4779
18036TIP3    H175523   0.222   0.411  14.263 -0.5525  1.0348 -0.8536
18036TIP3    H275524   0.329   0.475  14.350 -0.9229 -0.3897  0.6858
18037TIP3   OH275525   1.808   4.348  15.049  0.2476 -0.3014  0.3555
18037TIP3    H175526   1.871   4.388  14.989 -2.2802 -0.5835 -2.7036
18037TIP3    H275527   1.790   4.417  15.114  1.9458  0.5716 -0.0443
18038TIP3   OH275528   4.543   3.510   0.659  0.4367  0.0929  0.0774
18038TIP3    H175529   4.517   3.463   0.738  1.9818 -2.2676 -0.7072
18038TIP3    H275530   4.637   3.524   0.668  0.4397  0.7970 -0.8446
18039TIP3   OH275531   5.985   3.463  12.847 -0.6846 -0.0160 -0.1793
18039TIP3    H175532   6.015   3.480  12.758 -1.0504 -1.7201 -0.6722
18039TIP3    H275533   6.065   3.452  12.898 -0.3904 -2.4962 -1.0551
18040TIP3   OH275534   0.497   1.119  14.355 -0.5941 -0.0700 -0.2598
18040TIP3    H175535   0.585   1.092  14.381  0.0081  1.8747 -0.1179
18040TIP3    H275536   0.489   1.093  14.263  0.6945  1.0011 -0.7005
18041TIP3   OH275537   3.684   0.102  13.715  0.0066  0.3039 -0.8933
18041TIP3    H175538   3.752   0.037  13.700 -0.2442 -0.0752 -0.3940
18041TIP3    H275539   3.621   0.089  13.644  1.0445  1.4607 -2.0785
18042TIP3   OH275540   0.529   5.230   3.716 -0.5995 -0.2489  0.7587
18042TIP3    H175541   0.522   5.230   3.812 -1.1962 -1.0113  0.7298
18042TIP3    H275542   0.472   5.301   3.688 -3.3317 -2.2296  0.8428
18043TIP3   OH275543   0.285   3.115  14.414  0.7303  0.6062 -0.0182
18043TIP3    H175544   0.238   3.039  14.378 -1.1635  0.9547  1.5708
18043TIP3    H275545   0.282   3.180  14.344 -1.4082  0.6854  0.0845
18044TIP3   OH275546   1.917   6.541   0.707 -0.7742 -0.2848 -0.0057
18044TIP3    H175547   1.837   6.571   0.663 -3.4114 -2.7741  2.6795
18044TIP3    H275548   1.940   6.459   0.663  0.2866  0.3282 -0.6481
18045TIP3   OH275549   2.557   3.888   2.434  0.2351  0.6399 -0.2247
18045TIP3    H175550   2.583   3.805   2.475  0.2803 -0.2997 -2.0306
18045TIP3    H275551   2.628   3.948   2.453 -0.5786  0.8741  2.6177
18046TIP3   OH275552   2.263   6.496   1.582 -0.3095  0.4215  0.3946
18046TIP3    H175553   2.172   6.509   1.557  0.1958 -0.7251 -2.4100
18046TIP3    H275554   2.311   6.565   1.536  0.1220  2.6048  3.7904
18047TIP3   OH275555   4.688   5.590  11.593  0.6792 -0.4376 -0.6755
18047TIP3    H175556   4.606   5.558  11.556  0.3504  1.2127 -1.4692
18047TIP3    H275557   4.748   5.593  11.519  0.7100  0.6926 -0.6171
18048TIP3   OH275558   2.552   4.562  10.776  0.2530  0.4826  0.0803
18048TIP3    H175559   2.600   4.560  10.858  0.9077 -0.8778 -0.3004
18048TIP3    H275560   2.616   4.533  10.710 -0.1602  1.8585 -0.9645
18049TIP3   OH275561   2.441   3.420  14.942 -0.3341 -0.0554  0.4727
18049TIP3    H175562   2.359   3.374  14.958 -0.9598 -1.0542 -4.1836
18049TIP3    H275563   2.508   3.367  14.985 -1.6702 -2.0917  0.1527
18050TIP3   OH275564   3.607   5.373  14.717 -0.2534 -0.1343  0.9889
18050TIP3    H175565   3.554   5.390  14.639  0.3380 -1.0453  0.3691
18050TIP3    H275566   3.556   5.410  14.789 -1.6040 -0.7513  0.3838
18051TIP3   OH275567   2.804   5.724   0.030 -0.3989 -0.4474  0.1195
18051TIP3    H175568   2.882   5.745  -0.020 -0.6306  0.4731  0.1359
18051TIP3    H275569   2.837   5.681   0.109 -0.0748 -3.0142 -1.2927
18052TIP3   OH275570   2.727   1.727  10.792  0.3360 -0.2257 -0.0562
18052TIP3    H175571   2.813   1.754  10.823  1.7040 -0.8325 -2.9319
18052TIP3    H275572   2.715   1.776  10.710 -1.7332 -0.7144 -0.0994
18053TIP3   OH275573   2.079   1.342  13.670 -0.3995 -0.0437  0.3244
18053TIP3    H175574   2.100   1.288  13.594 -4.7663 -0.7919 -0.6027
18053TIP3    H275575   2.090   1.282  13.744  2.2006  0.1872  0.2066
18054TIP3   OH275576   0.672   0.305   2.131 -0.3459 -0.5453  0.2978
18054TIP3    H175577   0.643   0.214   2.126  0.5543 -0.7768 -1.4254
18054TIP3    H275578   0.606   0.348   2.186 -1.1017 -2.0965  0.6711
18055TIP3   OH275579   3.008   0.598  13.699  0.1358 -0.6083  0.3007
18055TIP3    H175580   3.028   0.690  13.679 -1.0519 -1.2532 -5.4426
18055TIP3    H275581   3.093   0.555  13.703  0.6297  0.1320 -1.4428
18056TIP3   OH275582   6.154   6.567   5.935 -0.4765  0.1043  0.1400
18056TIP3    H175583   6.244   6.537   5.944  0.1085  1.7406  0.0456
18056TIP3    H275584   6.121   6.572   6.025  0.2308  1.4567  0.3559
18057TIP3   OH275585   6.792   5.747   4.158 -0.1893  0.1980 -0.5608
18057TIP3    H175586   6.779   5.833   4.197  0.5614  0.1756 -0.2302
18057TIP3    H275587   6.720   5.736   4.097  0.6753  1.8297 -1.9552
18058TIP3   OH275588   1.022   0.149  12.948 -0.1231 -0.0155  0.0504
18058TIP3    H175589   1.042   0.241  12.969  2.9089 -0.6561  0.5244
18058TIP3    H275590   1.068   0.099  13.016 -1.3838 -1.9245 -0.4345
18059TIP3   OH275591   1.078   1.717   6.230  0.2999  0.4866  0.1127
18059TIP3    H175592   1.167   1.723   6.265 -0.1772  0.6566  1.3689
18059TIP3    H275593   1.045   1.633   6.262 -0.3145  0.8527  0.4753
18060TIP3   OH275594   3.901   0.121   0.794  0.2570  0.3357 -0.4432
18060TIP3    H175595   3.868   0.155   0.878 -0.3444  0.8316 -0.8669
18060TIP3    H275596   3.963   0.053   0.819 -0.8446 -0.3940  0.4033
18061TIP3   OH275597   4.140   1.374   2.685  0.0804 -0.5636  0.1628
18061TIP3    H175598   4.059   1.332   2.657  0.1997 -0.4356 -0.4029
18061TIP3    H275599   4.131   1.465   2.655  0.5935 -0.6448 -0.2549
18062TIP3   OH275600   4.012   0.755   1.694  0.4930  0.4374  0.1305
18062TIP3    H175601   4.029   0.774   1.602  0.5572  2.2157  0.4552
18062TIP3    H275602   4.032   0.838   1.739  1.4994 -0.6780  1.8832
18063TIP3   OH275603   0.415   2.649  12.711 -0.6358 -0.0182  0.2928
18063TIP3    H175604   0.446   2.700  12.785 -2.9034  0.0173  1.2973
18063TIP3    H275605   0.491   2.643  12.652  0.8765  0.9326  2.0534
18064TIP3   OH275606   3.366   2.607  16.197 -0.7648 -0.6746 -0.0178
18064TIP3    H175607   3.412   2.525  16.183 -0.1864 -0.2910 -0.4264
18064TIP3    H275608   3.273   2.584  16.194 -0.6494 -1.6732  2.0684
18065TIP3   OH275609   0.857   4.579   4.860 -0.0695 -0.4832 -0.3551
18065TIP3    H175610   0.936   4.602   4.909 -1.5439 -0.2198  2.0789
18065TIP3    H275611   0.837   4.658   4.809 -0.9449  1.0582  2.1723
18066TIP3   OH275612   1.343   1.867  16.322 -0.3318  0.1435  0.2375
18066TIP3    H175613   1.414   1.807  16.301  1.2373  1.6354  0.9883
18066TIP3    H275614   1.371   1.951  16.286 -1.3393  0.9482  1.2414
18067TIP3   OH275615   6.721   1.650  16.485  0.1068  0.8599  0.5298
18067TIP3    H175616   6.810   1.662  16.451  0.2991 -0.2956  0.5884
18067TIP3    H275617   6.689   1.573  16.439 -0.1516  0.0987  1.9384
18068TIP3   OH275618   0.701   3.584   2.673  0.2064 -0.8811 -0.2965
18068TIP3    H175619   0.747   3.504   2.648 -0.7667 -2.3947  2.3367
18068TIP3    H275620   0.664   3.564   2.759  0.7657  2.7764  0.9543
18069TIP3   OH275621   0.937   1.187  16.277 -0.6968  0.0435 -0.1076
18069TIP3    H175622   0.857   1.158  16.320 -1.3543  0.2701 -1.1425
18069TIP3    H275623   1.008   1.149  16.329 -1.4949 -1.7157 -0.2503
18070TIP3   OH275624   3.890   0.525   0.211  0.2478 -1.0221  0.5257
18070TIP3    H175625   3.923   0.518   0.121 -1.3884 -1.3505 -0.0843
18070TIP3    H275626   3.914   0.441   0.251  0.6190 -1.0413  0.2722
18071TIP3   OH275627   6.463   3.655  15.743 -0.4163 -0.0173 -0.3604
18071TIP3    H175628   6.454   3.750  15.754 -0.1033  0.2425 -2.0795
18071TIP3    H275629   6.539   3.632  15.796  0.5986  1.0102 -1.3018
18072TIP3   OH275630   6.492   6.675   0.352  0.7065 -0.3996 -0.2668
18072TIP3    H175631   6.506   6.580   0.348 -1.1001 -0.7458  0.8335
18072TIP3    H275632   6.573   6.712   0.316  1.1613 -2.3510 -1.3967
18073TIP3   OH275633   2.486   2.307  12.999  0.0302 -0.3980 -0.6148
18073TIP3    H175634   2.441   2.230  13.033  0.5436 -0.6963 -0.5894
18073TIP3    H275635   2.433   2.335  12.925 -0.2685 -0.6620 -0.5045
18074TIP3   OH275636   3.967   5.068   1.397 -0.2894  0.0603 -0.5776
18074TIP3    H175637   3.971   5.025   1.483 -1.4480  0.7044 -0.1826
18074TIP3    H275638   4.022   5.013   1.341 -1.0690 -1.4905  0.1031
18075TIP3   OH275639   0.734   1.060   2.964 -0.7045  0.5988 -0.3525
18075TIP3    H175640   0.681   1.112   2.903 -0.3653  1.7808  0.3267
18075TIP3    H275641   0.790   1.007   2.908 -1.3985  0.6066 -1.0695
18076TIP3   OH275642   2.502   5.459  16.192  0.2145 -0.3983  0.3223
18076TIP3    H175643   2.508   5.403  16.114 -0.7252  0.8447 -0.6682
18076TIP3    H275644   2.411   5.453  16.219 -0.2019  1.5602 -0.5207
18077TIP3   OH275645   0.519   0.255   1.218 -0.1611 -0.0606  0.1431
18077TIP3    H175646   0.605   0.214   1.223 -0.7748 -1.5085 -0.8573
18077TIP3    H275647   0.525   0.314   1.143 -0.6712 -1.7593 -1.2786
18078TIP3   OH275648   5.108   5.345  16.251  0.1500 -0.1113  0.3150
18078TIP3    H175649   5.096   5.404  16.324  0.6890 -0.5873  0.7969
18078TIP3    H275650   5.200   5.355  16.227  0.5575 -1.5834  1.1506
18079TIP3   OH275651   6.535   5.408   5.513 -0.3827 -0.0342  0.2771
18079TIP3    H175652   6.443   5.432   5.515  0.0179  1.5950  1.8668
18079TIP3    H275653   6.559   5.413   5.420 -1.8185 -0.2794 -0.1317
18080TIP3   OH275654   0.131   0.234   0.887 -0.0843  0.3221  0.6913
18080TIP3    H175655   0.047   0.190   0.869 -0.8497  2.1932 -0.5756
18080TIP3    H275656   0.171   0.181   0.956 -1.3777 -1.7916 -0.0807
18081TIP3   OH275657   6.706   0.388   4.701  0.3161 -0.4528 -0.2652
18081TIP3    H175658   6.682   0.373   4.792 -1.7413 -0.2484 -0.7332
18081TIP3    H275659   6.794   0.426   4.706  0.0680 -0.0130  1.6392
18082TIP3   OH275660   1.533   4.834   6.377  0.2405 -0.4255 -0.2956
18082TIP3    H175661   1.450   4.880   6.362  0.6406  1.1982  1.9057
18082TIP3    H275662   1.533   4.813   6.470  0.8951 -3.4528 -0.8662
18083TIP3   OH275663   6.107   6.030   6.420 -0.2412  0.5455 -0.0639
18083TIP3    H175664   6.041   6.008   6.485 -0.1740  1.6417  0.3854
18083TIP3    H275665   6.074   5.991   6.339 -0.9287  0.2192  0.3657
18084TIP3   OH275666   4.058   5.979  11.839 -0.8538  0.0336 -0.2286
18084TIP3    H175667   4.142   5.949  11.805 -1.1174 -1.0308  0.0270
18084TIP3    H275668   4.018   6.027  11.766 -0.3288 -0.0652 -0.5840
18085TIP3   OH275669   0.978   4.133   3.505 -0.8842  0.0020  0.0965
18085TIP3    H175670   0.970   4.043   3.474 -0.8999  0.1731 -0.4042
18085TIP3    H275671   0.889   4.157   3.530 -0.5220 -0.9642  2.6799
18086TIP3   OH275672   2.801   3.227   1.307  0.3095 -0.2262  0.3929
18086TIP3    H175673   2.807   3.187   1.394 -1.2453 -2.7650 -0.5399
18086TIP3    H275674   2.878   3.195   1.261 -0.7350 -2.0064 -0.2301
18087TIP3   OH275675   1.227   1.456   2.335  0.0506  0.2067  0.0733
18087TIP3    H175676   1.204   1.548   2.344  0.1759  0.3138 -0.6420
18087TIP3    H275677   1.203   1.434   2.245 -1.9770 -1.0268  0.8263
18088TIP3   OH275678   3.575   6.379  16.294  1.0621 -0.6061 -0.0129
18088TIP3    H175679   3.610   6.394  16.382  1.0952 -0.1946 -0.0912
18088TIP3    H275680   3.491   6.426  16.294  0.8905 -0.9092 -0.0846
18089TIP3   OH275681   6.435   4.559  16.162  0.1657  0.7918 -0.4828
18089TIP3    H175682   6.488   4.488  16.198 -0.1963  0.6515 -0.2220
18089TIP3    H275683   6.371   4.515  16.106  0.2673  0.9521 -0.7218
18090TIP3   OH275684   5.352   0.719   0.955  0.1000  0.3170 -0.5725
18090TIP3    H175685   5.304   0.746   1.034 -0.5721 -1.6752 -0.2409
18090TIP3    H275686   5.443   0.716   0.983  0.2659  2.4901 -0.7332
18091TIP3   OH275687   4.118   3.467  16.291 -0.1259 -0.4871  0.2612
18091TIP3    H175688   4.156   3.417  16.219  0.2551  0.2800 -0.0768
18091TIP3    H275689   4.145   3.420  16.370  1.0583 -0.2734 -0.0024
18092TIP3   OH275690   2.664   3.217   4.810  0.2568 -0.2978 -0.3699
18092TIP3    H175691   2.714   3.231   4.890 -2.2752 -0.8459  1.4220
18092TIP3    H275692   2.576   3.250   4.830 -0.6144 -0.9715 -2.7201
18093TIP3   OH275693   3.720   2.361  15.081 -0.1926 -0.7075 -0.4647
18093TIP3    H175694   3.713   2.340  14.988  0.6881  1.7325 -1.1783
18093TIP3    H275695   3.640   2.409  15.101 -0.2261 -0.9355 -0.0466
18094TIP3   OH275696   2.120   6.541   0.480  0.4130 -0.0300  0.1677
18094TIP3    H175697   2.114   6.573   0.570  1.1855 -0.4532  0.3813
18094TIP3    H275698   2.063   6.464   0.479  0.9613 -0.4531  0.5049
18095TIP3   OH275699   6.023   6.605  13.743 -0.0984 -0.4705  0.3765
18095TIP3    H175700   6.001   6.548  13.817  1.1886 -0.5716  0.6909
18095TIP3    H275701   6.084   6.668  13.779 -0.2752  0.1278 -0.3636
18096TIP3   OH275702   3.485   5.277  11.480  0.1645 -0.3108 -0.1183
18096TIP3    H175703   3.527   5.205  11.528  2.4409  0.1097 -1.3184
18096TIP3    H275704   3.481   5.245  11.389  4.4790  2.1305 -1.4769
18097TIP3   OH275705   5.107   1.482  11.620  0.1335  0.5185  0.2365
18097TIP3    H175706   5.091   1.448  11.533 -1.6034  0.7784  0.4139
18097TIP3    H275707   5.089   1.409  11.679  0.3346  0.6238  0.4333
18098TIP3   OH275708   3.968   0.919   0.775  0.4789  0.0467  0.0067
18098TIP3    H175709   4.002   0.986   0.835 -1.6112  1.8069 -0.6620
18098TIP3    H275710   4.035   0.850   0.777  2.7115  2.0744  0.7846
18099TIP3   OH275711   1.198   4.627  11.641  0.3193 -0.0734 -0.2676
18099TIP3    H175712   1.148   4.580  11.708 -0.8159 -0.1067 -1.1155
18099TIP3    H275713   1.167   4.592  11.558 -2.3710  3.6841 -1.1364
18100TIP3   OH275714   0.657   1.939  13.447 -0.1674 -0.2593  0.2093
18100TIP3    H175715   0.659   2.032  13.424  0.0014  0.0275  1.3505
18100TIP3    H275716   0.722   1.899  13.390 -1.1337  0.0957 -1.1927
18101TIP3   OH275717   3.312   1.967   3.260  0.1872 -0.3549  0.1938
18101TIP3    H175718   3.365   1.955   3.338  0.0889 -2.7881 -0.0367
18101TIP3    H275719   3.253   1.892   3.259 -0.4067  0.0638 -1.7544
18102TIP3   OH275720   1.246   2.964  14.975  0.7838 -0.3106 -0.1058
18102TIP3    H175721   1.333   3.001  14.961  0.9328 -0.2866  0.7683
18102TIP3    H275722   1.190   3.041  14.991  0.1581 -0.1721 -2.6500
18103TIP3   OH275723   6.115   6.419   3.144 -0.4176  0.2815  0.3088
18103TIP3    H175724   6.174   6.401   3.217 -1.6118 -1.7459  0.8646
18103TIP3    H275725   6.056   6.487   3.178 -0.5057 -0.1219  0.9873
18104TIP3   OH275726   0.373   6.698   3.816 -0.0559 -0.1255 -0.1658
18104TIP3    H175727   0.380   6.764   3.747  0.2720 -0.2077 -0.2131
18104TIP3    H275728   0.430   6.731   3.886  0.3454 -0.5014 -0.3093
18105TIP3   OH275729   5.699   2.326  12.808  0.6964 -0.0539  0.0642
18105TIP3    H175730   5.634   2.349  12.741  1.9501  1.8894 -0.5586
18105TIP3    H275731   5.697   2.400  12.870  2.1049 -0.0891  0.1815
18106TIP3   OH275732   2.534   4.696   3.414  0.0238  0.0074 -0.4094
18106TIP3    H175733   2.474   4.622   3.415 -3.0142  2.2652  0.0701
18106TIP3    H275734   2.524   4.737   3.500 -0.3361  2.3453 -1.4822
18107TIP3   OH275735   1.722   5.397  16.184 -0.1694 -0.8789 -0.4515
18107TIP3    H175736   1.679   5.348  16.255  0.8815 -3.0103 -1.1972
18107TIP3    H275737   1.722   5.336  16.110  1.0596  0.3506 -1.5122
18108TIP3   OH275738   0.758   6.344  11.865  0.1236  0.7857  0.1216
18108TIP3    H175739   0.691   6.305  11.921  0.1338  1.6237  0.7388
18108TIP3    H275740   0.835   6.351  11.921 -0.2120  2.7506  0.4393
18109TIP3   OH275741   2.172   1.998   5.253 -0.1519 -0.2692  0.1761
18109TIP3    H175742   2.112   1.970   5.184  1.0422 -2.0394 -0.2097
18109TIP3    H275743   2.256   1.960   5.229  0.5678  0.0605  1.9898
18110TIP3   OH275744   3.376   1.051   0.886  0.5437  0.0264  0.5467
18110TIP3    H175745   3.325   1.056   0.966  1.4246  1.8401  1.0462
18110TIP3    H275746   3.461   1.017   0.915 -0.0668 -2.3008 -0.1641
18111TIP3   OH275747   5.230   2.889   4.232 -0.4374 -0.3336 -0.8974
18111TIP3    H175748   5.254   2.804   4.269  1.6748  0.1447 -1.0256
18111TIP3    H275749   5.223   2.947   4.307 -0.1820 -0.2620 -0.9265
18112TIP3   OH275750   2.480   0.323  11.538  0.5599  0.5027 -0.1575
18112TIP3    H175751   2.448   0.337  11.449 -1.5618  0.6689  0.5662
18112TIP3    H275752   2.422   0.256  11.573  0.6641  1.2125  1.4376
18113TIP3   OH275753   3.527   5.125   3.192  0.0148 -0.3827 -0.4705
18113TIP3    H175754   3.528   5.120   3.287  1.5300 -0.0207 -0.4505
18113TIP3    H275755   3.462   5.192   3.172 -0.5369 -0.6785  0.2884
18114TIP3   OH275756   1.212   0.018   1.406  0.2025  0.4215  0.5751
18114TIP3    H175757   1.294   0.047   1.366 -0.4269  0.4131 -0.7953
18114TIP3    H275758   1.210   0.060   1.492  2.2434 -0.6040  1.1876
18115TIP3   OH275759   0.588   2.695  14.673 -0.0514 -0.4691 -0.4277
18115TIP3    H175760   0.559   2.646  14.596  0.0583 -0.2574 -0.6062
18115TIP3    H275761   0.673   2.731  14.647  0.6268 -1.5088  0.2662
18116TIP3   OH275762   3.490   2.989  13.511 -0.3372  0.1228 -0.0971
18116TIP3    H175763   3.463   3.032  13.429  0.2511 -1.4630 -1.1741
18116TIP3    H275764   3.581   2.964  13.495 -0.1182  0.0461  1.1730
18117TIP3   OH275765   5.408   3.995  11.117  0.2003  0.6808 -0.1533
18117TIP3    H175766   5.360   4.000  11.035 -0.3272  0.3814  0.1323
18117TIP3    H275767   5.367   4.060  11.173  0.2588  0.5644  0.0269
18118TIP3   OH275768   5.982   0.808  10.260 -0.0715 -0.1096  0.6770
18118TIP3    H175769   5.912   0.787  10.322  0.2774 -1.7321  0.5489
18118TIP3    H275770   6.058   0.760  10.292  0.0422 -1.2636 -1.1607
18119TIP3   OH275771   4.035   2.579   4.913 -0.1080 -0.2309  0.0762
18119TIP3    H175772   3.989   2.652   4.956 -0.2454 -0.6405  0.6363
18119TIP3    H275773   4.051   2.516   4.983 -0.6704 -1.0853 -0.5376
18120TIP3   OH275774   6.399   0.808  12.584  0.4444 -0.1878 -0.2874
18120TIP3    H175775   6.306   0.826  12.595 -0.1828 -3.0382  0.0381
18120TIP3    H275776   6.443   0.869  12.643 -1.3159  0.3213  0.5596
18121TIP3   OH275777   3.189   0.629   4.925  0.1915  0.0078  0.1196
18121TIP3    H175778   3.212   0.722   4.918  1.0717  0.2442  3.8484
18121TIP3    H275779   3.272   0.586   4.945 -0.3780 -1.4279 -0.5135
18122TIP3   OH275780   2.724   6.546  10.836 -0.1046 -0.1044  0.2858
18122TIP3    H175781   2.716   6.626  10.785  1.6573  0.4989  0.8761
18122TIP3    H275782   2.771   6.485  10.778  1.1087  0.2867  0.8180
18123TIP3   OH275783   4.623   0.574   5.551 -0.1676  0.0258 -0.1434
18123TIP3    H175784   4.549   0.518   5.528 -2.0664  2.8675 -1.5989
18123TIP3    H275785   4.652   0.542   5.637 -3.0441 -1.2692  0.4634
18124TIP3   OH275786   3.308   0.059   3.759  0.6330  1.0740 -0.3427
18124TIP3    H175787   3.243   0.048   3.689  1.1007  0.2631 -0.6716
18124TIP3    H275788   3.262   0.034   3.839  0.7719 -0.4428 -0.6939
18125TIP3   OH275789   1.315   0.043  12.755  0.2836 -0.3929  0.0539
18125TIP3    H175790   1.234   0.024  12.709 -0.3486 -1.4071  1.5018
18125TIP3    H275791   1.379   0.060  12.686 -1.1479  0.4522 -1.1078
18126TIP3   OH275792   6.558   5.296   1.566  0.4825 -0.6394  0.2694
18126TIP3    H175793   6.649   5.323   1.571 -0.0038  1.3128 -0.4453
18126TIP3    H275794   6.561   5.202   1.548  2.3185 -0.7050  0.7729
18127TIP3   OH275795   4.499   4.361  15.616 -0.6234  0.0583  0.2778
18127TIP3    H175796   4.519   4.419  15.689 -0.7566  0.5783 -0.0932
18127TIP3    H275797   4.574   4.370  15.557 -0.6462 -0.1433  0.2163
18128TIP3   OH275798   4.925   0.631   3.943 -0.2681 -0.4504 -0.1980
18128TIP3    H175799   4.980   0.696   3.988 -1.4211  0.6912 -0.4061
18128TIP3    H275800   4.926   0.555   4.002 -1.2876  0.8086  1.5567
18129TIP3   OH275801   4.340   1.765  10.829  0.4536 -0.2265  0.0684
18129TIP3    H175802   4.431   1.796  10.827 -0.2409  1.9222 -0.7867
18129TIP3    H275803   4.305   1.788  10.744 -1.2197  0.0637  0.7992
18130TIP3   OH275804   0.755   5.615   5.089  0.4400 -0.5407  0.7006
18130TIP3    H175805   0.764   5.546   5.023  0.9243  0.9017 -0.8128
18130TIP3    H275806   0.684   5.584   5.146 -1.5975 -0.8605 -1.8077
18131TIP3   OH275807   0.071   0.402   3.008  0.1667  0.2349  0.4843
18131TIP3    H175808   0.048   0.397   2.915  0.0609 -0.2007  0.5297
18131TIP3    H275809  -0.013   0.394   3.054  0.3305 -0.8190  0.6374
18132TIP3   OH275810   3.203   0.729  12.039 -0.4337 -0.3549 -0.6852
18132TIP3    H175811   3.192   0.640  12.072 -0.4121  0.2032  0.9513
18132TIP3    H275812   3.293   0.732  12.008  0.8410  0.0079  2.5974
18133TIP3   OH275813   0.005   6.618  10.821 -0.4277  0.2770  0.2965
18133TIP3    H175814  -0.068   6.679  10.822 -0.5113  0.1813  0.1325
18133TIP3    H275815   0.043   6.623  10.909 -0.8225  0.0907  0.4764
18134TIP3   OH275816   4.082   0.867  13.775  0.6927 -0.2212 -0.1090
18134TIP3    H175817   4.065   0.823  13.858 -0.3644 -0.4425 -0.4254
18134TIP3    H275818   4.159   0.922  13.791  0.4554 -0.2111  1.0221
18135TIP3   OH275819   6.175   0.023   2.559 -0.9130 -0.5178 -0.1705
18135TIP3    H175820   6.130  -0.030   2.494 -0.2358 -2.8935  1.1828
18135TIP3    H275821   6.124   0.010   2.640 -0.3449  0.3713  0.3502
18136TIP3   OH275822   5.318   2.083   5.667 -0.3627  0.5356  0.1966
18136TIP3    H175823   5.273   2.026   5.730  2.0782 -1.8207  0.0110
18136TIP3    H275824   5.350   2.023   5.599 -1.1472  2.7477 -2.2645
18137TIP3   OH275825   3.021   3.301   5.652  0.0533 -0.1684 -0.0970
18137TIP3    H175826   3.055   3.255   5.729 -1.5964  0.3212  0.9862
18137TIP3    H275827   3.087   3.288   5.584  2.3836  0.7290  1.8590
18138TIP3   OH275828   0.254   5.203   2.365  0.5839 -0.4911  0.0603
18138TIP3    H175829   0.259   5.107   2.369  1.3376 -0.5876 -2.0222
18138TIP3    H275830   0.174   5.220   2.315 -0.6002  0.0666  2.0445
18139TIP3   OH275831   1.358   1.801  14.271 -0.2903 -0.0738 -0.4653
18139TIP3    H175832   1.369   1.893  14.295 -1.0222  0.0063 -0.4316
18139TIP3    H275833   1.310   1.762  14.344 -0.1535 -0.4415 -0.5661
18140TIP3   OH275834   2.519   4.993   1.784  0.0378  0.2628  0.1653
18140TIP3    H175835   2.446   5.014   1.725 -1.7842  0.8228  2.4813
18140TIP3    H275836   2.596   4.997   1.728 -1.6081  0.1871 -2.2999
18141TIP3   OH275837   1.461   4.063  14.707 -0.0343  0.0338 -0.0286
18141TIP3    H175838   1.469   4.040  14.800 -0.8134  1.3102  0.3820
18141TIP3    H275839   1.371   4.039  14.684 -0.5733  1.7154  0.1724
18142TIP3   OH275840   1.065   0.297   3.201 -0.6212  0.4044 -0.8620
18142TIP3    H175841   1.129   0.281   3.270 -0.5512  2.2387 -0.4410
18142TIP3    H275842   1.067   0.392   3.188 -1.5620  0.2435 -2.5008
18143TIP3   OH275843   3.108   2.397  15.273  0.1211 -0.6303 -0.2411
18143TIP3    H175844   3.111   2.445  15.190  0.5262  0.1241  0.1910
18143TIP3    H275845   3.023   2.353  15.273 -1.3911  2.0860  0.4045
18144TIP3   OH275846   5.280   2.243   2.343 -0.2472  0.5577 -0.0115
18144TIP3    H175847   5.243   2.296   2.271 -0.6445 -1.1614 -1.1333
18144TIP3    H275848   5.203   2.210   2.389 -0.0455 -0.3424 -0.3142
18145TIP3   OH275849   0.685   3.193   5.341  0.1141  0.2712 -0.1143
18145TIP3    H175850   0.593   3.166   5.340  0.2916 -0.4295 -2.1479
18145TIP3    H275851   0.707   3.207   5.249  2.4514 -1.0798  0.1459
18146TIP3   OH275852   4.956   2.090   6.136 -0.0482 -0.2355  0.4876
18146TIP3    H175853   4.959   2.044   6.052  1.3689 -0.4481  0.6287
18146TIP3    H275854   5.030   2.056   6.185  0.7348  1.7842  0.8131
18147TIP3   OH275855   3.025   2.371   5.946 -0.8463 -0.6915  0.3055
18147TIP3    H175856   2.937   2.372   5.985 -0.2260 -1.1524  1.7843
18147TIP3    H275857   3.018   2.429   5.870 -2.2794 -0.2817  0.7115
18148TIP3   OH275858   5.146   4.140  14.037 -0.6050  0.4212  0.1760
18148TIP3    H175859   5.151   4.170  14.127 -1.9351 -0.6472  0.6419
18148TIP3    H275860   5.228   4.170  13.997  0.3208  0.3407  1.9050
18149TIP3   OH275861   6.369   0.154  15.309  0.1667 -0.0466 -0.0510
18149TIP3    H175862   6.461   0.154  15.336  0.1248 -1.0654  0.1304
18149TIP3    H275863   6.336   0.239  15.337  1.2056  0.5972 -0.6698
18150TIP3   OH275864   2.481   3.435   6.710 -0.4228  0.0068  0.4414
18150TIP3    H175865   2.570   3.402   6.698 -0.3155 -0.8800  3.1236
18150TIP3    H275866   2.432   3.360   6.742 -2.2261  0.4528 -1.0846
18151TIP3   OH275867   6.248   6.798   0.836 -0.3768 -0.1602  0.2622
18151TIP3    H175868   6.253   6.704   0.852  0.8298  0.1028  1.6264
18151TIP3    H275869   6.298   6.812   0.756 -0.5327 -0.6602  0.0748
18152TIP3   OH275870   5.062   6.542   5.624  0.2366 -0.2781  0.6309
18152TIP3    H175871   5.144   6.582   5.596  0.2945 -0.0720  1.0897
18152TIP3    H275872   5.012   6.615   5.661 -0.7763 -0.0888 -1.0000
18153TIP3   OH275873   3.889   4.911   0.963 -0.3497 -0.3969  0.0272
18153TIP3    H175874   3.916   4.984   0.907  0.2305 -0.8094 -0.2366
18153TIP3    H275875   3.941   4.837   0.933  0.2490 -0.5436  1.3467
18154TIP3   OH275876   2.088   3.919   2.431  0.1696 -0.6369 -0.1781
18154TIP3    H175877   2.042   4.002   2.447 -0.8776 -1.4170  1.0793
18154TIP3    H275878   2.060   3.862   2.503  2.9251 -1.2685  0.4982
18155TIP3   OH275879   5.349   0.421   3.742 -0.4400  0.1195  0.3067
18155TIP3    H175880   5.335   0.376   3.659 -0.2011 -0.9025  0.8010
18155TIP3    H275881   5.278   0.485   3.747  0.6757  1.6134 -1.5898
18156TIP3   OH275882   6.240   3.673  13.500 -0.2832 -0.0085 -0.3078
18156TIP3    H175883   6.224   3.651  13.592  0.5426 -1.6661 -0.5239
18156TIP3    H275884   6.328   3.712  13.500 -0.8490  1.3223 -0.2320
18157TIP3   OH275885   0.473   5.119   3.435 -0.3701  0.5774 -0.4981
18157TIP3    H175886   0.436   5.159   3.514  0.5939  0.6695 -0.0885
18157TIP3    H275887   0.428   5.034   3.429 -1.9677  1.4210 -1.0319
18158TIP3   OH275888   1.570   3.779  12.468  0.5149 -0.4897 -0.9589
18158TIP3    H175889   1.509   3.707  12.458  0.3072 -0.6276  1.0681
18158TIP3    H275890   1.652   3.738  12.495  0.2784  0.0147  0.6456
18159TIP3   OH275891   4.864   0.911   5.159 -0.4757  0.0433  0.1276
18159TIP3    H175892   4.832   0.995   5.124  1.1891 -0.3441 -2.6580
18159TIP3    H275893   4.951   0.901   5.121  0.5993 -1.6238  2.7633
18160TIP3   OH275894   3.778   0.328  13.571  0.2215 -0.3271  0.4723
18160TIP3    H175895   3.714   0.339  13.641 -1.3250 -0.8512 -0.7830
18160TIP3    H275896   3.801   0.235  13.573  0.8686 -0.1615  0.8503
18161TIP3   OH275897   6.337   4.319  11.516  0.0230  0.2465  0.3994
18161TIP3    H175898   6.382   4.383  11.461 -1.1021  2.7087  2.1563
18161TIP3    H275899   6.247   4.351  11.522 -1.5532 -3.3132 -1.2231
18162TIP3   OH275900   4.126   3.709  11.530  0.7717 -0.4030 -0.0408
18162TIP3    H175901   4.172   3.755  11.459  2.2704  0.1892  1.2450
18162TIP3    H275902   4.130   3.770  11.604 -2.6842 -0.0728 -0.0008
18163TIP3   OH275903   0.943   1.926  12.056 -0.4723 -0.1356 -0.2363
18163TIP3    H175904   0.963   1.902  12.146  1.9031  0.2130 -0.6025
18163TIP3    H275905   0.854   1.961  12.059 -0.4136 -0.0612  1.9723
18164TIP3   OH275906   6.388   2.633   5.674  0.2059 -0.0556  0.0452
18164TIP3    H175907   6.430   2.585   5.745  1.0157 -0.7458 -0.8646
18164TIP3    H275908   6.294   2.622   5.689  0.3712 -0.3050  0.9228
18165TIP3   OH275909   5.176   3.953   1.644  1.2198  0.0477  0.0728
18165TIP3    H175910   5.095   3.998   1.620  0.7900 -0.4323  0.6110
18165TIP3    H275911   5.209   3.918   1.561 -0.5135 -2.0273  0.1585
18166TIP3   OH275912   3.673   1.785   1.834 -0.0239  0.0171 -0.0853
18166TIP3    H175913   3.670   1.715   1.769 -1.4413 -0.6739  0.6851
18166TIP3    H275914   3.582   1.801   1.857  0.1515  2.9052 -0.9956
18167TIP3   OH275915   2.148   2.717  13.748 -0.4274  0.0458  0.5101
18167TIP3    H175916   2.129   2.662  13.671  0.2943  0.2445  0.1737
18167TIP3    H275917   2.241   2.739  13.738 -0.7162  1.3784  0.6048
18168TIP3   OH275918   0.366   6.312  10.477  0.0161 -0.9984 -0.4073
18168TIP3    H175919   0.353   6.301  10.382  0.1717  1.0248 -0.7066
18168TIP3    H275920   0.453   6.352  10.484 -1.3378  2.1119  0.2746
18169TIP3   OH275921   4.873   0.274  13.809  0.1098 -0.2816  0.6500
18169TIP3    H175922   4.839   0.347  13.758  1.4275  0.2757  0.5199
18169TIP3    H275923   4.824   0.197  13.779 -0.7204  0.4106  0.2108
18170TIP3   OH275924   0.717   6.410   3.403  0.1815  0.1891 -0.1569
18170TIP3    H175925   0.737   6.500   3.427  0.5839  0.1755 -0.4359
18170TIP3    H275926   0.639   6.388   3.455 -0.6644  1.1026 -0.9868
18171TIP3   OH275927   1.545   2.529   2.551 -0.5475  0.0205 -0.5147
18171TIP3    H175928   1.488   2.537   2.627 -2.3400 -0.2531 -1.7827
18171TIP3    H275929   1.633   2.524   2.588 -1.4096 -0.7996  1.5845
18172TIP3   OH275930   3.598   2.802  11.504  0.3202  0.3459 -0.0155
18172TIP3    H175931   3.598   2.806  11.408 -0.9691 -0.8701 -0.0986
18172TIP3    H275932   3.558   2.718  11.525 -0.6768  1.1624  1.5957
18173TIP3   OH275933   6.029   6.486  15.523  0.3522  0.8822  0.2473
18173TIP3    H175934   5.946   6.530  15.504 -0.8916 -0.6197  1.8597
18173TIP3    H275935   6.079   6.549  15.575 -1.0527  0.7642  1.8299
18174TIP3   OH275936   0.556   0.669  13.814  0.3046  0.5602  0.2131
18174TIP3    H175937   0.545   0.596  13.875  0.8891  0.5670  0.3294
18174TIP3    H275938   0.641   0.654  13.774 -0.1124  0.4967 -0.6875
18175TIP3   OH275939   0.110   6.732  11.066  0.5248 -0.0678  0.8420
18175TIP3    H175940   0.185   6.776  11.026  0.2774  0.9374  1.4364
18175TIP3    H275941   0.035   6.783  11.037  0.2664  0.1467  1.8330
18176TIP3   OH275942   5.454   4.154  12.121  0.6046  0.8807  0.0510
18176TIP3    H175943   5.549   4.139  12.116  0.5517  0.9967 -1.6492
18176TIP3    H275944   5.446   4.248  12.139  0.8030  0.6685  1.3589
18177TIP3   OH275945   5.152   0.876   3.793  0.2195  0.4886 -0.5766
18177TIP3    H175946   5.229   0.896   3.738  0.7404 -1.6693 -0.7096
18177TIP3    H275947   5.168   0.787   3.824 -1.7362  0.4131  0.2948
18178TIP3   OH275948   6.286   3.796   0.201 -0.1490  0.0572 -0.5847
18178TIP3    H175949   6.202   3.767   0.163  0.0863  0.2152 -1.2321
18178TIP3    H275950   6.336   3.828   0.127 -0.7365  3.0660  0.1916
18179TIP3   OH275951   1.288   0.347  11.898  0.0252 -0.0038  0.1084
18179TIP3    H175952   1.212   0.368  11.843  0.6553  1.5494 -0.2141
18179TIP3    H275953   1.329   0.272  11.854 -0.8423 -0.3294 -0.1733
18180TIP3   OH275954   1.985   6.732   2.136 -0.3904  0.1402  0.8760
18180TIP3    H175955   1.982   6.823   2.108 -0.0920  0.0043  0.3822
18180TIP3    H275956   1.946   6.683   2.064 -3.9898  0.1742  2.6122
18181TIP3   OH275957   4.616   2.824   3.609  0.3741 -0.3431  0.1106
18181TIP3    H175958   4.613   2.908   3.655  1.6631 -0.9334  1.3635
18181TIP3    H275959   4.690   2.832   3.549 -0.0958 -0.2526 -0.4571
18182TIP3   OH275960   1.409   5.322  14.803 -0.1383 -0.3403  0.2921
18182TIP3    H175961   1.466   5.264  14.855  0.6552 -0.1271 -0.3226
18182TIP3    H275962   1.370   5.381  14.868  0.0528 -0.7294  0.7683
18183TIP3   OH275963   0.839   4.015  14.010  0.4653  0.0691 -0.4153
18183TIP3    H175964   0.747   3.990  14.021  0.3067  0.5939 -0.5033
18183TIP3    H275965   0.881   3.938  13.973  0.3198 -0.6010  0.7717
18184TIP3   OH275966   2.326   2.763  15.484  0.2489 -0.1173 -0.0157
18184TIP3    H175967   2.282   2.840  15.450  0.4757 -0.3436 -0.8447
18184TIP3    H275968   2.288   2.750  15.571 -1.0828 -0.1240 -0.5760
18185TIP3   OH275969   4.064   6.086  15.100 -0.4431 -0.9041  0.0067
18185TIP3    H175970   4.095   6.007  15.145  0.0106 -1.3533 -1.0597
18185TIP3    H275971   4.094   6.075  15.010  1.1660  1.2706  0.1798
18186TIP3   OH275972   6.002   3.246  11.310 -0.6622  0.0705  0.2313
18186TIP3    H175973   6.073   3.260  11.247 -0.9306  0.0012 -0.0855
18186TIP3    H275974   5.923   3.237  11.257 -1.1025  1.2961  0.6331
18187TIP3   OH275975   3.080   6.748   3.625  0.4200 -0.2867 -0.7745
18187TIP3    H175976   3.004   6.696   3.654  0.2686 -0.3950 -1.3569
18187TIP3    H275977   3.064   6.762   3.532  0.0091  1.5778 -0.4503
18188TIP3   OH275978   4.699   4.479  16.617 -0.2867  0.0654 -0.1342
18188TIP3    H175979   4.684   4.573  16.603 -1.0137  0.0010  0.1910
18188TIP3    H275980   4.629   4.452  16.677  0.3807 -0.5171  0.4010
18189TIP3   OH275981   6.241   6.172   1.217  0.3590 -0.7184 -0.4107
18189TIP3    H175982   6.164   6.136   1.260 -0.6545  1.8599  0.0799
18189TIP3    H275983   6.216   6.180   1.125  0.2158 -0.4020 -0.3476
18190TIP3   OH275984   0.844   6.131  12.975  0.3235 -0.1769  0.1425
18190TIP3    H175985   0.905   6.159  12.907  0.0931 -0.8550 -0.3438
18190TIP3    H275986   0.837   6.036  12.965  0.2306 -0.2832  1.0664
18191TIP3   OH275987   3.949   3.829  16.671  0.4416 -0.0044 -0.5105
18191TIP3    H175988   3.942   3.924  16.661 -1.0227 -0.1169 -0.7112
18191TIP3    H275989   3.925   3.794  16.585  3.3719 -0.5247 -1.2261
18192TIP3   OH275990   3.126   1.708  11.222  0.0961  0.7192 -0.6039
18192TIP3    H175991   3.221   1.723  11.225  0.3519 -0.8855  1.4700
18192TIP3    H275992   3.117   1.613  11.212 -1.2897  0.8114 -0.4124
18193TIP3   OH275993   5.473   2.577   4.091  0.5856 -0.1544 -0.4389
18193TIP3    H175994   5.495   2.646   4.154 -3.0588 -0.3047  1.2512
18193TIP3    H275995   5.468   2.497   4.143 -0.3148 -0.7028 -1.3341
18194TIP3   OH275996   5.733   4.228  16.554 -0.1228  0.5734 -0.0886
18194TIP3    H175997   5.723   4.308  16.605  0.2262  0.8111 -0.3928
18194TIP3    H275998   5.810   4.186  16.592  0.4163  0.9815 -0.7270
18195TIP3   OH275999   1.814   4.152   6.752  0.6285 -0.3895  0.5480
18195TIP3    H176000   1.872   4.128   6.680 -0.0982 -0.8015  0.0889
18195TIP3    H276001   1.807   4.247   6.746  0.2874 -0.4470 -0.1680
18196TIP3   OH276002   3.796   3.836  11.889 -0.2201  0.0099 -0.1961
18196TIP3    H176003   3.794   3.905  11.823 -3.9982  1.7009  1.4036
18196TIP3    H276004   3.749   3.763  11.849 -0.9907  0.3880  0.0199
18197TIP3   OH276005   4.067   1.869   4.995  0.2581  0.4765 -0.0320
18197TIP3    H176006   4.014   1.840   4.921  2.2227 -0.0346 -1.3092
18197TIP3    H276007   4.096   1.788   5.037  0.0236  0.7496  0.6724
18198TIP3   OH276008   2.887   4.962  10.726 -0.1818  0.4320  0.5139
18198TIP3    H176009   2.860   5.000  10.642 -1.2060 -1.7762 -0.2337
18198TIP3    H276010   2.947   4.892  10.702  1.9321  1.6634  1.8725
18199TIP3   OH276011   4.028   1.252   5.873 -0.2326  0.5212 -0.1910
18199TIP3    H176012   4.104   1.215   5.918 -1.1373  0.4423  1.3482
18199TIP3    H276013   4.028   1.344   5.899 -0.4599  0.5982 -0.4676
18200TIP3   OH276014   0.809   1.086   1.793  0.0258  0.0741 -0.2261
18200TIP3    H176015   0.773   1.050   1.874  0.2010  0.5331  0.0627
18200TIP3    H276016   0.900   1.108   1.815  0.2676 -0.4064 -0.7391
18201TIP3   OH276017   6.653   4.815  16.810 -0.6621 -0.8738  0.5457
18201TIP3    H176018   6.719   4.813  16.741  0.6029 -2.8323  1.7278
18201TIP3    H276019   6.580   4.765  16.775 -2.8591  3.4093 -1.8258
18202TIP3   OH276020   5.183   4.983  11.417  0.0007  0.2547 -0.4823
18202TIP3    H176021   5.204   5.000  11.509  1.7051  3.5328 -1.2863
18202TIP3    H276022   5.127   5.057  11.392 -0.2986 -0.4897 -2.1307
18203TIP3   OH276023   1.920   0.219   5.151 -0.7134  0.1116 -0.1040
18203TIP3    H176024   1.825   0.217   5.141 -0.6865  0.5893 -0.5116
18203TIP3    H276025   1.952   0.156   5.086 -0.7232  0.3747 -0.3632
18204TIP3   OH276026   5.063   0.335   2.998  0.5918 -0.3666 -0.6039
18204TIP3    H176027   5.073   0.281   2.920  0.3155  1.3515 -1.8918
18204TIP3    H276028   5.125   0.407   2.985  1.2892 -0.5503  1.2715
18205TIP3   OH276029   5.518   2.989   2.012 -0.7428  0.2727 -0.1591
18205TIP3    H176030   5.510   2.948   2.099 -2.9586  1.1257  0.1039
18205TIP3    H276031   5.606   2.967   1.983 -0.4266 -1.1963  1.7262
18206TIP3   OH276032   2.730   4.234   1.462 -0.1830  0.3654 -0.0070
18206TIP3    H176033   2.693   4.233   1.374  0.1661 -0.8530 -0.1619
18206TIP3    H276034   2.805   4.293   1.456  0.3908 -0.4208 -0.7834
18207TIP3   OH276035   5.716   1.675  12.870 -0.1040 -0.0482 -0.1920
18207TIP3    H176036   5.708   1.762  12.910  1.2908 -0.2232  0.5375
18207TIP3    H276037   5.628   1.638  12.876 -0.2344  0.4357  1.6162
18208TIP3   OH276038   1.740   1.907   4.655 -0.1609 -0.2434 -0.1242
18208TIP3    H176039   1.748   1.814   4.635  2.0491  0.0705 -0.9722
18208TIP3    H276040   1.775   1.917   4.743  0.5236 -0.0849 -0.4117
18209TIP3   OH276041   5.301   5.246  14.226  0.8354  0.1245  0.7920
18209TIP3    H176042   5.320   5.334  14.192 -0.4422  0.0089 -0.3175
18209TIP3    H276043   5.362   5.189  14.180  0.3155  0.1980 -0.0115
18210TIP3   OH276044   0.753   1.342   5.175  0.0777  0.1485  0.0531
18210TIP3    H176045   0.800   1.280   5.231  4.2372  2.3881 -0.5371
18210TIP3    H276046   0.759   1.304   5.088 -0.5014 -0.2353  0.1770
18211TIP3   OH276047   5.472   5.678  16.275 -0.6424  0.2561  0.1569
18211TIP3    H176048   5.474   5.723  16.359 -0.0553  2.7254 -1.0904
18211TIP3    H276049   5.557   5.698  16.235 -1.7693  1.1074 -1.9633
18212TIP3   OH276050   3.047   1.196   2.168 -0.1376 -0.2785  0.0640
18212TIP3    H176051   3.003   1.274   2.135 -1.5520 -1.8506 -2.1219
18212TIP3    H276052   3.000   1.174   2.249 -2.8976 -1.3132 -1.6698
18213TIP3   OH276053   1.781   5.775  13.059  0.6623 -0.4484  0.2626
18213TIP3    H176054   1.754   5.856  13.104  2.7616  0.4849 -0.0724
18213TIP3    H276055   1.711   5.713  13.079 -0.5648  1.1767  1.2899
18214TIP3   OH276056   6.567   4.593   0.652  0.5391  0.0104  0.2069
18214TIP3    H176057   6.545   4.510   0.694  1.7296 -0.9591 -1.0194
18214TIP3    H276058   6.574   4.572   0.559  2.3801  1.1469  0.0485
18215TIP3   OH276059   4.595   4.559   4.698  0.1637  0.1588 -0.8731
18215TIP3    H176060   4.515   4.516   4.667  0.5229 -0.3922 -1.0519
18215TIP3    H276061   4.632   4.601   4.620  1.3156 -1.6196 -1.3416
18216TIP3   OH276062   0.063   0.609   0.628 -0.4359 -0.3923  0.1912
18216TIP3    H176063  -0.015   0.576   0.673  0.0262 -0.4718  0.9352
18216TIP3    H276064   0.066   0.559   0.546 -0.6168 -1.0757  0.5983
18217TIP3   OH276065   4.677   1.924   4.256  0.4121 -0.0115  0.4650
18217TIP3    H176066   4.752   1.968   4.215 -2.0098  2.0000 -2.2135
18217TIP3    H276067   4.670   1.841   4.209 -0.3753  0.8455 -1.0023
18218TIP3   OH276068   0.168   4.418   2.422  0.8666  0.2805 -0.2638
18218TIP3    H176069   0.151   4.507   2.393 -0.0400  0.1240 -0.2560
18218TIP3    H276070   0.194   4.371   2.343  0.9709  0.4619 -0.3372
18219TIP3   OH276071   6.666   1.098  12.979  0.0953 -0.0733  0.1434
18219TIP3    H176072   6.693   1.188  12.962 -1.3269  0.5070  0.8296
18219TIP3    H276073   6.610   1.103  13.057  2.2122 -1.9336  1.9483
18220TIP3   OH276074   2.035   4.568  12.823 -0.0972  0.0922  0.0795
18220TIP3    H176075   2.013   4.661  12.815 -0.6933  0.0828  1.3450
18220TIP3    H276076   2.006   4.530  12.741 -0.8765  0.8475 -0.0162
18221TIP3   OH276077   6.241   2.323  16.729 -0.3134  0.1687  0.2948
18221TIP3    H176078   6.249   2.228  16.722 -1.1946  0.2024 -2.3589
18221TIP3    H276079   6.217   2.339  16.820 -1.7308 -2.3111  0.4454
18222TIP3   OH276080   1.817   2.286   0.688 -0.9060 -0.0911 -0.0320
18222TIP3    H176081   1.908   2.260   0.700 -1.1428 -0.4264  1.2062
18222TIP3    H276082   1.814   2.326   0.601  0.1476 -1.2050 -0.5973
18223TIP3   OH276083   2.898   4.828  12.138  0.4584 -0.2309 -0.5451
18223TIP3    H176084   2.994   4.835  12.133  0.4248  1.4398  0.3401
18223TIP3    H276085   2.881   4.806  12.230  0.0245 -2.2506 -1.0609
18224TIP3   OH276086   0.783   1.148   1.373  0.4158 -0.3437 -0.2138
18224TIP3    H176087   0.711   1.106   1.419 -0.0369  1.4471  0.8124
18224TIP3    H276088   0.840   1.075   1.346 -0.1936 -1.5842  1.6555
18225TIP3   OH276089   3.378   4.224  13.211  0.8249  0.0394 -0.0722
18225TIP3    H176090   3.348   4.204  13.122 -1.0799  1.0233  0.3024
18225TIP3    H276091   3.329   4.163  13.267 -0.5758  1.6439  0.5523
18226TIP3   OH276092   0.452   0.194   0.632 -0.0278  0.6622 -0.4852
18226TIP3    H176093   0.521   0.166   0.572 -0.6748  1.7747 -1.8051
18226TIP3    H276094   0.482   0.279   0.666  0.1521  0.2237  0.4911
18227TIP3   OH276095   1.581   0.976   3.874  0.2187 -0.5758  0.2068
18227TIP3    H176096   1.542   1.009   3.793 -0.7848 -2.9410 -0.3444
18227TIP3    H276097   1.672   0.957   3.852  0.5741  0.8805  0.3016
18228TIP3   OH276098   2.770   5.820   3.694 -0.1887  0.0844  0.0084
18228TIP3    H176099   2.720   5.899   3.712  0.6693  0.8249 -0.7270
18228TIP3    H276100   2.713   5.748   3.721 -1.3339  0.9207 -0.1181
18229TIP3   OH276101   2.832   5.106   4.104  0.1619 -0.1514 -0.7414
18229TIP3    H176102   2.883   5.076   4.180 -0.5329 -1.6849 -0.8594
18229TIP3    H276103   2.896   5.107   4.032  0.5274  0.0838 -0.4221
18230TIP3   OH276104   3.880   3.328  16.050  0.1209 -0.2752 -0.3426
18230TIP3    H176105   3.957   3.321  16.105  1.4916  3.2789 -1.4826
18230TIP3    H276106   3.845   3.416  16.068 -2.0816 -0.7464 -1.7997
18231TIP3   OH276107   1.577   3.574   2.293 -0.2730 -0.1500  0.0333
18231TIP3    H176108   1.593   3.610   2.206  1.1685  0.3271  0.4718
18231TIP3    H276109   1.555   3.650   2.347 -1.0141 -0.4258  0.1275
18232TIP3   OH276110   6.437   4.733   3.059  0.4007 -0.0574  0.0664
18232TIP3    H176111   6.434   4.638   3.074 -1.4607 -0.3060 -1.5212
18232TIP3    H276112   6.487   4.767   3.133 -0.2279 -2.1173  1.5433
18233TIP3   OH276113   0.516   1.803  16.913 -0.2083  0.4157  0.0471
18233TIP3    H176114   0.434   1.853  16.907 -0.5852 -0.1644  0.2874
18233TIP3    H276115   0.572   1.840  16.845 -1.1445 -0.0308 -0.9940
18234TIP3   OH276116   2.492   5.580  12.062 -0.1247  0.2674  0.5683
18234TIP3    H176117   2.447   5.519  12.120 -1.8897  0.3290 -0.6406
18234TIP3    H276118   2.498   5.662  12.111 -0.8876  0.0997  0.9432
18235TIP3   OH276119   1.123   2.347  11.426 -0.3551  0.1946  0.3415
18235TIP3    H176120   1.154   2.355  11.336 -1.4344  3.3971  0.1082
18235TIP3    H276121   1.195   2.304  11.472  1.4710  1.0609 -1.5253
18236TIP3   OH276122   2.009   0.329   2.471 -0.6201 -0.3343 -0.0457
18236TIP3    H176123   2.087   0.273   2.478  0.0511  0.4565 -0.9964
18236TIP3    H276124   1.936   0.268   2.480  0.1020 -1.3277 -0.6938
18237TIP3   OH276125   2.596   1.042  16.326 -0.9367  0.2850  0.1155
18237TIP3    H176126   2.633   1.037  16.238 -1.9101  0.3440 -0.3040
18237TIP3    H276127   2.672   1.041  16.384 -0.2929  0.1084 -0.7177
18238TIP3   OH276128   5.070   4.326  13.531 -0.2133 -0.0670  0.0482
18238TIP3    H176129   5.036   4.328  13.441 -3.4909 -3.3233  1.0147
18238TIP3    H276130   5.145   4.267  13.526 -1.2100 -1.3295 -0.3582
18239TIP3   OH276131   0.783   2.234   1.095  0.3528  0.2488 -0.3111
18239TIP3    H176132   0.719   2.173   1.134  1.9373 -0.2554  1.6760
18239TIP3    H276133   0.837   2.180   1.039 -0.8308  0.6631 -1.9314
18240TIP3   OH276134   6.187   3.999  13.890  0.6124  0.3738  0.7932
18240TIP3    H176135   6.279   3.995  13.917  0.4797  0.4404  1.2689
18240TIP3    H276136   6.167   4.092  13.889  1.3994  0.6065 -2.3146
18241TIP3   OH276137   4.685   1.919   6.738 -0.3031 -0.5175 -0.2098
18241TIP3    H176138   4.606   1.879   6.773 -1.0222  0.8841 -0.1276
18241TIP3    H276139   4.729   1.849   6.689 -0.8625 -1.6842  0.9116
18242TIP3   OH276140   1.967   1.638  14.873 -0.2726 -0.7436  0.3721
18242TIP3    H176141   1.948   1.639  14.967  0.7699  1.1484  0.6211
18242TIP3    H276142   2.062   1.630  14.868 -0.3332 -0.9926 -0.5415
18243TIP3   OH276143   5.942   3.777   4.463  0.0072 -0.2214 -0.3197
18243TIP3    H176144   5.871   3.833   4.431 -1.5605 -1.4022  0.9390
18243TIP3    H276145   5.916   3.688   4.438 -0.2263 -0.9451  2.2589
18244TIP3   OH276146   1.210   1.843  11.475  0.0501  0.2362 -0.0295
18244TIP3    H176147   1.212   1.895  11.395 -0.2787  2.0381  1.0735
18244TIP3    H276148   1.124   1.800  11.474  0.0039  0.3399 -0.5801
18245TIP3   OH276149   1.686   2.513   1.464  0.4122  0.5500  0.0265
18245TIP3    H176150   1.658   2.422   1.469  0.9434  0.2063 -2.2658
18245TIP3    H276151   1.610   2.560   1.428  0.0224  1.1080  1.5074
18246TIP3   OH276152   5.088   3.002   3.863  0.2133  0.0202 -0.0517
18246TIP3    H176153   5.090   3.085   3.816 -0.6627 -0.2164 -0.5367
18246TIP3    H276154   5.124   2.938   3.802  1.1144  0.0776  0.4095
18247TIP3   OH276155   3.824   3.575  16.186  0.4592 -0.3640 -0.2221
18247TIP3    H176156   3.836   3.544  16.276 -0.4672  0.4271  0.1931
18247TIP3    H276157   3.771   3.654  16.195  1.9898  0.8626 -1.3114
18248TIP3   OH276158   2.016   2.407  15.151 -0.0503 -0.1352 -0.2662
18248TIP3    H176159   1.964   2.482  15.124 -0.2390  0.0248  0.5381
18248TIP3    H276160   1.961   2.331  15.128 -0.9979  0.0478  1.2609
18249TIP3   OH276161   0.356   1.674   2.632 -0.2348  1.0666  0.2604
18249TIP3    H176162   0.295   1.610   2.597 -0.2726  0.6590  1.0508
18249TIP3    H276163   0.363   1.653   2.725  1.5256  0.7574  0.0963
18250TIP3   OH276164   6.740   5.784  12.141  0.4026 -0.6817 -0.2095
18250TIP3    H176165   6.792   5.732  12.202  1.3381  1.8011  1.2765
18250TIP3    H276166   6.651   5.779  12.176  0.4377 -1.4475 -0.2197
18251TIP3   OH276167   0.875   0.222  13.645 -0.2541  0.2208  0.1337
18251TIP3    H176168   0.910   0.137  13.618 -1.1665 -0.4763  1.0344
18251TIP3    H276169   0.941   0.258  13.704  1.0830  1.1067 -1.8205
18252TIP3   OH276170   1.463   1.788   4.330  0.0515  0.2538  0.3494
18252TIP3    H176171   1.376   1.794   4.368 -0.2248 -0.5457 -0.1407
18252TIP3    H276172   1.483   1.694   4.331  0.7636  0.3984  0.1415
18253TIP3   OH276173   1.673   3.136  13.558 -0.5261  0.2318 -0.2852
18253TIP3    H176174   1.646   3.045  13.569  0.4366 -0.2479 -1.6429
18253TIP3    H276175   1.742   3.133  13.492  0.7125  1.7613  0.8641
18254TIP3   OH276176   4.846   6.631   0.868  0.4779  0.4480  0.0998
18254TIP3    H176177   4.896   6.627   0.950 -0.0680  0.5362  0.4487
18254TIP3    H276178   4.895   6.576   0.807 -0.0952 -1.1753  1.0380
18255TIP3   OH276179   1.086   6.270   3.274  0.2797 -0.0252  0.0914
18255TIP3    H176180   1.048   6.238   3.356  0.7130  0.8756  0.6671
18255TIP3    H276181   1.017   6.324   3.235  0.6616  0.9943  0.7638
18256TIP3   OH276182   3.030   2.891  12.194  0.2423  0.9651  0.1183
18256TIP3    H176183   2.961   2.895  12.260 -0.8328 -0.1263 -0.8755
18256TIP3    H276184   2.984   2.904  12.111  1.1454 -0.2420 -0.6144
18257TIP3   OH276185   6.109   4.237   4.537 -0.4846  0.6507 -0.8869
18257TIP3    H176186   6.145   4.307   4.592  0.4288  0.2673 -0.9844
18257TIP3    H276187   6.030   4.210   4.584  0.5385 -0.0125  0.5506
18258TIP3   OH276188   2.481   4.821  15.923  0.3440  0.2200  0.7212
18258TIP3    H176189   2.452   4.730  15.922 -0.5127  0.4833  0.0749
18258TIP3    H276190   2.433   4.860  15.996 -0.0332  0.3720  0.3978
18259TIP3   OH276191   5.445   4.181   2.606  0.0432 -0.3038  0.3702
18259TIP3    H176192   5.375   4.240   2.632  2.4310  2.4043  1.1819
18259TIP3    H276193   5.461   4.201   2.514 -0.1082 -0.7774  0.2385
18260TIP3   OH276194   3.608   0.136  15.836 -0.0542  0.5861 -0.0191
18260TIP3    H176195   3.659   0.096  15.906  1.5970 -0.6248 -1.8100
18260TIP3    H276196   3.573   0.061  15.787  0.7590  1.3139 -1.7942
18261TIP3   OH276197   0.383   4.245  11.432 -0.1379  0.1994 -0.1192
18261TIP3    H176198   0.328   4.206  11.364 -2.0239  1.0837  0.8229
18261TIP3    H276199   0.326   4.309  11.475  2.1276  2.4210 -0.1694
18262TIP3   OH276200   4.766   3.201  15.425 -0.6234  0.7557 -0.4377
18262TIP3    H176201   4.677   3.189  15.458 -0.3073  2.1900  1.1176
18262TIP3    H276202   4.803   3.112  15.422 -2.4238 -0.0043 -2.2524
18263TIP3   OH276203   3.385   5.534   5.233  0.4714  1.0602  0.2347
18263TIP3    H176204   3.358   5.625   5.249  0.3752  1.0132  0.3422
18263TIP3    H276205   3.345   5.511   5.149  0.2481  1.0195  0.3519
18264TIP3   OH276206   6.794   1.946   0.950 -0.3563 -0.0553 -0.4450
18264TIP3    H176207   6.837   1.925   0.867  0.8696 -1.2060  0.4458
18264TIP3    H276208   6.833   2.029   0.976 -0.3096  0.0147 -0.7280
18265TIP3   OH276209   4.534   3.984  13.362 -0.3112  0.1413 -0.0990
18265TIP3    H176210   4.608   3.958  13.308  0.8285  1.6864  0.6608
18265TIP3    H276211   4.546   3.936  13.445  0.8023  1.6422  0.6417
18266TIP3   OH276212   5.946   0.951  13.680 -0.2743  0.3087 -0.6095
18266TIP3    H176213   5.927   1.025  13.623 -0.0899  1.2563  0.5326
18266TIP3    H276214   6.009   0.898  13.630  0.1065  1.2627 -1.1570
18267TIP3   OH276215   4.288   1.138   2.013 -0.5178 -0.4519  0.1461
18267TIP3    H176216   4.266   1.218   2.062 -1.3242 -0.2907 -0.4473
18267TIP3    H276217   4.319   1.170   1.928 -4.2424 -0.7125 -1.5204
18268TIP3   OH276218   6.425   0.522  11.548  0.8544 -0.2304  0.0521
18268TIP3    H176219   6.353   0.471  11.585 -0.2760  0.0786 -1.5691
18268TIP3    H276220   6.487   0.457  11.516  0.5476 -0.5363  0.0684
18269TIP3   OH276221   1.734   4.488   4.296 -0.3859 -0.0069  0.1988
18269TIP3    H176222   1.691   4.481   4.211  0.5247  2.0487 -0.5011
18269TIP3    H276223   1.827   4.492   4.276 -0.0040 -1.5320  1.4788
18270TIP3   OH276224   4.587   4.662   0.739 -0.0765  0.1687  0.1796
18270TIP3    H176225   4.673   4.666   0.782  0.4088 -2.0313 -0.4265
18270TIP3    H276226   4.530   4.715   0.794  1.3720  0.5572  1.3789
18271TIP3   OH276227   3.237   0.304  11.927  0.1014 -0.3265 -0.2779
18271TIP3    H176228   3.210   0.381  11.978 -0.2159 -1.4156  1.2949
18271TIP3    H276229   3.333   0.311  11.923 -0.0485  1.7269 -2.8691
18272TIP3   OH276230   0.391   0.500   3.240  0.1535 -0.5672 -0.1447
18272TIP3    H176231   0.460   0.557   3.209  0.4856 -0.3436  0.9589
18272TIP3    H276232   0.436   0.433   3.292 -0.4692 -0.1172  1.0267
18273TIP3   OH276233   2.880   5.608  16.731 -0.3438 -0.1106  0.2841
18273TIP3    H176234   2.830   5.527  16.740 -0.7228  0.1017  0.1133
18273TIP3    H276235   2.919   5.603  16.644 -2.5121  1.0544 -0.8614
18274TIP3   OH276236   2.850   2.871   4.501 -0.1518  0.0034  0.6220
18274TIP3    H176237   2.847   2.913   4.415 -0.8347  0.7040  0.9733
18274TIP3    H276238   2.867   2.779   4.483  0.9522  0.3494 -0.2006
18275TIP3   OH276239   5.015   6.312  15.400 -0.2048  0.2455 -0.3315
18275TIP3    H176240   4.926   6.280  15.411  0.0716 -0.5486 -0.2973
18275TIP3    H276241   5.041   6.281  15.313  0.4988 -0.7282  0.1964
18276TIP3   OH276242   2.110   2.304  15.567  0.2622 -0.2235  0.3093
18276TIP3    H176243   2.168   2.233  15.595 -0.3006 -0.0811  1.9287
18276TIP3    H276244   2.145   2.331  15.482  0.2802 -2.6744 -0.5595
18277TIP3   OH276245   2.077   4.472  10.931 -0.1947  0.2374 -0.9942
18277TIP3    H176246   2.163   4.465  10.972 -1.5500  1.2003  2.3764
18277TIP3    H276247   2.056   4.383  10.904  0.4700 -0.7023  1.3411
18278TIP3   OH276248   1.153   4.579  15.527 -0.1225 -0.1072  0.0051
18278TIP3    H176249   1.227   4.631  15.493  1.0441 -1.8043 -0.1948
18278TIP3    H276250   1.135   4.516  15.457 -1.0341 -0.4194  0.5180
18279TIP3   OH276251   6.578   3.765   5.975  0.5261 -0.3047  0.3481
18279TIP3    H176252   6.590   3.745   6.067 -1.6070 -0.5688  0.6297
18279TIP3    H276253   6.661   3.742   5.934  1.4159 -0.4468  2.1507
18280TIP3   OH276254   3.122   5.332   2.483 -0.4079 -0.0020 -0.3865
18280TIP3    H176255   3.155   5.419   2.507  0.7598 -0.1669 -1.2810
18280TIP3    H276256   3.156   5.317   2.395 -1.1890 -1.0799 -0.5274
18281TIP3   OH276257   2.484   4.759   3.166 -0.4622  0.2975  0.0579
18281TIP3    H176258   2.485   4.762   3.261  0.1571 -0.0323  0.0631
18281TIP3    H276259   2.535   4.682   3.143 -0.8243  0.2219 -0.5367
18282TIP3   OH276260   0.549   0.040  15.919 -0.1128 -0.0577  0.0007
18282TIP3    H176261   0.600   0.114  15.885  0.6637 -2.2805 -4.3469
18282TIP3    H276262   0.458   0.063  15.900  0.2042 -0.5748 -2.3557
18283TIP3   OH276263   2.131   5.232  13.939 -0.4215 -0.1123  0.0992
18283TIP3    H176264   2.156   5.192  14.022 -0.8429 -1.7346 -0.5262
18283TIP3    H276265   2.188   5.191  13.874  1.8004  3.0593 -0.1732
18284TIP3   OH276266   6.291   0.255  12.919 -0.0288  0.1812 -1.1192
18284TIP3    H176267   6.269   0.343  12.891 -0.7909  0.2288 -0.4076
18284TIP3    H276268   6.206   0.212  12.932  0.3077 -0.1518  0.0768
18285TIP3   OH276269   0.575   6.367  11.074  0.1972 -0.3419 -0.3432
18285TIP3    H176270   0.501   6.307  11.075  0.4839 -0.7034 -0.5988
18285TIP3    H276271   0.537   6.452  11.096 -0.3391 -0.4688 -0.7593
18286TIP3   OH276272   6.098   3.657  13.216  0.5095  0.1680 -0.1740
18286TIP3    H176273   6.100   3.583  13.155  0.9226  1.5056 -1.8717
18286TIP3    H276274   6.130   3.621  13.298  1.5553 -1.3568 -1.1858
18287TIP3   OH276275   3.565   4.095  11.163  0.7830  0.1204 -0.2897
18287TIP3    H176276   3.613   4.175  11.143 -0.1315  0.7008 -0.2769
18287TIP3    H276277   3.554   4.051  11.079  0.7555  0.3287 -0.3965
18288TIP3   OH276278   3.467   2.698  16.782 -0.0652 -0.0394 -0.0625
18288TIP3    H176279   3.392   2.640  16.766 -0.2186  0.3158 -0.6672
18288TIP3    H276280   3.436   2.759  16.850 -0.0736 -0.3463  0.2107
18289TIP3   OH276281   3.575   3.679  11.722  0.1697  0.1606  0.0754
18289TIP3    H176282   3.550   3.752  11.666  1.3134 -0.3759 -1.1989
18289TIP3    H276283   3.495   3.655  11.768 -0.6813  0.9396 -0.9515
18290TIP3   OH276284   1.309   0.614   0.912  0.8307 -0.9899 -0.3194
18290TIP3    H176285   1.374   0.624   0.981 -0.0331  1.2471  0.2738
18290TIP3    H276286   1.359   0.620   0.830  1.3654  1.8934  0.1070
18291TIP3   OH276287   6.562   2.747  16.518 -0.6805  0.2533  0.1934
18291TIP3    H176288   6.569   2.836  16.553 -1.5094  0.2160  0.4580
18291TIP3    H276289   6.494   2.705  16.570 -1.5664  0.0313 -1.1050
18292TIP3   OH276290   2.055   1.438   6.682 -0.2555  0.2159  0.1246
18292TIP3    H176291   2.017   1.474   6.601  2.3680 -0.9396 -1.7664
18292TIP3    H276292   2.035   1.345   6.678 -0.5786  0.2340  1.1367
18293TIP3   OH276293   0.304   0.098   1.409 -0.3924 -0.2107  0.1808
18293TIP3    H176294   0.393   0.108   1.443 -0.6740 -0.0573  0.8882
18293TIP3    H276295   0.290   0.003   1.405  0.1061 -0.2544 -0.7569
18294TIP3   OH276296   2.571   5.873  14.809  0.6316  0.6512  0.3686
18294TIP3    H176297   2.640   5.883  14.875  0.6535  1.8821  0.1874
18294TIP3    H276298   2.490   5.896  14.854  0.3669 -0.4875  0.4961
18295TIP3   OH276299   5.374   5.485   0.374 -0.1942  0.3529 -0.4869
18295TIP3    H176300   5.392   5.478   0.280 -0.2223  1.7285 -0.6022
18295TIP3    H276301   5.365   5.578   0.390 -1.4150  0.0559  0.6726
18296TIP3   OH276302   2.766   4.953  10.462  0.1396  0.4206  0.2941
18296TIP3    H176303   2.757   4.880  10.400 -1.1458  2.1370 -1.6647
18296TIP3    H276304   2.696   4.938  10.526 -0.6405  0.3288 -0.5534
18297TIP3   OH276305   6.040   2.611  13.354  0.3179 -0.6535  0.0531
18297TIP3    H176306   6.057   2.703  13.374  0.0955 -0.4646 -0.6050
18297TIP3    H276307   5.989   2.613  13.273  2.2524 -1.4222 -1.2674
18298TIP3   OH276308   0.028   2.016   1.342  0.1705  0.1414 -0.1973
18298TIP3    H176309   0.014   2.110   1.331  0.5548  0.3539  1.0255
18298TIP3    H276310  -0.047   1.976   1.298 -1.3562  1.1137  1.3925
18299TIP3   OH276311   2.787   2.722  15.872 -0.3033  0.1129  0.2527
18299TIP3    H176312   2.838   2.743  15.950  0.6995  0.9701 -0.6063
18299TIP3    H276313   2.696   2.729  15.900  0.0470  0.4427  1.3303
18300TIP3   OH276314   2.400   5.531   0.057  0.2370  0.5198  0.7371
18300TIP3    H176315   2.479   5.497   0.014 -0.4667  0.5413 -0.6166
18300TIP3    H276316   2.399   5.624   0.035 -0.0666  0.5597  0.9205
18301TIP3   OH276317   6.166   0.850  13.972  0.4709 -0.3673 -0.6642
18301TIP3    H176318   6.083   0.853  14.020  0.1095  0.5541 -1.3080
18301TIP3    H276319   6.227   0.900  14.026 -0.1143  1.2715 -1.4371
18302TIP3   OH276320   6.615   2.680  12.934 -0.1359 -0.8411 -0.2002
18302TIP3    H176321   6.555   2.737  12.983  0.1342  0.2980 -1.1588
18302TIP3    H276322   6.628   2.604  12.992 -0.1613  0.2460  1.2987
18303TIP3   OH276323   4.164   3.037  12.062  0.2723  0.5697 -0.0930
18303TIP3    H176324   4.147   3.129  12.082  1.2714  0.5816  0.8071
18303TIP3    H276325   4.105   2.989  12.121 -1.6554  0.5848 -1.8812
18304TIP3   OH276326   6.389   4.906   5.470 -0.1449 -0.4928  0.2711
18304TIP3    H176327   6.436   4.989   5.478 -0.9468  0.0502 -0.4763
18304TIP3    H276328   6.347   4.910   5.385  0.1421 -1.8599  0.0400
18305TIP3   OH276329   0.147   6.178  16.833 -0.3722 -0.0655  0.4969
18305TIP3    H176330   0.144   6.152  16.741  0.9211 -0.0092  0.4093
18305TIP3    H276331   0.056   6.196  16.856 -0.7008  0.1017 -0.8186
18306TIP3   OH276332   4.861   1.830   0.695  0.0288 -0.1913 -0.1975
18306TIP3    H176333   4.839   1.758   0.755 -1.7048  1.4968  1.3424
18306TIP3    H276334   4.934   1.875   0.738 -1.1571  0.9675  0.6686
18307TIP3   OH276335   1.613   1.631   4.642  0.1555  0.3241  0.3220
18307TIP3    H176336   1.519   1.644   4.650 -0.1200  0.2475 -2.1429
18307TIP3    H276337   1.623   1.559   4.580  1.8370  0.3199  0.5478
18308TIP3   OH276338   4.852   3.580  14.798  1.1264  0.1694 -0.0096
18308TIP3    H176339   4.903   3.660  14.806  0.0252  0.8291  0.6759
18308TIP3    H276340   4.840   3.551  14.889 -2.7775  2.0483  0.2408
18309TIP3   OH276341   3.466   2.555  11.445  0.2168  0.0255 -0.1466
18309TIP3    H176342   3.440   2.632  11.396  1.4146 -0.0165 -0.8990
18309TIP3    H276343   3.385   2.519  11.480 -0.2089  2.6176  1.7506
18310TIP3   OH276344   1.338   6.011  16.593 -0.4446 -0.5459  0.0533
18310TIP3    H176345   1.248   6.026  16.563 -0.6256  1.8703  1.5510
18310TIP3    H276346   1.330   5.996  16.687  0.8235  2.5915  0.7968
18311TIP3   OH276347   0.725   0.077   0.659  0.0779 -0.2674  0.0210
18311TIP3    H176348   0.782   0.134   0.710  1.3166 -1.1539 -0.3217
18311TIP3    H276349   0.742  -0.011   0.694  0.3625 -0.7894 -1.3601
18312TIP3   OH276350   3.737   3.558   2.838  0.3158 -0.7102 -0.2805
18312TIP3    H176351   3.699   3.636   2.799  1.0719 -0.0436  0.2775
18312TIP3    H276352   3.674   3.488   2.820 -1.6707  0.5322  1.4173
18313TIP3   OH276353   0.059   0.241   1.273  0.5710 -0.3585 -0.1314
18313TIP3    H176354   0.140   0.194   1.253  1.2892  0.8765 -0.2274
18313TIP3    H276355  -0.011   0.180   1.249  1.4447 -0.8476 -1.5729
18314TIP3   OH276356   4.594   2.372   5.286 -0.6538  0.2322 -0.4211
18314TIP3    H176357   4.546   2.333   5.214 -1.5616  0.9320 -0.2196
18314TIP3    H276358   4.576   2.315   5.361 -0.5997  0.1068 -0.5043
18315TIP3   OH276359   1.444   2.460   1.786  0.2038  0.7707  0.2742
18315TIP3    H176360   1.409   2.483   1.872  2.6574 -0.0116  1.5770
18315TIP3    H276361   1.529   2.505   1.782 -0.7352  2.5467 -2.6816
18316TIP3   OH276362   5.539   6.279   2.712 -0.4382  0.1563 -0.0033
18316TIP3    H176363   5.601   6.351   2.727  0.9832 -1.0909  0.4045
18316TIP3    H276364   5.517   6.285   2.619  0.4608  0.5210 -0.2031
18317TIP3   OH276365   0.973   3.958   5.997  0.2572  0.2698 -0.0936
18317TIP3    H176366   0.942   4.008   6.072  0.0196 -1.1412  0.7827
18317TIP3    H276367   1.049   3.911   6.030  0.8443  0.4996 -1.0732
18318TIP3   OH276368   2.004   6.108  11.354 -0.5955  0.0041 -0.2645
18318TIP3    H176369   2.017   6.151  11.439  1.9317  1.7750 -1.4224
18318TIP3    H276370   1.951   6.170  11.304  0.3182  0.3120 -0.8749
18319TIP3   OH276371   3.348   6.544  13.968 -0.1883  0.9014  0.3709
18319TIP3    H176372   3.350   6.616  14.031 -0.3375  2.0470 -0.8864
18319TIP3    H276373   3.265   6.500  13.984  0.0999  0.7185  1.4423
18320TIP3   OH276374   3.056   0.049   4.979  0.4503  0.0223 -0.2237
18320TIP3    H176375   3.072   0.130   5.027  1.1498  0.1869 -0.7134
18320TIP3    H276376   3.106  -0.017   5.026  2.0789  0.3994 -1.3393
18321TIP3   OH276377   1.610   2.993  15.165 -0.0905 -0.5784  0.0176
18321TIP3    H176378   1.558   3.018  15.089  1.1997 -1.2992 -1.1444
18321TIP3    H276379   1.687   3.049  15.162 -0.6054  0.2758  1.5507
18322TIP3   OH276380   6.075   3.561   3.453 -0.3091 -0.7277  0.4555
18322TIP3    H176381   6.144   3.591   3.394 -2.2883  0.0368 -1.6209
18322TIP3    H276382   6.072   3.466   3.439  0.9595 -0.9218  1.3481
18323TIP3   OH276383   0.257   3.498   2.631  0.2016  0.2287 -0.1740
18323TIP3    H176384   0.275   3.587   2.662 -0.6359 -0.0391  1.1840
18323TIP3    H276385   0.281   3.499   2.538  2.3485  1.2254  0.3375
18324TIP3   OH276386   5.337   1.910   6.602 -0.0177  0.0885 -1.2421
18324TIP3    H176387   5.262   1.899   6.661 -0.2073  0.7573 -1.3567
18324TIP3    H276388   5.318   1.850   6.530 -1.4485  1.6767 -2.2524
18325TIP3   OH276389   0.235   5.117   3.609 -0.1205 -0.4681 -0.2431
18325TIP3    H176390   0.160   5.059   3.599  0.4117 -1.1002 -0.6442
18325TIP3    H276391   0.299   5.066   3.659  0.5289 -0.4024 -0.9878
18326TIP3   OH276392   6.722   0.602   1.493  0.0612  0.0010  0.2283
18326TIP3    H176393   6.789   0.661   1.528 -0.8919  1.3173 -0.0849
18326TIP3    H276394   6.755   0.578   1.406  2.1707 -2.8465  1.6519
18327TIP3   OH276395   1.351   5.717  10.970 -0.1868 -0.1267 -0.2488
18327TIP3    H176396   1.274   5.695  11.023  1.3939 -0.4330  2.0456
18327TIP3    H276397   1.334   5.806  10.939 -1.5521 -0.2761  0.0003
18328TIP3   OH276398   2.369   4.286  15.365 -0.3121  0.3292 -0.3734
18328TIP3    H176399   2.331   4.341  15.296 -0.2914  1.0922  0.2022
18328TIP3    H276400   2.439   4.238  15.322  0.0285  1.1648 -0.7759
18329TIP3   OH276401   0.708   1.130  11.818  0.3597  0.0419  0.0662
18329TIP3    H176402   0.702   1.226  11.810  1.6403  0.1746  0.4487
18329TIP3    H276403   0.619   1.103  11.842  0.2068  1.2560  1.0288
18330TIP3   OH276404   6.486   1.356   1.776  0.5537  0.1703 -0.8501
18330TIP3    H176405   6.544   1.286   1.810 -0.0261  0.0525 -0.0708
18330TIP3    H276406   6.506   1.432   1.831 -2.0604 -0.6480  1.4716
18331TIP3   OH276407   3.087   3.288   4.274  0.5251  0.1160  0.7583
18331TIP3    H176408   3.001   3.258   4.305  0.5468  0.6538  1.3583
18331TIP3    H276409   3.142   3.210   4.277  0.0605 -0.2321  0.3781
18332TIP3   OH276410   1.785   1.578   4.843 -0.0005  0.3019  0.2473
18332TIP3    H176411   1.717   1.617   4.787 -1.0831  0.8601  1.8602
18332TIP3    H276412   1.820   1.506   4.791 -2.2513 -0.3964 -0.4490
18333TIP3   OH276413   6.164   2.341  15.090 -0.3844  0.1450  0.3319
18333TIP3    H176414   6.101   2.382  15.032 -0.7048  0.1120  0.6556
18333TIP3    H276415   6.239   2.401  15.091  0.2337 -0.5479 -1.2455
18334TIP3   OH276416   1.927   2.312   4.593  0.1355 -0.4201 -0.4196
18334TIP3    H176417   1.870   2.258   4.538  0.2409  0.3126 -1.2867
18334TIP3    H276418   1.872   2.383   4.623 -0.0696 -1.1220  0.9336
18335TIP3   OH276419   0.951   0.358  13.182 -0.4584  0.2334 -0.7335
18335TIP3    H176420   1.025   0.330  13.236 -0.5087  0.9520 -0.2787
18335TIP3    H276421   0.915   0.433  13.228 -0.2063  1.1716 -2.0147
18336TIP3   OH276422   4.532   6.091   5.556  0.5378  0.3464  0.5042
18336TIP3    H176423   4.615   6.139   5.566 -0.6296  2.4211  0.7961
18336TIP3    H276424   4.523   6.079   5.461  1.7847 -1.1203  0.5297
18337TIP3   OH276425   2.582   4.266   2.399  0.1493  0.1892 -0.6777
18337TIP3    H176426   2.606   4.184   2.441  1.6889  0.8192 -0.2487
18337TIP3    H276427   2.609   4.255   2.308  0.1467  0.1389 -0.6725
18338TIP3   OH276428   5.012   4.079  14.769  0.2043  0.0032  0.4509
18338TIP3    H176429   5.106   4.092  14.761 -0.1810  2.3309 -1.4107
18338TIP3    H276430   4.979   4.089  14.680 -1.8009 -1.1955  0.9888
18339TIP3   OH276431   6.593   1.582   1.126  0.0003  0.2496 -0.1304
18339TIP3    H176432   6.569   1.509   1.069  0.1054 -1.0145  1.3692
18339TIP3    H276433   6.546   1.657   1.090 -0.4284 -0.6330 -1.4907
18340TIP3   OH276434   5.601   0.674  14.030  0.9546  0.5622  0.0357
18340TIP3    H176435   5.684   0.692  13.986  1.6836  0.4061  1.3191
18340TIP3    H276436   5.615   0.591  14.075 -0.6514 -0.6528 -1.5237
18341TIP3   OH276437   1.642   3.503  12.703 -0.0473  0.1024  0.3039
18341TIP3    H176438   1.587   3.494  12.780  2.0820  0.8914  2.0377
18341TIP3    H276439   1.674   3.593  12.707 -0.1006  0.2514 -1.6817
18342TIP3   OH276440   5.433   2.233  13.281  0.0588 -0.1113 -0.1775
18342TIP3    H176441   5.480   2.316  13.290 -0.3876  0.0460  0.8735
18342TIP3    H276442   5.345   2.252  13.314 -0.9997 -0.2159 -2.7337
18343TIP3   OH276443   1.809   2.442  16.107 -0.6080 -0.4889 -0.3288
18343TIP3    H176444   1.857   2.373  16.061 -0.3420 -0.1996 -0.4871
18343TIP3    H276445   1.725   2.447  16.061  0.1087  0.6366 -1.5869
18344TIP3   OH276446   4.116   1.697  14.186  0.2260  0.1296  0.0477
18344TIP3    H176447   4.159   1.612  14.176  1.0392  0.1846  2.3896
18344TIP3    H276448   4.175   1.746  14.244 -0.7888  1.8897 -0.3538
18345TIP3   OH276449   6.380   6.379   3.779 -0.0640  0.4475 -0.2534
18345TIP3    H176450   6.334   6.328   3.712 -0.3564 -0.5081  0.6596
18345TIP3    H276451   6.451   6.422   3.730  1.4768 -2.4115 -0.7911
18346TIP3   OH276452   6.430   0.135   3.494  0.5850 -0.0300 -0.1582
18346TIP3    H176453   6.467   0.109   3.410  1.0332  2.4393 -0.8174
18346TIP3    H276454   6.504   0.134   3.555  0.9184  1.0260 -0.5258
18347TIP3   OH276455   0.368   4.869  16.354  0.4949 -0.0685 -0.2695
18347TIP3    H176456   0.328   4.906  16.432  1.8865 -0.0570  0.4656
18347TIP3    H276457   0.452   4.913  16.346  0.7899 -0.7496 -1.2319
18348TIP3   OH276458   1.171   5.982   1.872 -0.1719 -0.4115 -0.4331
18348TIP3    H176459   1.104   6.005   1.937  0.7037  0.8792  0.0402
18348TIP3    H276460   1.237   5.933   1.921  0.6939  0.9173 -0.2277
18349TIP3   OH276461   0.108   0.624   2.269 -0.6671 -0.2845  0.1977
18349TIP3    H176462   0.046   0.619   2.196 -0.3823 -1.6388  0.0202
18349TIP3    H276463   0.116   0.717   2.287 -0.7752  0.0910 -1.4943
18350TIP3   OH276464   3.785   5.639   4.292  0.2518  0.1535  0.0206
18350TIP3    H176465   3.819   5.729   4.289 -0.0122  0.2275 -1.2380
18350TIP3    H276466   3.847   5.589   4.239 -0.1673 -0.2078 -0.1279
18351TIP3   OH276467   1.003   2.528  15.979  0.1008  0.5079  0.3698
18351TIP3    H176468   0.987   2.479  15.899  0.2293  0.1966  0.5328
18351TIP3    H276469   1.026   2.461  16.044  0.9787  0.8431  0.4151
18352TIP3   OH276470   0.684   2.390   3.239  0.3549  0.8066  0.0938
18352TIP3    H176471   0.772   2.429   3.241 -0.7114  3.4313 -0.2267
18352TIP3    H276472   0.653   2.405   3.150  0.2714 -1.9229 -0.4166
18353TIP3   OH276473   0.452   4.192  14.342 -0.0589  0.0117  0.6870
18353TIP3    H176474   0.543   4.169  14.362  0.2585  0.9054  0.3578
18353TIP3    H276475   0.459   4.266  14.281 -1.0037  0.8203  1.5134
18354TIP3   OH276476   2.822   2.097  13.094  0.1819  0.0859 -0.4381
18354TIP3    H176477   2.837   2.112  13.188 -1.9138  1.3924 -0.2605
18354TIP3    H276478   2.732   2.067  13.089  0.6625 -1.2128 -1.9643
18355TIP3   OH276479   0.214   4.602  12.336 -0.2365  0.1065 -0.2646
18355TIP3    H176480   0.284   4.665  12.317 -0.7964  0.0472 -3.0182
18355TIP3    H276481   0.252   4.517  12.313 -1.0272  0.0235 -1.3123
18356TIP3   OH276482   0.471   5.829  16.520 -0.0646  0.4922 -0.3143
18356TIP3    H176483   0.565   5.813  16.528  0.2572  1.9197 -0.8758
18356TIP3    H276484   0.465   5.909  16.466 -1.5514  1.1949  0.8197
18357TIP3   OH276485   1.888   4.444  10.482  0.3343 -0.1564 -0.4035
18357TIP3    H176486   1.811   4.468  10.430  0.6264  0.3845 -0.6003
18357TIP3    H276487   1.944   4.522  10.479  0.3630 -0.1091  0.7167
18358TIP3   OH276488   0.427   2.759  13.298  0.2795  0.0894 -0.1763
18358TIP3    H176489   0.425   2.668  13.266 -0.8945 -0.8167  2.2123
18358TIP3    H276490   0.342   2.771  13.341  1.5987  1.2034  2.3490
18359TIP3   OH276491   0.443   5.339   5.124 -0.2171 -0.4760  0.3317
18359TIP3    H176492   0.428   5.277   5.196 -0.4424 -0.6679  0.1250
18359TIP3    H276493   0.489   5.413   5.164 -0.3447 -0.5800  0.6719
18360TIP3   OH276494   1.463   2.968   2.129  0.4406 -0.4102  0.2505
18360TIP3    H176495   1.544   2.930   2.097  0.9783  0.8767  0.0223
18360TIP3    H276496   1.471   3.062   2.110  0.6937  0.4726  3.8874
18361TIP3   OH276497   2.598   3.239  13.761  0.0442 -0.3688 -0.4853
18361TIP3    H176498   2.530   3.273  13.702  0.2060  1.2038  0.1915
18361TIP3    H276499   2.670   3.301  13.752  0.5148 -0.7604  0.5045
18362TIP3   OH276500   5.651   0.284  12.565  0.0353 -0.5165  0.5478
18362TIP3    H176501   5.723   0.256  12.621 -0.2344 -0.8054  0.7532
18362TIP3    H276502   5.687   0.280  12.476  1.2824  2.3595  0.8207
18363TIP3   OH276503   2.699   2.171  12.345 -0.7352  0.7158  0.4939
18363TIP3    H176504   2.720   2.180  12.438 -1.2992  2.0266  0.5220
18363TIP3    H276505   2.724   2.082  12.323 -0.7934  0.3139  1.9577
18364TIP3   OH276506   5.115   4.927  14.613  0.2025 -0.0896  0.1205
18364TIP3    H176507   5.102   4.835  14.637  0.8142 -0.4547 -0.9162
18364TIP3    H276508   5.209   4.936  14.601  0.1153  0.6139 -0.0633
18365TIP3   OH276509   6.073   5.620  14.829  0.0894 -0.3438  0.4115
18365TIP3    H176510   5.999   5.578  14.873  0.5782 -0.7008  0.9141
18365TIP3    H276511   6.143   5.555  14.834  1.4911  1.1880  2.9362
18366TIP3   OH276512   1.992   1.509  16.816 -0.2913 -0.1622 -0.1178
18366TIP3    H176513   1.995   1.414  16.830 -1.0951 -0.2806 -0.6650
18366TIP3    H276514   2.067   1.543  16.865 -0.9031 -0.9255  1.4298
18367TIP3   OH276515   3.530   5.886   2.724  0.4323  0.0115 -0.5199
18367TIP3    H176516   3.582   5.960   2.691  0.3744 -0.1492 -0.9741
18367TIP3    H276517   3.480   5.856   2.648 -1.3680  1.0297  0.2022
18368TIP3   OH276518   6.725   0.471  12.366 -0.2525 -0.4959  0.2963
18368TIP3    H176519   6.695   0.561  12.379  0.8163 -0.3355  1.9476
18368TIP3    H276520   6.781   0.475  12.289  1.1172  0.6331  1.2952
18369TIP3   OH276521   4.710   3.539   4.601  0.2186 -0.3412 -0.2454
18369TIP3    H176522   4.766   3.563   4.527 -0.0191 -0.1921 -0.3757
18369TIP3    H276523   4.739   3.596   4.672  1.0724 -1.1112  0.0493
18370TIP3   OH276524   0.347   3.180   1.297  0.0843 -0.5952 -0.5306
18370TIP3    H176525   0.407   3.254   1.305  0.5539 -1.0911  0.6435
18370TIP3    H276526   0.295   3.182   1.377 -0.1514 -1.3222 -0.6575
18371TIP3   OH276527   0.753   3.354   1.518  0.2094  0.0661 -0.5776
18371TIP3    H176528   0.758   3.439   1.474 -0.3818 -0.3177 -1.4177
18371TIP3    H276529   0.834   3.348   1.569 -0.4844  1.8232  0.8033
18372TIP3   OH276530   5.316   2.391  12.232 -0.0943 -0.2025  0.2271
18372TIP3    H176531   5.329   2.384  12.137  0.9536 -1.7866  0.4378
18372TIP3    H276532   5.386   2.336  12.269 -2.7009 -2.7158  1.7884
18373TIP3   OH276533   3.349   1.735   5.380 -0.2855  0.1757 -0.3296
18373TIP3    H176534   3.329   1.828   5.387  0.2941  0.2162  1.0311
18373TIP3    H276535   3.444   1.731   5.372 -0.2985 -0.3062 -0.2573
18374TIP3   OH276536   4.698   4.245  11.640  0.1145  0.4967  0.4097
18374TIP3    H176537   4.721   4.319  11.695  0.2818  0.0886  0.8922
18374TIP3    H276538   4.603   4.239  11.646 -0.2489  2.3589 -1.8027
18375TIP3   OH276539   3.127   3.852   5.133 -0.1358 -0.2618 -0.2487
18375TIP3    H176540   3.112   3.758   5.136 -2.8187  0.1094  0.5560
18375TIP3    H276541   3.113   3.876   5.041  0.5953 -0.6178 -0.4623
18376TIP3   OH276542   4.195   5.853  15.208  0.5015 -0.0594  0.1639
18376TIP3    H176543   4.113   5.809  15.184  0.1523  1.8083 -2.6240
18376TIP3    H276544   4.263   5.800  15.168  0.4490 -0.2972  0.3880
18377TIP3   OH276545   3.509   6.017   0.247 -0.5655  0.2428  0.2303
18377TIP3    H176546   3.466   5.968   0.318 -1.3161  1.7315  0.8387
18377TIP3    H276547   3.444   6.018   0.177  0.4037 -1.7695 -0.8060
18378TIP3   OH276548   3.975   1.443   2.190  0.2341  0.7384 -0.4972
18378TIP3    H176549   3.892   1.396   2.188 -0.1292  1.3641 -0.4412
18378TIP3    H276550   3.979   1.483   2.277  1.0757 -0.1241 -0.1276
18379TIP3   OH276551   1.898   3.202   0.437 -0.0785  0.5449 -0.1425
18379TIP3    H176552   1.960   3.249   0.493 -0.9308  2.4105 -0.7013
18379TIP3    H276553   1.904   3.246   0.353 -3.0013  1.6014  0.1076
18380TIP3   OH276554   3.491   2.765  12.073 -0.2404 -0.3864 -0.1699
18380TIP3    H176555   3.529   2.802  12.153  1.6178  1.8306 -1.9340
18380TIP3    H276556   3.414   2.819  12.056 -0.1631 -0.3172 -0.3035
18381TIP3   OH276557   5.826   0.006  14.723 -0.3128 -0.5936  0.6634
18381TIP3    H176558   5.900   0.039  14.671 -0.9709  1.1680  0.8019
18381TIP3    H276559   5.830  -0.089  14.711  1.9469 -0.5569  0.6411
18382TIP3   OH276560   3.744   3.889  12.313  0.0591 -0.0346 -0.2927
18382TIP3    H176561   3.754   3.886  12.217  0.3816 -1.0399 -0.2370
18382TIP3    H276562   3.825   3.852  12.347 -0.4529 -0.5972  0.3489
18383TIP3   OH276563   2.341   5.967  14.898  0.0696 -0.0324 -0.4715
18383TIP3    H176564   2.350   6.048  14.948 -0.8600  0.4352 -1.0335
18383TIP3    H276565   2.248   5.948  14.900 -0.0816  0.2604 -2.4078
18384TIP3   OH276566   4.119   2.004  16.843  0.1388 -0.4506 -0.6114
18384TIP3    H176567   4.160   2.052  16.915 -0.1945 -0.7358 -0.2198
18384TIP3    H276568   4.191   1.981  16.785  0.1155  1.8765 -1.6351
18385TIP3   OH276569   6.345   4.993  12.154  0.0009 -0.5689  0.6228
18385TIP3    H176570   6.259   5.028  12.130  1.2555  1.0003 -1.9411
18385TIP3    H276571   6.399   5.069  12.171  1.2893 -1.4822  0.7788
18386TIP3   OH276572   3.347   6.234  16.479  0.1511  0.3965 -0.2515
18386TIP3    H176573   3.368   6.311  16.426 -0.5149  0.6680 -0.1260
18386TIP3    H276574   3.312   6.269  16.561  1.4611 -0.0223  0.5043
18387TIP3   OH276575   0.080   3.998  12.177  0.1228 -0.4033  0.1460
18387TIP3    H176576   0.161   4.006  12.227 -0.9611  0.4265  1.8613
18387TIP3    H276577   0.095   3.922  12.120  1.9009 -0.5886  0.7931
18388TIP3   OH276578   4.106   2.983  12.485 -0.8924  0.2257 -0.6437
18388TIP3    H176579   4.119   3.074  12.512 -0.1558 -0.1888  0.4807
18388TIP3    H276580   4.188   2.939  12.510 -2.2600 -1.3251  1.4482
18389TIP3   OH276581   2.146   0.931  11.772 -0.2187  0.3694  0.2523
18389TIP3    H176582   2.138   0.922  11.867  1.6298 -2.7543  0.2423
18389TIP3    H276583   2.195   1.012  11.759 -2.8158  2.3055  1.7307
18390TIP3   OH276584   1.953   2.974  12.716 -0.3009  0.2307  0.1093
18390TIP3    H176585   2.008   3.024  12.777  0.9517  0.8266 -1.4194
18390TIP3    H276586   1.962   2.883  12.744 -1.8539  0.6976  2.3637
18391TIP3   OH276587   6.341   6.426   1.592 -0.2351  0.2438 -0.0667
18391TIP3    H176588   6.341   6.356   1.657 -0.0993  0.1367 -0.1834
18391TIP3    H276589   6.266   6.406   1.536  1.1949 -1.1535 -1.5591
18392TIP3   OH276590   4.476   6.007   2.506 -0.3186  0.3882 -0.0114
18392TIP3    H176591   4.522   5.948   2.447  1.3020  0.5237  1.0612
18392TIP3    H276592   4.433   6.070   2.448  1.8653  1.0070 -1.0811
18393TIP3   OH276593   6.389   5.276   0.489 -0.3261 -0.7738 -0.3064
18393TIP3    H176594   6.458   5.210   0.479  1.5723  1.1823 -0.8079
18393TIP3    H276595   6.360   5.294   0.399  0.5211  0.3911 -0.3714
18394TIP3   OH276596   4.139   4.753  12.725 -0.2657  0.0126  0.2963
18394TIP3    H176597   4.172   4.763  12.814 -0.3470 -1.3617  0.5072
18394TIP3    H276598   4.093   4.669  12.726 -2.0647  0.9390 -0.5137
18395TIP3   OH276599   3.501   0.089   2.476  0.4777 -0.3314 -0.1580
18395TIP3    H176600   3.459   0.169   2.443 -0.0793  0.2181  1.7223
18395TIP3    H276601   3.474   0.021   2.415  0.2021  0.7473 -1.2863
18396TIP3   OH276602   1.172   5.118  16.165  0.0265 -0.0312 -0.7103
18396TIP3    H176603   1.126   5.066  16.231  0.7055  0.9879  0.6160
18396TIP3    H276604   1.112   5.188  16.143  0.5973  0.8691  0.4691
18397TIP3   OH276605   3.615   4.099  16.305  0.3435  0.3343  0.0807
18397TIP3    H176606   3.675   4.040  16.350 -0.3022 -1.7463 -1.5817
18397TIP3    H276607   3.652   4.186  16.318  0.5161 -0.1537  3.9851
18398TIP3   OH276608   5.905   1.325   0.721 -0.2113 -0.2146  0.0481
18398TIP3    H176609   5.983   1.373   0.748  0.9962 -1.2637 -1.4054
18398TIP3    H276610   5.914   1.316   0.626 -1.1695 -1.9365  0.0802
18399TIP3   OH276611   5.167   1.100   1.970  1.0927 -0.2172 -0.3543
18399TIP3    H176612   5.138   1.112   2.060 -1.6174  0.6677 -1.2476
18399TIP3    H276613   5.159   1.186   1.929 -2.3848 -1.3702 -2.5669
18400TIP3   OH276614   0.787   5.202   4.836 -0.2735  0.1803 -0.2474
18400TIP3    H176615   0.751   5.290   4.828 -2.6717 -0.7374 -0.4533
18400TIP3    H276616   0.770   5.177   4.927 -0.9604 -0.6040 -0.5834
18401TIP3   OH276617   5.740   5.275  15.655 -0.8906 -0.2041  0.1392
18401TIP3    H176618   5.680   5.205  15.680 -2.3011  0.4128 -1.3288
18401TIP3    H276619   5.688   5.355  15.662 -0.2848  0.3438 -1.2204
18402TIP3   OH276620   5.021   0.524   4.386 -0.6852 -0.1732  0.1904
18402TIP3    H176621   4.978   0.500   4.468 -0.7444 -0.1372  0.1700
18402TIP3    H276622   5.113   0.538   4.409 -0.7381  0.0197  0.2839
18403TIP3   OH276623   0.960   3.613  16.479  0.1394 -0.1560 -0.0361
18403TIP3    H176624   0.979   3.690  16.533 -1.3246 -0.7506  1.4194
18403TIP3    H276625   0.867   3.623  16.456  1.0140  0.9207 -3.9551
18404TIP3   OH276626   6.199   2.748  15.801 -0.4872 -0.8209 -0.0336
18404TIP3    H176627   6.214   2.655  15.781  2.1657 -0.6933  0.9998
18404TIP3    H276628   6.225   2.758  15.892 -1.4610  0.8244  0.1036
18405TIP3   OH276629   5.066   0.724  11.695 -0.9168  0.7489  0.0034
18405TIP3    H176630   5.035   0.642  11.731  0.4624 -0.2723 -1.0328
18405TIP3    H276631   4.987   0.779  11.689 -1.7763 -0.3060  1.1237
18406TIP3   OH276632   6.736   4.712   5.276  0.6680  0.1159 -0.2646
18406TIP3    H176633   6.707   4.665   5.354  1.4522  0.3513  0.1848
18406TIP3    H276634   6.818   4.669   5.252 -0.6892 -1.4857 -2.3660
18407TIP3   OH276635   3.905   3.621  16.454  0.1354 -0.0373 -0.1685
18407TIP3    H176636   3.975   3.558  16.433  1.2860  0.6464  1.4259
18407TIP3    H276637   3.839   3.569  16.499  0.0312 -0.5167 -0.8549
18408TIP3   OH276638   5.972   3.256   2.162  0.2839 -0.6392 -0.3041
18408TIP3    H176639   5.940   3.184   2.216  0.7269 -1.0171 -0.5307
18408TIP3    H276640   6.064   3.233   2.144  0.2631 -0.3116 -0.8596
18409TIP3   OH276641   3.410   6.798   0.287 -0.0476 -0.1181 -0.3584
18409TIP3    H176642   3.461   6.781   0.365  0.0394 -0.7523 -0.5416
18409TIP3    H276643   3.357   6.875   0.308 -2.4809 -2.1067  1.5611
18410TIP3   OH276644   0.566   6.517   1.521 -0.4751 -0.2334  0.8080
18410TIP3    H176645   0.590   6.573   1.595  1.8343 -0.8493  0.6142
18410TIP3    H276646   0.553   6.430   1.559 -1.5647 -0.0906  0.7787
18411TIP3   OH276647   4.227   4.950  15.205  0.1410 -0.1129 -0.2929
18411TIP3    H176648   4.207   4.863  15.240  2.1501 -0.1340  0.9610
18411TIP3    H276649   4.229   4.937  15.110  0.4535 -1.4571 -0.1241
18412TIP3   OH276650   3.857   5.122  14.572  0.3330  0.0773 -0.0751
18412TIP3    H176651   3.942   5.094  14.538 -0.0479 -1.3359  0.0874
18412TIP3    H276652   3.795   5.100  14.503  0.0674  1.0132 -0.1508
18413TIP3   OH276653   0.119   3.130   5.627  0.4202  0.1323 -0.3523
18413TIP3    H176654   0.196   3.159   5.577  0.8767  0.5360  0.5564
18413TIP3    H276655   0.156   3.081   5.701 -0.2378 -0.3467 -0.3338
18414TIP3   OH276656   0.624   6.564  14.859 -0.7402  0.2606  0.0335
18414TIP3    H176657   0.697   6.555  14.797 -1.1925  0.5732 -0.5508
18414TIP3    H276658   0.638   6.649  14.900 -0.8806  0.4099 -0.2234
18415TIP3   OH276659   4.735   3.560   0.272 -0.0639 -0.4594 -0.1065
18415TIP3    H176660   4.802   3.504   0.311 -1.9169 -2.0816  0.9788
18415TIP3    H276661   4.697   3.607   0.347 -0.1677  0.4040 -0.6927
18416TIP3   OH276662   1.742   2.425  10.792 -0.2968  0.1768  0.2828
18416TIP3    H176663   1.770   2.512  10.765 -0.8463  0.6470  1.1821
18416TIP3    H276664   1.823   2.375  10.801  0.0579  0.7503  0.2914
18417TIP3   OH276665   6.747   5.216  11.132 -0.1173  0.0530  0.1214
18417TIP3    H176666   6.831   5.172  11.149  1.0612  2.0544 -0.2870
18417TIP3    H276667   6.722   5.253  11.217 -0.6085 -0.5216  0.2373
18418TIP3   OH276668   6.684   5.475  11.609  0.3189 -0.0643 -0.0063
18418TIP3    H176669   6.647   5.418  11.677 -3.1485  1.5222 -0.3903
18418TIP3    H276670   6.717   5.551  11.657 -0.6242  0.3148  0.0543
18419TIP3   OH276671   3.001   0.176   4.182 -0.1229  0.4035 -0.4673
18419TIP3    H176672   2.991   0.082   4.195  0.7172  0.0411 -2.1876
18419TIP3    H276673   3.043   0.206   4.263  0.5513 -0.8714 -0.3127
18420TIP3   OH276674   5.574   2.412   5.425  0.3833  0.5285  0.0526
18420TIP3    H176675   5.565   2.345   5.493  2.1502  0.1031 -0.0822
18420TIP3    H276676   5.552   2.366   5.344 -2.6858  1.2790  0.3378
18421TIP3   OH276677   6.665   5.941   3.515  0.6950  0.0174 -0.1339
18421TIP3    H176678   6.667   5.953   3.420 -0.4209  0.6368 -0.0978
18421TIP3    H276679   6.633   6.024   3.549  0.5457 -0.3851  0.7358
18422TIP3   OH276680   4.319   4.751  16.567 -0.7441  0.1498 -0.0110
18422TIP3    H176681   4.315   4.731  16.660  0.3560  0.9026  0.2171
18422TIP3    H276682   4.336   4.845  16.563 -1.1532  0.1957 -0.9814
18423TIP3   OH276683   2.271   2.091  13.575 -0.1663  0.1281 -0.3102
18423TIP3    H176684   2.319   2.018  13.615 -0.2452 -0.4289 -1.1968
18423TIP3    H276685   2.256   2.153  13.647 -0.2001 -0.7812  0.4840
18424TIP3   OH276686   4.942   5.290  13.612  0.2282  0.3617 -0.1401
18424TIP3    H176687   5.035   5.287  13.635  0.3293  0.6197 -0.5097
18424TIP3    H276688   4.936   5.239  13.531  0.1463  0.8500 -0.4413
18425TIP3   OH276689   2.753   1.924  15.288  0.1567 -0.0124 -0.2184
18425TIP3    H176690   2.806   1.952  15.363  3.3612 -1.9817 -1.5310
18425TIP3    H276691   2.769   1.989  15.221  1.7637 -1.0402 -0.8962
18426TIP3   OH276692   4.018   2.386   4.137 -0.0579  0.5475  0.5026
18426TIP3    H176693   3.933   2.385   4.180 -0.2874 -0.0568  0.0594
18426TIP3    H276694   4.079   2.354   4.203 -0.1095  1.3159  0.9349
18427TIP3   OH276695   0.560   2.909  15.215  0.0829  0.1277  0.7836
18427TIP3    H176696   0.536   3.001  15.208  0.8858  0.3795  1.1518
18427TIP3    H276697   0.642   2.903  15.166 -1.1177 -0.8838 -1.2213
18428TIP3   OH276698   6.516   3.341   4.160 -0.3829 -0.0682  0.2395
18428TIP3    H176699   6.505   3.435   4.152 -0.2803 -0.0192  0.6267
18428TIP3    H276700   6.447   3.303   4.105  0.6858  0.2216 -1.3485
18429TIP3   OH276701   1.217   0.066   4.845 -0.5010  0.1912 -0.2145
18429TIP3    H176702   1.130   0.076   4.883 -0.0846 -3.2472  2.1634
18429TIP3    H276703   1.205   0.006   4.772 -0.4875  2.2977 -2.0243
18430TIP3   OH276704   1.573   3.195  10.641 -0.3932  0.0323  0.1821
18430TIP3    H176705   1.658   3.232  10.615 -0.8736  1.0945  0.1122
18430TIP3    H276706   1.513   3.221  10.572 -1.0736  0.4559  0.9201
18431TIP3   OH276707   6.652   6.357   3.383 -0.2272 -0.2926  0.0879
18431TIP3    H176708   6.588   6.379   3.315 -0.1291 -2.4135 -0.7696
18431TIP3    H276709   6.737   6.378   3.343 -0.1224 -2.2392 -0.7938
18432TIP3   OH276710   1.973   1.703   5.343 -0.3414  0.0283 -0.1256
18432TIP3    H176711   1.934   1.745   5.420 -0.1784 -1.7495  0.9947
18432TIP3    H276712   1.932   1.616   5.340 -0.6684  0.2018 -2.3430
18433TIP3   OH276713   6.667   1.874  16.625  0.5033 -0.3424  0.0993
18433TIP3    H176714   6.751   1.908  16.655  1.3038 -1.2156 -1.0460
18433TIP3    H276715   6.688   1.788  16.587 -0.6302  0.1093 -1.6752
18434TIP3   OH276716   1.571   0.841   0.998 -0.4694  0.1266  0.3941
18434TIP3    H176717   1.492   0.890   0.975 -0.6871 -0.1522  0.5383
18434TIP3    H276718   1.539   0.763   1.043 -0.1141 -0.0170  0.4057
18435TIP3   OH276719   2.697   0.944   0.489  0.5103 -0.7876  0.3222
18435TIP3    H176720   2.746   0.989   0.558  0.6612  0.8490 -0.8094
18435TIP3    H276721   2.765   0.901   0.436  0.9836  2.3093 -1.8449
18436TIP3   OH276722   4.405   0.418  11.690  0.0798 -0.1826  0.2741
18436TIP3    H176723   4.386   0.328  11.663  0.0076 -0.7508  2.0553
18436TIP3    H276724   4.341   0.471  11.642 -0.1434 -1.1188 -0.5021
18437TIP3   OH276725   5.367   0.592  15.015 -0.3734  0.2115  0.6466
18437TIP3    H176726   5.421   0.559  15.086 -0.7276 -1.1094  0.3196
18437TIP3    H276727   5.314   0.661  15.056  0.6091  0.6259  1.2603
18438TIP3   OH276728   0.534   0.273  14.437 -0.6636  0.1699 -0.3300
18438TIP3    H176729   0.596   0.207  14.405  0.2647  0.4123  0.8939
18438TIP3    H276730   0.459   0.267  14.377  0.0913 -0.8639 -1.2054
18439TIP3   OH276731   0.274   4.100   0.033  0.2093  0.6219 -0.1322
18439TIP3    H176732   0.221   4.178   0.012 -0.8945  0.0936  0.6152
18439TIP3    H276733   0.212   4.027   0.029  0.9862 -0.0809  0.3272
18440TIP3   OH276734   3.092   0.713   3.719 -0.4557  0.2402 -0.1337
18440TIP3    H176735   3.038   0.648   3.764  0.2541 -1.1435 -1.1972
18440TIP3    H276736   3.142   0.663   3.655 -0.9184  2.0229 -2.0100
18441TIP3   OH276737   6.593   3.361   6.121 -0.4449  0.0889 -0.1433
18441TIP3    H176738   6.573   3.291   6.184  0.7303  0.2823  0.4787
18441TIP3    H276739   6.522   3.357   6.058 -1.0292 -0.9012  0.5391
18442TIP3   OH276740   1.766   6.565   1.479  0.4971 -0.3035 -0.7452
18442TIP3    H176741   1.804   6.650   1.458 -0.1741 -0.3251 -2.1344
18442TIP3    H276742   1.778   6.513   1.400 -1.4176 -0.6532 -0.8478
18443TIP3   OH276743   4.973   1.671   2.785 -0.5762  0.0765 -0.2294
18443TIP3    H176744   5.052   1.639   2.830  0.5409  0.8568 -1.5509
18443TIP3    H276745   4.973   1.625   2.701 -0.8809  0.9270 -0.7069
18444TIP3   OH276746   5.279   3.276   5.894  0.1237  0.2260 -0.3281
18444TIP3    H176747   5.197   3.245   5.856  0.6510  0.5643 -1.8037
18444TIP3    H276748   5.254   3.354   5.943 -0.5085  0.0175 -0.3021
18445TIP3   OH276749   1.872   6.312  11.211 -0.0204 -0.3830 -0.0222
18445TIP3    H176750   1.823   6.388  11.179 -2.2169 -1.9978 -0.7988
18445TIP3    H276751   1.907   6.271  11.132  0.5885 -0.5557  0.3335
18446TIP3   OH276752   0.450   0.907  13.832  0.2356  0.2463 -0.0018
18446TIP3    H176753   0.487   0.819  13.835 -1.0611 -0.3143  0.4189
18446TIP3    H276754   0.402   0.911  13.749  0.1146  0.4744  0.0778
18447TIP3   OH276755   5.021   6.211   1.632  0.7698 -0.1787 -0.4192
18447TIP3    H176756   5.114   6.223   1.611  0.8976  0.6652  0.5363
18447TIP3    H276757   5.012   6.247   1.720 -1.1787  3.1497 -1.7916
18448TIP3   OH276758   5.230   6.320  11.166 -0.6744 -0.0596 -0.2933
18448TIP3    H176759   5.278   6.396  11.132  1.5528 -0.9313  0.7467
18448TIP3    H276760   5.265   6.246  11.118 -0.5265 -0.7906  0.9058
18449TIP3   OH276761   3.314   2.154   1.233 -0.2179  0.1078 -0.2150
18449TIP3    H176762   3.263   2.103   1.171  0.1071  0.5543 -0.8521
18449TIP3    H276763   3.308   2.244   1.202  1.6357  0.0623 -0.7804
18450TIP3   OH276764   0.327   5.327  16.931  0.2763  0.2331 -0.1614
18450TIP3    H176765   0.288   5.414  16.926 -0.2000  0.1029  1.0218
18450TIP3    H276766   0.312   5.289  16.845 -0.6973  0.8291 -0.2679
18451TIP3   OH276767   2.659   5.728   5.429 -0.4728 -0.3735 -0.6764
18451TIP3    H176768   2.726   5.660   5.418  0.0254 -0.0728  0.3787
18451TIP3    H276769   2.632   5.721   5.520 -0.8765  0.4250 -0.7260
18452TIP3   OH276770   6.539   3.973  14.387  0.4090 -0.6953 -0.0329
18452TIP3    H176771   6.580   3.937  14.466 -1.0287 -1.4953  0.3836
18452TIP3    H276772   6.484   4.044  14.418 -0.6272 -1.3942 -0.2098
18453TIP3   OH276773   4.456   5.031   2.718 -0.3836 -0.6668  0.4402
18453TIP3    H176774   4.437   4.991   2.802 -0.4276  1.1080  1.3229
18453TIP3    H276775   4.373   5.029   2.670 -0.8933  0.1199  1.2581
18454TIP3   OH276776   0.053   1.497   4.666  0.0943 -0.0917  0.2707
18454TIP3    H176777  -0.019   1.553   4.695 -0.5322 -0.6898 -0.0942
18454TIP3    H276778   0.013   1.411   4.654  1.2962 -0.9865  2.1582
18455TIP3   OH276779   2.402   6.261   1.536 -0.1790 -0.4701  0.6337
18455TIP3    H176780   2.359   6.344   1.559 -0.9898 -0.7895  0.3274
18455TIP3    H276781   2.337   6.215   1.482 -0.0868 -1.6835  1.5160
18456TIP3   OH276782   6.696   6.811   0.844 -0.3066 -0.6902 -0.5131
18456TIP3    H176783   6.609   6.842   0.819 -0.9189 -1.4513  0.5922
18456TIP3    H276784   6.680   6.727   0.887  0.8622 -0.3166  0.7149
18457TIP3   OH276785   1.854   0.404   5.661  0.3658  1.2446 -1.0451
18457TIP3    H176786   1.800   0.479   5.685 -0.5334  0.1091  0.6489
18457TIP3    H276787   1.917   0.396   5.733  0.5664  0.4801 -1.2960
18458TIP3   OH276788   1.029   3.559   1.007 -0.0028  0.3882 -0.2264
18458TIP3    H176789   1.053   3.548   1.099 -1.1594 -1.1862 -0.0704
18458TIP3    H276790   0.946   3.512   0.998  0.5001 -0.2298 -2.2716
18459TIP3   OH276791   0.578   2.076   1.084 -0.2562  0.5740 -0.8155
18459TIP3    H176792   0.575   1.997   1.031 -1.8435  0.6393 -0.8691
18459TIP3    H276793   0.533   2.053   1.165 -0.1522  1.2272 -0.5590
18460TIP3   OH276794   5.139   4.229   2.571  0.0465 -0.4594 -0.1283
18460TIP3    H176795   5.051   4.191   2.565  0.2121 -0.6704 -1.5976
18460TIP3    H276796   5.123   4.323   2.582 -0.3532 -0.7620  2.3526
18461TIP3   OH276797   1.303   1.716  14.672 -0.2634  0.0869 -0.4179
18461TIP3    H176798   1.266   1.761  14.596 -1.2497  0.2076  0.1186
18461TIP3    H276799   1.232   1.659  14.704  0.0604  0.1947  0.5355
18462TIP3   OH276800   5.260   1.635   4.505 -0.6787  0.1208 -0.2578
18462TIP3    H176801   5.308   1.657   4.425 -2.6729 -2.3093 -2.3267
18462TIP3    H276802   5.288   1.546   4.527 -1.9920 -0.2072  0.2187
18463TIP3   OH276803   2.280   1.349   5.471 -0.3023 -0.3873  0.1882
18463TIP3    H176804   2.234   1.365   5.389 -1.1940  0.8693  0.8925
18463TIP3    H276805   2.370   1.331   5.445 -0.2855  1.2352 -1.0112
18464TIP3   OH276806   0.613   1.890  14.006 -0.6024  0.6733 -0.0783
18464TIP3    H176807   0.691   1.944  14.014  0.6391 -0.7425 -1.7543
18464TIP3    H276808   0.546   1.936  14.057  1.3478  1.8296  1.6106
18465TIP3   OH276809   5.815   0.027  15.689 -0.2713  0.0818 -0.3658
18465TIP3    H176810   5.763  -0.047  15.722 -1.4399  0.6906 -0.7697
18465TIP3    H276811   5.766   0.104  15.717  1.1288  0.7331  0.3591
18466TIP3   OH276812   2.978   3.981  14.714 -0.4999 -0.0886 -0.8709
18466TIP3    H176813   2.888   4.012  14.708 -0.9177 -1.1913 -0.5068
18466TIP3    H276814   3.029   4.048  14.668 -1.1870  1.7935  0.9286
18467TIP3   OH276815   5.914   1.294   1.761  0.0226  0.0610 -0.0901
18467TIP3    H176816   5.902   1.249   1.678  0.9178  2.2446 -1.4929
18467TIP3    H276817   6.009   1.309   1.767 -0.1221  0.6826  0.8845
18468TIP3   OH276818   4.090   0.027  11.070  0.1033  0.5049 -0.4425
18468TIP3    H176819   4.005   0.021  11.027 -0.4148  0.1537  0.5969
18468TIP3    H276820   4.070   0.036  11.163  1.1928 -0.5114 -0.0719
18469TIP3   OH276821   2.823   0.140   1.172  0.1305  0.4388  0.3974
18469TIP3    H176822   2.802   0.105   1.259  0.0762 -0.0764  0.1829
18469TIP3    H276823   2.795   0.071   1.112  1.1817  0.3202  0.0233
18470TIP3   OH276824   0.128   3.939   0.957 -0.0746  0.2407 -0.0368
18470TIP3    H176825   0.159   4.017   0.910 -0.9067  1.2247  0.9772
18470TIP3    H276826   0.157   3.954   1.048 -0.5305 -0.4818  0.2329
18471TIP3   OH276827   1.946   0.454  16.480 -0.2312 -0.0264  0.4925
18471TIP3    H176828   1.938   0.359  16.468 -0.7542  0.2723 -1.9589
18471TIP3    H276829   1.973   0.464  16.572  2.0199 -2.6407  0.2456
18472TIP3   OH276830   5.665   2.948   5.473  0.1284 -0.4153 -0.3807
18472TIP3    H176831   5.574   2.942   5.446 -0.5079 -2.0933  1.8679
18472TIP3    H276832   5.714   2.954   5.391 -1.8754 -1.3021 -1.7165
18473TIP3   OH276833   1.054   2.255   6.407  0.7622  0.3087  0.2540
18473TIP3    H176834   1.112   2.327   6.382 -0.4434  0.8089 -1.2790
18473TIP3    H276835   1.035   2.210   6.324  0.9951 -1.4161  1.0924
18474TIP3   OH276836   4.472   4.760  14.290  0.1980  0.7268 -0.3182
18474TIP3    H176837   4.479   4.753  14.194 -1.1803  1.2029 -0.4648
18474TIP3    H276838   4.561   4.782  14.318  1.3921 -2.5075 -1.1576
18475TIP3   OH276839   3.700   0.627  15.965 -0.2089  0.5227  0.1971
18475TIP3    H176840   3.736   0.696  16.021 -1.1627  2.2655 -1.2471
18475TIP3    H276841   3.750   0.549  15.988  1.9530  2.0199  0.8397
18476TIP3   OH276842   1.452   5.552  12.879 -0.6418 -0.1647 -0.1705
18476TIP3    H176843   1.514   5.540  12.951 -3.5032 -1.8130  2.2714
18476TIP3    H276844   1.422   5.642  12.889  0.0536  0.0836 -0.2544
18477TIP3   OH276845   2.597   3.063   0.125 -0.2950  0.0553 -0.2227
18477TIP3    H176846   2.568   3.149   0.095  1.0272  0.4455 -0.4312
18477TIP3    H276847   2.610   3.073   0.219  1.0012  0.4375 -0.4273
18478TIP3   OH276848   5.554   3.599  15.471  0.3053  0.2419 -0.3055
18478TIP3    H176849   5.505   3.663  15.523  1.3840  0.8775 -0.0377
18478TIP3    H276850   5.625   3.570  15.529 -0.0602 -1.0899 -0.4868
18479TIP3   OH276851   0.057   6.183   1.556  0.2331 -0.0731  0.0465
18479TIP3    H176852   0.125   6.157   1.494 -0.0941  0.5677 -0.5900
18479TIP3    H276853   0.094   6.164   1.642  0.8803 -0.5158 -0.3229
18480TIP3   OH276854   5.338   2.259  12.546  0.7088 -0.0314  0.1165
18480TIP3    H176855   5.365   2.167  12.535 -0.9096 -0.4610 -0.5508
18480TIP3    H276856   5.262   2.255  12.605  0.0893  0.7795 -0.6038
18481TIP3   OH276857   2.942   6.018  14.022 -0.6064  0.3946 -0.1695
18481TIP3    H176858   3.000   5.971  14.082  0.4154  0.5355 -1.0143
18481TIP3    H276859   2.969   5.989  13.935 -0.4300  1.9758 -0.6787
18482TIP3   OH276860   0.935   4.689  13.129 -0.2114 -0.2253  0.3476
18482TIP3    H176861   0.951   4.595  13.122  0.0240 -0.1157 -0.8126
18482TIP3    H276862   0.926   4.719  13.038 -1.4488  0.6744  0.7276
18483TIP3   OH276863   3.677   5.199  15.517 -0.3531  0.5215 -0.5096
18483TIP3    H176864   3.734   5.261  15.562 -0.7299  0.9938 -0.6767
18483TIP3    H276865   3.589   5.226  15.540 -0.5205 -0.1136 -0.3809
18484TIP3   OH276866   5.058   1.803  13.278 -0.3443  0.0356  0.2083
18484TIP3    H176867   4.996   1.844  13.338 -0.4062  2.1205 -1.1741
18484TIP3    H276868   5.100   1.734  13.330 -3.4723 -1.2218  1.3196
18485TIP3   OH276869   0.539   4.120   2.700  0.1610  0.2670 -0.3493
18485TIP3    H176870   0.523   4.079   2.785  2.3148  1.7670  0.9003
18485TIP3    H276871   0.626   4.088   2.674 -0.2006  0.3157 -1.7147
18486TIP3   OH276872   4.973   3.381   2.487  0.5876  0.1050 -0.3012
18486TIP3    H176873   4.947   3.292   2.463 -0.2969  0.3205 -0.1669
18486TIP3    H276874   5.069   3.378   2.491  0.5181 -1.1216  0.7883
18487TIP3   OH276875   6.758   6.742  12.307 -0.3296  0.7261  0.0476
18487TIP3    H176876   6.698   6.775  12.240 -0.0007  0.9905 -0.1208
18487TIP3    H276877   6.832   6.708  12.258 -1.6423 -2.4772  0.0638
18488TIP3   OH276878   0.882   3.968  15.919 -0.0869 -0.4820 -0.6126
18488TIP3    H176879   0.878   3.968  16.014 -0.1597  1.0022 -0.5899
18488TIP3    H276880   0.791   3.979  15.891  0.0998  0.8455 -0.7885
18489TIP3   OH276881   1.393   4.642  12.491  0.4336  0.3576  0.0641
18489TIP3    H176882   1.307   4.665  12.526  0.3214  1.4861 -0.8821
18489TIP3    H276883   1.394   4.546  12.491 -0.5627  0.3333  0.6983
18490TIP3   OH276884   2.322   4.232  13.648  0.4869  0.2327 -0.9013
18490TIP3    H176885   2.305   4.210  13.557  2.5302 -3.4148 -0.5926
18490TIP3    H276886   2.269   4.170  13.698  1.7849  0.0667  0.3191
18491TIP3   OH276887   3.523   6.443  11.722  0.1655 -0.4218 -0.4593
18491TIP3    H176888   3.451   6.481  11.671  1.4863  1.1578 -1.2240
18491TIP3    H276889   3.490   6.442  11.812 -0.8514  0.1591 -0.8053
18492TIP3   OH276890   6.240   5.313  16.679  0.0002  0.1811  0.0079
18492TIP3    H176891   6.159   5.302  16.629  0.3407 -0.1296 -0.4782
18492TIP3    H276892   6.218   5.281  16.767  0.4818 -2.9392 -0.9025
18493TIP3   OH276893   0.912   0.503  16.576 -0.3728 -0.2154 -0.3269
18493TIP3    H176894   0.994   0.529  16.535  0.0368  0.6376  0.9751
18493TIP3    H276895   0.888   0.578  16.630 -2.1136 -0.3816 -0.8123
18494TIP3   OH276896   0.863   0.501   2.665 -0.0510  0.9608  0.4573
18494TIP3    H176897   0.849   0.584   2.620 -0.0102  1.0627  0.6279
18494TIP3    H276898   0.813   0.437   2.615  1.7600  0.6347 -1.0588
18495TIP3   OH276899   2.467   3.390  11.243  0.4359 -0.2694 -0.0475
18495TIP3    H176900   2.499   3.316  11.191  0.0425  0.3130 -1.1582
18495TIP3    H276901   2.433   3.350  11.323  0.2927 -1.2880 -0.5908
18496TIP3   OH276902   5.459   4.957   4.737  0.0036 -0.2835  0.5602
18496TIP3    H176903   5.525   4.896   4.704 -0.6657 -0.4820 -0.4542
18496TIP3    H276904   5.450   4.934   4.830  1.0833 -0.4981  0.6252
18497TIP3   OH276905   2.200   0.090  13.707 -0.2505 -0.2109  0.1089
18497TIP3    H176906   2.251   0.171  13.704 -2.5133  1.3082 -0.3912
18497TIP3    H276907   2.173   0.076  13.616 -2.6713  0.4343  0.6620
18498TIP3   OH276908   2.477   6.511   1.821 -0.0164  0.0023 -0.7713
18498TIP3    H176909   2.395   6.485   1.780 -0.4144  1.2911 -0.8390
18498TIP3    H276910   2.503   6.590   1.774 -0.2111  1.2206  1.0854
18499TIP3   OH276911   0.623   6.552  14.356  0.4962  0.4033 -0.3429
18499TIP3    H176912   0.673   6.470  14.356  2.2484  1.4342 -0.8772
18499TIP3    H276913   0.644   6.593  14.272  1.0853  2.2336  0.6602
18500TIP3   OH276914   3.442   5.512   2.674 -0.5233 -0.0971 -0.2863
18500TIP3    H176915   3.488   5.548   2.599  1.0152  0.0093  0.6718
18500TIP3    H276916   3.449   5.417   2.663 -0.3884 -0.0812 -0.3395
18501TIP3   OH276917   0.357   5.031  12.698 -0.0592 -0.1503  0.3582
18501TIP3    H176918   0.378   5.025  12.791 -0.4176  0.0097  0.4511
18501TIP3    H276919   0.427   5.085  12.661 -0.1785  0.1930  0.6260
18502TIP3   OH276920   0.174   2.555  14.726 -0.4998  0.1739 -0.0633
18502TIP3    H176921   0.086   2.525  14.748 -0.8796  1.3557  0.0858
18502TIP3    H276922   0.178   2.551  14.630 -0.2925 -0.9975 -0.0208
18503TIP3   OH276923   0.559   6.300  12.511 -0.0855 -0.0093  0.2319
18503TIP3    H176924   0.594   6.316  12.423 -0.1705 -0.7900  0.0478
18503TIP3    H276925   0.583   6.210  12.530  1.5263  0.6912  1.7704
18504TIP3   OH276926   5.174   2.210   4.224 -0.3689  0.2898  0.4351
18504TIP3    H176927   5.221   2.136   4.184 -0.0524  0.7558 -0.0696
18504TIP3    H276928   5.173   2.277   4.156 -1.9295  0.2346  0.3575
18505TIP3   OH276929   2.573   6.033   0.411 -0.1011  0.0439  0.1603
18505TIP3    H176930   2.656   6.077   0.426  1.3179 -2.4290  0.1404
18505TIP3    H276931   2.533   6.028   0.498  0.5399 -0.1310  0.4551
18506TIP3   OH276932   2.689   3.455  12.400 -0.2664 -0.7402  0.6979
18506TIP3    H176933   2.757   3.395  12.370  0.0269  0.1653 -0.5571
18506TIP3    H276934   2.729   3.542  12.394 -1.2002 -0.2772  0.8918
18507TIP3   OH276935   1.099   2.829   1.661 -0.2625  0.1462  0.4283
18507TIP3    H176936   1.142   2.813   1.578  1.2173 -1.8290  1.4860
18507TIP3    H276937   1.029   2.764   1.666 -0.2142  0.1169  0.7957
18508TIP3   OH276938   5.215   0.490  15.321 -0.1500  0.0930 -0.1733
18508TIP3    H176939   5.229   0.397  15.300  0.3833  0.3709 -1.1233
18508TIP3    H276940   5.284   0.536  15.273 -1.2337  1.0967 -0.8393
18509TIP3   OH276941   2.318   0.817   3.947  0.3339 -0.2250  0.0342
18509TIP3    H176942   2.355   0.855   3.867 -0.5809  1.0636  0.1904
18509TIP3    H276943   2.341   0.724   3.943  3.3184  0.4235 -0.0116
18510TIP3   OH276944   4.200   1.998   2.538  0.4595  0.6808  0.2785
18510TIP3    H176945   4.289   1.963   2.532 -0.9140 -3.0334 -1.6234
18510TIP3    H276946   4.178   1.992   2.631  1.8626  0.9257  0.6569
18511TIP3   OH276947   1.061   6.786  12.633 -0.0069 -0.0358 -0.2689
18511TIP3    H176948   1.039   6.779  12.540 -0.6613  0.3238 -0.1431
18511TIP3    H276949   0.985   6.827  12.673  0.2372 -0.2644  0.4457
18512TIP3   OH276950   2.409   1.602   1.761 -0.6146 -0.5320 -0.5686
18512TIP3    H176951   2.331   1.608   1.817 -0.5730 -1.1884 -0.4426
18512TIP3    H276952   2.416   1.509   1.739  1.0867 -0.7496  0.7580
18513TIP3   OH276953   2.371   4.123   3.614 -0.6172 -0.9146 -0.5335
18513TIP3    H176954   2.283   4.116   3.577 -0.7110  0.0429 -0.5172
18513TIP3    H276955   2.357   4.158   3.702 -0.1473  0.7653 -1.0818
18514TIP3   OH276956   2.762   3.100  15.522 -0.2249  0.3683 -0.4140
18514TIP3    H176957   2.766   3.112  15.427  0.7166  1.2127 -0.2854
18514TIP3    H276958   2.750   3.188  15.557 -0.4061  0.0841  0.2618
18515TIP3   OH276959   6.150   5.907  11.718  0.2344 -0.4673 -0.2624
18515TIP3    H176960   6.156   5.992  11.674 -0.4543 -1.4501 -2.3922
18515TIP3    H276961   6.056   5.892  11.729  0.3795 -0.4706  1.1965
18516TIP3   OH276962   0.802   3.387   1.011 -0.0998 -0.4988  0.0018
18516TIP3    H176963   0.711   3.385   1.042  0.8314  0.6108  3.2295
18516TIP3    H276964   0.842   3.310   1.051  0.3000 -1.3672 -1.9523
18517TIP3   OH276965   1.392   0.954   2.407  0.2753 -0.0770 -0.2229
18517TIP3    H176966   1.346   0.966   2.324 -1.6968  1.9351  1.0605
18517TIP3    H276967   1.458   1.024   2.408 -0.1666  0.3399  0.1809
18518TIP3   OH276968   3.397   6.638  11.053 -0.2324 -0.0909 -0.2604
18518TIP3    H176969   3.302   6.638  11.068 -0.1501 -1.4043  0.3897
18518TIP3    H276970   3.431   6.701  11.116 -0.7435  1.2448 -1.2544
18519TIP3   OH276971   2.587   1.485   0.985 -0.0888  0.3977  0.2707
18519TIP3    H176972   2.497   1.450   0.988 -0.1274  0.5339  0.7281
18519TIP3    H276973   2.593   1.527   0.900 -0.2583 -0.1570 -0.0236
18520TIP3   OH276974   3.923   1.177  15.305  0.6579  0.1236 -0.5878
18520TIP3    H176975   3.940   1.242  15.236  3.0042 -0.2965 -0.4984
18520TIP3    H276976   3.895   1.099  15.258  0.9576  0.2428 -0.9715
18521TIP3   OH276977   2.092   3.561   2.842 -0.4040  0.0735  0.0309
18521TIP3    H176978   2.151   3.602   2.905  1.9055 -2.4164 -0.3302
18521TIP3    H276979   2.057   3.484   2.889  1.0275 -1.5757 -1.4470
18522TIP3   OH276980   0.588   5.453  13.946  0.8669 -0.3842  0.1826
18522TIP3    H176981   0.681   5.433  13.939  0.7356 -0.5659 -1.4211
18522TIP3    H276982   0.572   5.518  13.878 -0.1833 -0.3587  0.4365
18523TIP3   OH276983   5.422   4.277   3.743  0.3325  0.4989 -0.1867
18523TIP3    H176984   5.417   4.359   3.792 -0.0103 -0.5972  1.7194
18523TIP3    H276985   5.494   4.229   3.785 -1.5679 -1.5046  0.9808
18524TIP3   OH276986   6.265   4.620  13.875  0.0825  0.1947  0.4727
18524TIP3    H176987   6.179   4.656  13.852 -0.0855 -0.3056  0.2906
18524TIP3    H276988   6.328   4.681  13.837 -0.1898  0.7336  0.8766
18525TIP3   OH276989   3.684   0.808  12.056 -0.1729 -0.2810 -0.6945
18525TIP3    H176990   3.689   0.902  12.043  0.8717 -0.1195  0.6629
18525TIP3    H276991   3.719   0.770  11.975  0.3499  0.5127 -0.8476
18526TIP3   OH276992   5.841   2.869  11.079  0.2436  0.2060  0.0749
18526TIP3    H176993   5.910   2.812  11.113  0.2086 -0.7097 -1.3052
18526TIP3    H276994   5.836   2.847  10.986 -2.7992 -0.6900  0.3557
18527TIP3   OH276995   3.499   5.021   1.564  0.3259  0.7685 -0.3020
18527TIP3    H176996   3.462   5.054   1.482  0.3356  3.2811  0.6324
18527TIP3    H276997   3.450   4.941   1.582 -2.0515  1.9969 -1.0242
18528TIP3   OH276998   2.735   6.460   1.984 -0.9106 -1.3551  0.2370
18528TIP3    H176999   2.721   6.526   2.052  0.4583  0.3108 -1.0211
18528TIP3    H277000   2.655   6.462   1.932  0.2718  1.7981 -1.7328
18529TIP3   OH277001   2.300   3.612   6.606  0.2498  0.1583  0.2960
18529TIP3    H177002   2.369   3.556   6.641  0.2639 -0.6193 -0.9020
18529TIP3    H277003   2.223   3.555   6.602 -0.1054  0.6274  0.3567
18530TIP3   OH277004   0.140   2.973   0.808 -0.0916  0.5312 -0.2410
18530TIP3    H177005   0.173   2.967   0.898  1.2075  0.8323 -0.6699
18530TIP3    H277006   0.047   2.954   0.815  0.2489 -0.9050  0.9780
18531TIP3   OH277007   3.357   2.983   2.766 -0.6684  0.4729 -0.4244
18531TIP3    H177008   3.439   2.935   2.778  0.7953  2.5014 -1.6549
18531TIP3    H277009   3.366   3.060   2.822 -1.5088  1.0131 -1.0065
18532TIP3   OH277010   6.297   5.998  15.370  0.0091  0.2920  0.1651
18532TIP3    H177011   6.250   6.006  15.452  1.4340  0.0400  1.0355
18532TIP3    H277012   6.386   6.028  15.390  0.7468 -1.0791 -0.9241
18533TIP3   OH277013   2.633   2.305   4.979  0.1113  0.5645  0.1313
18533TIP3    H177014   2.675   2.219   4.990 -1.2056 -0.1421 -0.1275
18533TIP3    H277015   2.698   2.357   4.932  1.1516 -0.1055  0.7742
18534TIP3   OH277016   0.575   0.362  13.153  0.4058 -0.2768  0.1941
18534TIP3    H177017   0.489   0.321  13.156  0.3427 -0.1160  0.7269
18534TIP3    H277018   0.632   0.300  13.199  0.7427 -0.7669 -0.8595
18535TIP3   OH277019   6.162   3.985   4.071  0.4291  0.0111 -0.1353
18535TIP3    H177020   6.170   4.078   4.048  0.2108 -0.1919 -1.0601
18535TIP3    H277021   6.241   3.945   4.037  0.1300 -0.2841 -0.4957
18536TIP3   OH277022   1.995   6.181   0.687  0.4220 -0.1195 -0.3460
18536TIP3    H177023   1.930   6.227   0.635  0.0682  0.5114  0.6226
18536TIP3    H277024   2.071   6.172   0.630  0.0503  0.5667 -0.9565
18537TIP3   OH277025   3.291   6.242   1.062 -0.1242  0.3307  0.8024
18537TIP3    H177026   3.283   6.154   1.026  1.4261  0.6868 -0.5511
18537TIP3    H277027   3.207   6.284   1.044  0.5210  0.4635 -2.5175
18538TIP3   OH277028   3.489   2.824   4.551  0.3784 -0.3341 -0.0661
18538TIP3    H177029   3.551   2.765   4.596  1.2447  0.4282 -0.2306
18538TIP3    H277030   3.545   2.882   4.499 -0.3436  1.5478  1.1451
18539TIP3   OH277031   3.842   4.617   2.203 -0.0121 -0.2487 -0.0074
18539TIP3    H177032   3.909   4.592   2.140 -0.1465  1.0380 -0.6972
18539TIP3    H277033   3.760   4.615   2.153 -0.0933  0.9651  0.0486
18540TIP3   OH277034   6.157   3.100  12.130  0.2621  0.4295 -0.1846
18540TIP3    H177035   6.129   3.062  12.213  1.0059 -0.8001 -0.4736
18540TIP3    H277036   6.127   3.191  12.134 -0.8481  0.0419  0.8714
18541TIP3   OH277037   5.436   1.600   5.702 -0.0412 -0.3541  0.0825
18541TIP3    H177038   5.370   1.545   5.660 -1.1730  1.0573 -0.0542
18541TIP3    H277039   5.469   1.547   5.775  0.2617 -1.9215 -1.1194
18542TIP3   OH277040   2.180   1.628  14.014  0.1796  0.0532  0.0102
18542TIP3    H177041   2.207   1.715  13.985 -0.9584  1.3874  2.5866
18542TIP3    H277042   2.257   1.591  14.058  0.7308 -0.3800 -1.2768
18543TIP3   OH277043   0.159   2.669  12.907 -0.0729 -0.3345  0.4865
18543TIP3    H177044   0.251   2.693  12.922 -0.0311 -1.2291  1.8718
18543TIP3    H277045   0.111   2.716  12.976 -0.7517  0.5877 -0.5810
18544TIP3   OH277046   0.085   0.399   3.486  0.1944  0.9120  0.3300
18544TIP3    H177047   0.081   0.311   3.449 -0.4207  1.9516 -2.3376
18544TIP3    H277048  -0.001   0.413   3.525 -0.4459  1.0102 -1.0612
18545TIP3   OH277049   2.217   1.769   6.200 -0.5367  0.2429 -0.2675
18545TIP3    H177050   2.132   1.769   6.157 -0.0696  0.4856 -1.2243
18545TIP3    H277051   2.270   1.831   6.150  0.7374 -1.1998 -0.7922
18546TIP3   OH277052   4.963   6.240  16.546 -0.2865 -0.7236  0.1220
18546TIP3    H177053   4.885   6.288  16.573  0.8165  0.3139  1.6592
18546TIP3    H277054   5.014   6.230  16.627  1.1133 -1.4743 -0.8097
18547TIP3   OH277055   3.623   2.980   4.110  0.2247  0.0873 -0.6007
18547TIP3    H177056   3.633   2.954   4.018 -0.0823  0.4314 -0.7325
18547TIP3    H277057   3.591   3.070   4.106  1.3445  0.5264 -0.1517
18548TIP3   OH277058   2.816   6.314   4.382  0.2802  0.4823  0.3615
18548TIP3    H177059   2.879   6.369   4.335  0.7143 -1.8462 -2.0208
18548TIP3    H277060   2.749   6.294   4.317 -0.7581 -0.3835  1.6617
18549TIP3   OH277061   6.227   5.003   0.704  0.6895  1.0324 -0.0915
18549TIP3    H177062   6.134   4.992   0.723  0.7928  0.2600  0.0176
18549TIP3    H277063   6.230   5.064   0.631  0.0181 -0.0326 -1.0491
18550TIP3   OH277064   6.115   5.645  11.527 -0.2336 -0.8816  0.3999
18550TIP3    H177065   6.106   5.554  11.499  1.2212 -0.0270 -3.6202
18550TIP3    H277066   6.189   5.644  11.588  1.3891 -2.2267 -1.4374
18551TIP3   OH277067   4.107   3.345  13.520 -0.5394  0.1492 -0.5292
18551TIP3    H177068   4.138   3.418  13.467  0.5857  0.7318  0.8438
18551TIP3    H277069   4.011   3.350  13.514 -0.4707  1.3485 -0.9705
18552TIP3   OH277070   1.682   5.728   3.270 -0.0614  0.1437  0.3188
18552TIP3    H177071   1.619   5.660   3.244  0.6834  0.3908 -2.4381
18552TIP3    H277072   1.767   5.685   3.267  0.1910  0.5879  0.9550
18553TIP3   OH277073   1.047   4.476  12.442  0.2784  0.3668 -0.4429
18553TIP3    H177074   1.121   4.429  12.481 -0.3068 -2.2982 -2.2956
18553TIP3    H277075   1.074   4.568  12.444  4.0895 -0.5202 -1.8451
18554TIP3   OH277076   4.807   3.987  14.947 -0.3656  0.2074  0.0005
18554TIP3    H177077   4.864   4.023  14.879 -0.9712 -2.0808 -1.8193
18554TIP3    H277078   4.864   3.980  15.024  0.6610  1.7567 -0.5639
18555TIP3   OH277079   3.201   6.413  10.313  0.4194 -0.7683 -0.2951
18555TIP3    H177080   3.123   6.469  10.311  0.9556  0.0172  0.0215
18555TIP3    H277081   3.167   6.324  10.310 -0.4655 -0.4316 -0.7170
18556TIP3   OH277082   2.835   3.290  12.835  0.3847  0.3581 -0.4648
18556TIP3    H177083   2.821   3.367  12.891  2.3559 -0.9068  2.0388
18556TIP3    H277084   2.768   3.228  12.862  0.8008  0.0643 -0.0743
18557TIP3   OH277085   4.845   6.026   3.260  0.4450 -0.5723  0.3252
18557TIP3    H177086   4.842   5.984   3.174  0.9556  0.4772 -0.2410
18557TIP3    H277087   4.927   6.076   3.258  0.2638 -0.2208  1.2733
18558TIP3   OH277088   4.012   0.468  13.790 -0.0193  0.3581 -0.1160
18558TIP3    H177089   4.052   0.547  13.825  0.0663  0.9181 -1.4284
18558TIP3    H277090   3.958   0.434  13.862  2.3288 -0.1138  1.5253
18559TIP3   OH277091   2.901   4.357   1.809  0.0193  0.0109  0.1001
18559TIP3    H177092   2.811   4.329   1.828 -0.2068  0.6367 -0.0290
18559TIP3    H277093   2.934   4.289   1.749 -0.6728  0.2397 -0.5612
18560TIP3   OH277094   0.251   3.226   0.690 -0.0461 -0.3986  0.1984
18560TIP3    H177095   0.214   3.139   0.674  0.5958 -0.6035 -0.2220
18560TIP3    H277096   0.285   3.254   0.604  0.6043 -0.1462  0.5288
18561TIP3   OH277097   3.723   4.222  12.361 -0.4537  0.2311 -0.2741
18561TIP3    H177098   3.665   4.150  12.388  0.8022 -0.1344  1.6647
18561TIP3    H277099   3.705   4.292  12.423  0.0818  0.6718 -0.6055
18562TIP3   OH277100   0.593   0.180  14.853 -0.0143  0.1719 -0.7252
18562TIP3    H177101   0.601   0.117  14.781  2.5072 -0.3605 -0.0886
18562TIP3    H277102   0.506   0.217  14.843 -0.3915 -1.1321 -3.0185
18563TIP3   OH277103   0.857   4.475   4.150  0.1951 -0.1878 -0.0800
18563TIP3    H177104   0.927   4.498   4.089  0.1256 -2.8072 -1.2424
18563TIP3    H277105   0.901   4.431   4.223 -0.1388 -1.2012 -0.4726
18564TIP3   OH277106   0.311   0.881  14.579  0.2743 -0.3928 -0.0043
18564TIP3    H177107   0.277   0.949  14.637  0.3253 -0.5018  0.1520
18564TIP3    H277108   0.299   0.917  14.491  3.3523  1.3035  0.1265
18565TIP3   OH277109   1.414   1.100   3.213  0.3353 -0.2654 -0.2620
18565TIP3    H177110   1.468   1.167   3.254 -0.9973  0.1382  0.9107
18565TIP3    H277111   1.421   1.118   3.119  1.0696  0.6591 -0.0496
18566TIP3   OH277112   2.252   3.519  16.350  0.8890  0.3203  0.3150
18566TIP3    H177113   2.173   3.515  16.297  0.0608  2.1828  1.3231
18566TIP3    H277114   2.321   3.541  16.287  0.3633  0.0804 -0.3601
18567TIP3   OH277115   1.230   6.468  14.532  0.3461 -0.1752  0.2686
18567TIP3    H177116   1.200   6.415  14.606 -0.1007 -0.6045 -0.2218
18567TIP3    H277117   1.325   6.477  14.547  0.0852  0.7687  1.5417
18568TIP3   OH277118   2.174   6.668  11.804 -0.0221  0.1383 -0.1216
18568TIP3    H177119   2.128   6.750  11.790  1.3982  1.0235  0.2840
18568TIP3    H277120   2.107   6.601  11.792 -1.0633  1.3122 -1.0749
18569TIP3   OH277121   5.372   3.849  13.903 -0.0919 -0.7285  0.0249
18569TIP3    H177122   5.405   3.775  13.851 -1.1602  0.4186 -2.4494
18569TIP3    H277123   5.442   3.914  13.898 -0.4698 -0.3594 -0.6008
18570TIP3   OH277124   5.565   0.807  12.535  0.0387 -0.3562  0.1035
18570TIP3    H177125   5.601   0.723  12.510  0.3287  0.1304 -1.1732
18570TIP3    H277126   5.612   0.871  12.482 -0.1634  0.6258  1.0558
18571TIP3   OH277127   1.233   2.860   1.159  0.7731 -0.5243 -0.2557
18571TIP3    H177128   1.172   2.913   1.108 -0.1838 -0.6160  0.7472
18571TIP3    H277129   1.312   2.914   1.164  0.6879 -0.2775 -1.3313
18572TIP3   OH277130   2.848   0.014  15.390  0.6470  0.5204 -0.2517
18572TIP3    H177131   2.780  -0.053  15.400 -0.4816  1.2634 -2.4097
18572TIP3    H277132   2.926  -0.035  15.363 -0.1651  0.0073 -1.8062
18573TIP3   OH277133   2.207   2.465  16.079  0.0053  0.0112 -0.3829
18573TIP3    H177134   2.135   2.483  16.019 -0.7290  0.8946  0.7105
18573TIP3    H277135   2.167   2.466  16.166  1.1325 -0.6656  0.1785
18574TIP3   OH277136   3.185   3.273  11.904 -0.3836 -0.2786  0.5266
18574TIP3    H177137   3.281   3.268  11.900 -0.2511  1.9683 -1.1609
18574TIP3    H277138   3.155   3.213  11.836 -0.1441 -0.3573  0.4907
18575TIP3   OH277139   4.852   4.843   3.654 -0.3922  0.3138 -0.4718
18575TIP3    H177140   4.876   4.832   3.562 -0.3350  1.3169 -0.5871
18575TIP3    H277141   4.771   4.793   3.664  0.3757 -1.0180 -0.6918
18576TIP3   OH277142   6.034   1.158   5.210 -0.2441 -0.0469 -0.2563
18576TIP3    H177143   6.110   1.152   5.153 -0.1145 -0.9110 -0.0068
18576TIP3    H277144   5.968   1.205   5.159  0.4898  0.8147 -0.4309
18577TIP3   OH277145   3.817   0.608  12.394 -0.0149  0.3084 -0.2207
18577TIP3    H177146   3.795   0.693  12.357 -1.8387 -0.6966 -1.6959
18577TIP3    H277147   3.769   0.605  12.477 -1.8545 -0.0744 -1.2319
18578TIP3   OH277148   2.532   4.422  12.481 -0.1456 -0.3228  0.3162
18578TIP3    H177149   2.451   4.372  12.491 -0.1090 -0.9150 -1.8815
18578TIP3    H277150   2.523   4.467  12.397  1.1592  0.8893  0.7772
18579TIP3   OH277151   0.851   4.199   1.694 -0.2609 -0.2344 -1.1319
18579TIP3    H177152   0.830   4.265   1.760  2.3746  1.3652 -1.7499
18579TIP3    H277153   0.797   4.222   1.619  0.1100  0.7917 -1.0907
18580TIP3   OH277154   3.534   5.846  11.500  0.1667  0.5072  0.6985
18580TIP3    H177155   3.617   5.875  11.462 -0.2272  1.4880  0.5541
18580TIP3    H277156   3.545   5.752  11.514  2.7077  1.1087  4.1142
18581TIP3   OH277157   0.015   2.720  16.585 -0.5570 -0.2313 -0.2523
18581TIP3    H177158   0.073   2.652  16.550 -1.0801 -1.3036  0.8871
18581TIP3    H277159  -0.070   2.702  16.546 -1.2613 -1.7190  1.7425
18582TIP3   OH277160   5.953   2.494   2.105  0.0388 -0.1342 -0.0075
18582TIP3    H177161   5.997   2.579   2.110 -1.8021  0.8121  4.1828
18582TIP3    H277162   5.876   2.509   2.050 -0.8390  1.3102  1.5398
18583TIP3   OH277163   4.672   1.861   2.123  0.4372 -0.0493  0.1704
18583TIP3    H177164   4.679   1.769   2.096 -1.3278 -0.5902  1.2866
18583TIP3    H277165   4.651   1.908   2.043 -0.0540 -0.8735 -0.2105
18584TIP3   OH277166   4.373   5.196  14.799 -0.2222 -0.5404 -0.1098
18584TIP3    H177167   4.287   5.154  14.801  0.2687 -1.5556  1.4108
18584TIP3    H277168   4.354   5.289  14.810 -1.1590 -0.6591 -0.6231
18585TIP3   OH277169   4.291   1.978   3.327 -0.7132 -0.3989  0.6103
18585TIP3    H177170   4.264   1.919   3.397 -0.7367  0.0995  1.0302
18585TIP3    H277171   4.359   2.032   3.367  0.0129 -0.7911 -0.0591
18586TIP3   OH277172   6.247   4.746   4.583  0.3274  0.2207  0.1218
18586TIP3    H177173   6.161   4.725   4.618 -0.2443  0.9567 -0.7915
18586TIP3    H277174   6.301   4.762   4.660 -0.6066  0.6816  0.7012
18587TIP3   OH277175   3.887   5.895   4.291  0.4207  0.1917  0.6866
18587TIP3    H177176   3.967   5.939   4.264  0.5816 -0.6836 -0.3523
18587TIP3    H277177   3.818   5.960   4.277  0.9178  0.8699  1.3625
18588TIP3   OH277178   4.681   3.480   5.857 -0.5057  0.2765  0.2821
18588TIP3    H177179   4.668   3.389   5.885  0.7456  0.2496  0.8264
18588TIP3    H277180   4.699   3.528   5.938  0.0004  0.7888 -0.1209
18589TIP3   OH277181   3.383   4.035  11.364 -0.3456 -0.4105  0.5594
18589TIP3    H177182   3.309   4.087  11.333  0.6750  0.7510 -0.0418
18589TIP3    H277183   3.456   4.063  11.308  0.6473 -1.1716  1.4491
18590TIP3   OH277184   5.565   5.564   4.300  0.0095 -0.3483 -0.1091
18590TIP3    H177185   5.526   5.503   4.362  1.5990  0.4853  1.8236
18590TIP3    H277186   5.656   5.535   4.290  0.0903  0.2038 -1.1612
18591TIP3   OH277187   1.340   4.961   5.860  0.7176 -0.2456 -0.1914
18591TIP3    H177188   1.309   4.870   5.853  0.2213 -0.0918 -0.0641
18591TIP3    H277189   1.261   5.011   5.881  0.8634  0.3202 -0.9692
18592TIP3   OH277190   1.469   2.001  13.092  0.0424 -0.0360 -0.3613
18592TIP3    H177191   1.485   1.964  13.179  0.1638 -0.2892 -0.4885
18592TIP3    H277192   1.381   1.972  13.069  0.1202 -0.2132 -0.4419
18593TIP3   OH277193   1.243   6.571  13.187 -0.5397 -0.1925 -0.1331
18593TIP3    H177194   1.178   6.559  13.118 -1.6313  0.8085  0.6786
18593TIP3    H277195   1.326   6.575  13.141 -1.4324  3.5728 -1.8459
18594TIP3   OH277196   3.839   6.612  16.902 -0.0766  0.1557  0.4852
18594TIP3    H177197   3.865   6.699  16.872  0.0011 -0.5352 -1.6248
18594TIP3    H277198   3.744   6.618  16.912  0.0762  0.8304  1.6305
18595TIP3   OH277199   5.402   1.922   5.457  0.1549 -0.4386 -0.4098
18595TIP3    H177200   5.338   1.852   5.444 -0.2921 -1.0080  3.4477
18595TIP3    H277201   5.471   1.904   5.394 -1.4577 -2.4123 -1.7402
18596TIP3   OH277202   2.974   4.013  11.576 -0.6222 -0.0329  0.2204
18596TIP3    H177203   2.880   4.016  11.595 -0.7244  0.0804 -0.2797
18596TIP3    H277204   3.009   4.093  11.614 -0.7750  0.0528  0.1818
18597TIP3   OH277205   3.697   4.241  11.400 -0.3676  0.2884  0.2412
18597TIP3    H177206   3.650   4.175  11.348  1.8461 -1.4311  0.2779
18597TIP3    H277207   3.786   4.238  11.367  0.2353  1.9197  1.6084
18598TIP3   OH277208   5.417   1.985   0.730 -1.0147 -0.0175 -0.5029
18598TIP3    H177209   5.367   1.974   0.649 -1.1201  1.1971 -0.6226
18598TIP3    H277210   5.356   2.024   0.792 -0.2526  1.5465 -0.6717
18599TIP3   OH277211   6.111   2.748   2.798 -0.1409  0.1776 -0.1156
18599TIP3    H177212   6.085   2.790   2.716  0.8836  0.7559 -0.1514
18599TIP3    H277213   6.106   2.817   2.863  1.9506  0.4949 -0.2451
18600TIP3   OH277214   6.456   5.973  11.002 -0.0495  0.3715  0.4887
18600TIP3    H177215   6.422   6.016  11.080 -1.0826  1.7254 -0.6477
18600TIP3    H277216   6.539   6.017  10.983  0.3251 -0.1293  0.9596
18601TIP3   OH277217   4.612   0.718  11.558 -0.2865  0.7631  0.0760
18601TIP3    H177218   4.537   0.769  11.588 -3.2551 -1.6437 -2.6213
18601TIP3    H277219   4.617   0.644  11.618 -1.3552 -0.0692 -0.8303
18602TIP3   OH277220   3.719   3.509  14.376 -0.0750  0.0782  0.3172
18602TIP3    H177221   3.778   3.455  14.428 -1.2116 -0.4008  1.1399
18602TIP3    H277222   3.712   3.591  14.426 -1.4048 -0.4958  1.0891
18603TIP3   OH277223   5.499   2.490   6.847  0.1753 -0.3541 -0.5900
18603TIP3    H177224   5.522   2.583   6.847 -0.6261 -0.1169 -2.0851
18603TIP3    H277225   5.422   2.485   6.791  0.2219 -1.9360 -0.5475
18604TIP3   OH277226   4.501   2.578  14.914  0.2952 -0.2144 -0.4404
18604TIP3    H177227   4.510   2.642  14.985  0.5644 -0.5442 -0.1754
18604TIP3    H277228   4.458   2.503  14.954 -0.8669  0.1464 -0.9738
18605TIP3   OH277229   5.420   0.356  10.806  0.3638  0.1264  0.0946
18605TIP3    H177230   5.378   0.435  10.771  0.9651  1.1156  1.4780
18605TIP3    H277231   5.513   0.373  10.797  0.4931 -0.7085 -0.1642
18606TIP3   OH277232   2.849   6.545  13.392  0.2639  0.5100 -0.2664
18606TIP3    H177233   2.860   6.491  13.314  1.7296  1.0467 -0.4757
18606TIP3    H277234   2.781   6.501  13.443  0.8658 -1.0999 -0.7856
18607TIP3   OH277235   3.839   6.330   2.796  0.2839 -0.1064  0.3879
18607TIP3    H177236   3.928   6.297   2.782  0.0286 -0.2371 -1.0474
18607TIP3    H277237   3.843   6.422   2.771 -0.4471 -0.6199 -1.8646
18608TIP3   OH277238   2.053   4.515  13.332  0.2963 -0.0091 -0.4889
18608TIP3    H177239   2.105   4.479  13.404 -0.0013  0.5745  0.0274
18608TIP3    H277240   2.020   4.598  13.365  0.6338  0.5621 -1.5152
18609TIP3   OH277241   3.290   2.885   1.826  0.7156  0.0322 -0.0977
18609TIP3    H177242   3.252   2.837   1.899 -2.0458 -2.9281 -3.1716
18609TIP3    H277243   3.384   2.886   1.845  0.4467 -3.0316  2.2014
18610TIP3   OH277244   5.126   3.962   1.167 -0.1879 -0.3765  0.0867
18610TIP3    H177245   5.086   3.964   1.081 -1.2453  0.1477  0.5744
18610TIP3    H277246   5.054   3.949   1.228  0.4603 -0.1473  0.9388
18611TIP3   OH277247   2.611   4.846  10.703  0.0897  0.0035  0.3710
18611TIP3    H177248   2.587   4.774  10.761  2.3358 -1.4327 -0.3378
18611TIP3    H277249   2.681   4.892  10.749  0.4994  0.0771 -0.2988
18612TIP3   OH277250   0.325   0.338   1.945  0.5186  0.0942  0.3415
18612TIP3    H177251   0.258   0.343   1.878 -0.0808 -1.0007  0.8198
18612TIP3    H277252   0.407   0.354   1.899 -0.0572  1.3713 -0.2620
18613TIP3   OH277253   5.030   1.732   6.120 -0.2734 -0.2999 -0.5935
18613TIP3    H177254   5.067   1.684   6.194  1.2648 -0.7632 -1.6204
18613TIP3    H277255   4.936   1.710   6.121 -0.0852 -1.1210  0.5694
18614TIP3   OH277256   5.033   3.421  13.026  0.2851  0.0778  1.1272
18614TIP3    H177257   4.961   3.483  13.012  0.5013  0.1292  0.1850
18614TIP3    H277258   5.110   3.466  12.993  0.5526 -0.4455  1.0301
18615TIP3   OH277259   4.251   4.283   0.219 -0.8608 -0.2598  0.1145
18615TIP3    H177260   4.163   4.246   0.209 -0.5022 -1.5096  1.2317
18615TIP3    H277261   4.309   4.207   0.221  0.1448  0.4908  0.4494
18616TIP3   OH277262   2.790   0.506  14.137  0.2818 -0.2008  0.7190
18616TIP3    H177263   2.778   0.554  14.055  0.7241  2.0518  1.9003
18616TIP3    H277264   2.705   0.464  14.153 -0.1475  0.2473 -0.3178
18617TIP3   OH277265   0.955   3.799   2.842  0.4482 -0.0217  0.5317
18617TIP3    H177266   1.031   3.760   2.800 -0.6151 -0.5899 -0.9302
18617TIP3    H277267   0.880   3.767   2.792 -0.9465 -1.0420  3.0479
18618TIP3   OH277268   4.987   4.179   0.052  0.0878 -0.5497 -0.1533
18618TIP3    H177269   5.031   4.128   0.120  1.1055  0.1014 -0.3022
18618TIP3    H277270   4.924   4.233   0.098 -0.8321 -1.7511  0.0336
18619TIP3   OH277271   1.406   0.706   4.005  0.2743 -0.5860  0.0828
18619TIP3    H177272   1.437   0.746   3.924  0.5760  0.0741  0.5252
18619TIP3    H277273   1.332   0.760   4.033  0.9644 -0.0519  0.9204
18620TIP3   OH277274   2.678   5.313   4.016  0.1297 -0.3286  0.8260
18620TIP3    H177275   2.717   5.240   4.065  0.7563 -0.2025  0.5243
18620TIP3    H277276   2.639   5.272   3.939  2.4872 -0.1388 -0.5662
18621TIP3   OH277277   2.178   0.090   1.582  0.1032 -0.4030 -0.2717
18621TIP3    H177278   2.190   0.026   1.512 -1.5399  0.0692 -1.0183
18621TIP3    H277279   2.242   0.158   1.562 -1.2185  0.3787 -2.1354
18622TIP3   OH277280   2.204   1.804  14.688 -0.1522  0.5359  0.2996
18622TIP3    H177281   2.160   1.762  14.614  1.1982 -0.5997  0.0964
18622TIP3    H277282   2.160   1.889  14.696 -1.4361  0.0182 -0.7365
18623TIP3   OH277283   2.214   3.132   2.440 -0.3872 -0.1400  0.3900
18623TIP3    H177284   2.207   3.119   2.534  0.4059  0.1532  0.5032
18623TIP3    H277285   2.157   3.207   2.421 -1.8359 -1.2135  0.3604
18624TIP3   OH277286   5.405   6.254  13.549  0.4343 -0.1374  0.0176
18624TIP3    H177287   5.469   6.198  13.506  1.8723  1.3875  0.1013
18624TIP3    H277288   5.418   6.239  13.643 -0.3626 -0.8975  0.0272
18625TIP3   OH277289   1.456   2.350  11.157 -0.1239 -0.0125 -0.4935
18625TIP3    H177290   1.394   2.414  11.123 -3.6755 -1.9283  1.7591
18625TIP3    H277291   1.458   2.281  11.092  0.1871  0.3394 -0.8629
18626TIP3   OH277292   3.943   3.168  13.338 -0.0612  0.0721  0.0769
18626TIP3    H177293   3.992   3.225  13.398  0.8723 -0.7780  0.1571
18626TIP3    H277294   4.006   3.099  13.315 -1.8330 -2.2521  1.7995
18627TIP3   OH277295   5.964   4.902  13.005  0.0187 -0.3425 -0.3391
18627TIP3    H177296   5.962   4.990  13.043  0.1678 -0.3462 -0.3226
18627TIP3    H277297   5.926   4.913  12.918 -1.3244 -0.5240  0.1881
18628TIP3   OH277298   0.124   4.803  11.785 -0.3974  0.6825  0.7374
18628TIP3    H177299   0.142   4.845  11.869 -0.4916  1.2736  0.4646
18628TIP3    H277300   0.208   4.805  11.738 -0.6208  1.3932  0.3637
18629TIP3   OH277301   3.615   6.309  11.512  0.7766 -0.2973  0.3345
18629TIP3    H177302   3.553   6.239  11.491  1.8333 -1.4655  0.9020
18629TIP3    H277303   3.589   6.339  11.599  0.3712 -0.0519  0.1266
18630TIP3   OH277304   4.031   5.126  15.882  0.0885 -0.4988 -1.4498
18630TIP3    H177305   4.114   5.173  15.877  1.3359 -2.4929 -0.9902
18630TIP3    H277306   3.966   5.193  15.901  1.4700  1.2419 -2.5336
18631TIP3   OH277307   2.919   1.766  16.971  0.1687  0.4741  0.6321
18631TIP3    H177308   2.851   1.734  17.030  0.8253 -2.0771  0.1322
18631TIP3    H277309   2.955   1.843  17.015 -1.1973  0.2603  2.2022
18632TIP3   OH277310   2.087   3.582   2.412  0.5491  0.1115  0.1901
18632TIP3    H177311   2.145   3.506   2.404 -0.0828 -0.2947 -0.6705
18632TIP3    H277312   2.126   3.635   2.482 -0.3535 -2.2409  2.6520
18633TIP3   OH277313   5.338   6.007  11.633 -0.1453  0.1373 -0.3497
18633TIP3    H177314   5.271   6.073  11.615  0.1602  0.6314  0.3070
18633TIP3    H277315   5.289   5.925  11.642 -0.7550  0.6178  0.8627
18634TIP3   OH277316   6.266   3.991   0.375  0.1004 -0.3317  0.8738
18634TIP3    H177317   6.258   3.919   0.313 -0.6168  0.6612 -0.2211
18634TIP3    H277318   6.354   3.981   0.411  0.3713 -1.1835  0.0253
18635TIP3   OH277319   2.706   1.230  12.483 -0.2690 -0.1600 -0.7357
18635TIP3    H177320   2.658   1.182  12.416 -1.0026 -1.8223  0.9098
18635TIP3    H277321   2.643   1.242  12.554  1.1127 -0.3962  0.5610
18636TIP3   OH277322   1.581   5.171  14.964 -0.1435 -0.1086 -0.3631
18636TIP3    H177323   1.629   5.120  14.899 -1.1449 -2.9914  0.9554
18636TIP3    H277324   1.637   5.170  15.041  0.1464  1.5297 -0.5270
18637TIP3   OH277325   4.166   4.596  12.019 -0.1013  0.2015 -0.0587
18637TIP3    H177326   4.092   4.536  12.010  1.6233 -1.9131 -0.8334
18637TIP3    H277327   4.189   4.594  12.112 -1.1477  1.0799  0.2354
18638TIP3   OH277328   6.678   1.545  13.614  0.0425  0.0440 -0.7617
18638TIP3    H177329   6.623   1.556  13.537 -0.6304  0.3879 -0.2397
18638TIP3    H277330   6.684   1.633  13.653  0.5140 -0.0918 -0.5162
18639TIP3   OH277331   5.213   2.656   6.145 -0.6068 -0.5882 -0.5502
18639TIP3    H177332   5.288   2.687   6.095  0.4746 -1.7650  0.2948
18639TIP3    H277333   5.209   2.714   6.221 -1.9448  0.8782 -1.6665
18640TIP3   OH277334   1.417   4.986  15.355 -0.5860  0.2377 -0.2430
18640TIP3    H177335   1.423   5.015  15.446 -1.1088 -0.8722  0.1626
18640TIP3    H277336   1.341   4.928  15.353  0.3607 -1.0250 -1.0365
18641TIP3   OH277337   6.591   4.411   6.147  0.7726 -0.2843  0.2234
18641TIP3    H177338   6.522   4.360   6.190  0.7977  0.3522  1.0320
18641TIP3    H277339   6.632   4.460   6.218  0.7121  0.9158 -0.5511
18642TIP3   OH277340   1.435   0.458   1.554 -0.1426  0.5167  0.3259
18642TIP3    H177341   1.522   0.460   1.595 -0.4151  0.6697  0.9048
18642TIP3    H277342   1.424   0.367   1.527 -0.5858  0.0434  1.9848
18643TIP3   OH277343   6.367   0.853  15.367 -0.5090  0.2762  0.2714
18643TIP3    H177344   6.314   0.914  15.316 -0.6899 -0.6176 -0.6237
18643TIP3    H277345   6.305   0.811  15.427 -0.6984 -0.2558 -0.2890
18644TIP3   OH277346   3.232   4.786  12.466  0.2493 -0.5776  0.1973
18644TIP3    H177347   3.196   4.762  12.551  1.5369 -0.3663  0.8094
18644TIP3    H277348   3.190   4.870  12.445 -1.2640 -1.3637 -0.1395
18645TIP3   OH277349   0.215   0.795   3.243 -0.2309 -0.0968 -0.3053
18645TIP3    H177350   0.155   0.721   3.235  0.0601 -0.4648  0.6880
18645TIP3    H277351   0.301   0.754   3.258 -0.1240  0.4292  0.6014
18646TIP3   OH277352   2.092   1.746   4.048 -0.1692  0.1232 -0.1371
18646TIP3    H177353   2.121   1.658   4.023  0.6406  0.6147 -0.9701
18646TIP3    H277354   2.127   1.803   3.980 -1.2775  1.0155  0.0212
18647TIP3   OH277355   1.819   2.511   4.278  0.1145 -0.6084 -0.2123
18647TIP3    H177356   1.783   2.577   4.218  2.4150  0.8731 -0.1098
18647TIP3    H277357   1.754   2.504   4.348 -0.3376  1.4365 -0.3543
18648TIP3   OH277358   1.300   3.314  14.566  0.3007  0.2206 -0.8065
18648TIP3    H177359   1.214   3.273  14.572  0.5485 -0.0477  2.2556
18648TIP3    H277360   1.319   3.316  14.472 -2.6442 -0.4802 -1.5113
18649TIP3   OH277361   5.198   1.762   0.252 -0.5878  0.7790  0.0481
18649TIP3    H177362   5.287   1.786   0.226 -0.6796  0.4661 -0.5677
18649TIP3    H277363   5.145   1.777   0.174 -0.7273 -0.9593 -0.2207
18650TIP3   OH277364   6.061   5.097  13.406  0.9421  0.3026  0.2742
18650TIP3    H177365   6.104   5.180  13.385  0.7076  0.2412 -0.4930
18650TIP3    H277366   6.001   5.082  13.332 -0.2770  0.3109  1.2287
18651TIP3   OH277367   4.685   3.856   0.868 -0.2698  0.3627 -0.1226
18651TIP3    H177368   4.599   3.859   0.826  0.2314  0.0413 -1.1943
18651TIP3    H277369   4.720   3.770   0.846 -1.2487 -1.1911  3.5967
18652TIP3   OH277370   2.383   1.134  14.256  0.2337 -0.5957 -0.1795
18652TIP3    H177371   2.387   1.039  14.257  1.3586 -0.5610 -0.0183
18652TIP3    H277372   2.337   1.157  14.337  1.6215 -0.9628  0.7506
18653TIP3   OH277373   4.396   0.631  16.035 -0.3526  0.1329  0.4263
18653TIP3    H177374   4.406   0.576  15.957  2.8035  0.5025  0.4560
18653TIP3    H277375   4.454   0.705  16.020 -2.5287  2.2301  1.5483
18654TIP3   OH277376   5.880   0.275   1.656 -0.3725 -0.1215 -0.4454
18654TIP3    H177377   5.874   0.349   1.596 -1.9252 -1.1054 -1.5954
18654TIP3    H277378   5.885   0.198   1.598 -2.1361 -1.1323  0.6594
18655TIP3   OH277379   2.107   5.326   4.860 -0.7374  0.4317 -0.7359
18655TIP3    H177380   2.137   5.332   4.951 -3.4523 -0.3638  0.3349
18655TIP3    H277381   2.105   5.417   4.829  0.8816  0.6468 -0.2769
18656TIP3   OH277382   2.626   2.920   1.450 -0.2585 -0.3840 -0.7178
18656TIP3    H177383   2.643   3.011   1.471  0.5552 -0.7228  0.1682
18656TIP3    H277384   2.640   2.873   1.533  1.6311 -1.5935 -1.6632
18657TIP3   OH277385   2.427   3.774  12.115  0.0749 -0.3594 -0.9233
18657TIP3    H177386   2.374   3.731  12.182 -0.8436  0.3632 -1.1701
18657TIP3    H277387   2.473   3.702  12.071 -0.8951 -1.0240 -0.8726
18658TIP3   OH277388   6.557   1.831  16.335 -0.2407  0.7773 -0.4304
18658TIP3    H177389   6.468   1.799  16.328 -0.3857  0.3219  2.6064
18658TIP3    H277390   6.601   1.770  16.394  2.2158  0.8463 -2.0068
18659TIP3   OH277391   6.758   0.219  16.522  0.1819 -0.5061 -0.0373
18659TIP3    H177392   6.785   0.167  16.597 -1.0781 -2.0698 -0.6084
18659TIP3    H277393   6.812   0.187  16.449 -0.3341 -0.7652 -0.3127
18660TIP3   OH277394   3.405   1.916   1.600 -0.2936  0.6109  0.8210
18660TIP3    H177395   3.387   1.823   1.613 -1.6350  0.9322  1.4502
18660TIP3    H277396   3.452   1.921   1.517 -0.2042 -0.6305  0.7918
18661TIP3   OH277397   3.944   1.608  15.102  0.4995  0.2045 -0.0599
18661TIP3    H177398   3.974   1.631  15.190 -0.1775  1.0310 -0.0271
18661TIP3    H277399   3.856   1.646  15.096 -1.3030 -3.5070  0.4209
18662TIP3   OH277400   5.663   1.332  14.308  0.1730  0.2128 -0.2422
18662TIP3    H177401   5.573   1.356  14.285  0.0213 -1.9471 -2.2895
18662TIP3    H277402   5.655   1.246  14.348  1.3630 -0.2317 -0.9074
18663TIP3   OH277403   6.100   1.891  10.592 -0.3936  0.4148 -0.4023
18663TIP3    H177404   6.074   1.822  10.653 -0.4401  0.5703 -0.2457
18663TIP3    H277405   6.183   1.860  10.555 -1.6470 -0.9855 -2.2831
18664TIP3   OH277406   5.627   0.023  13.840  1.1073 -0.5823  0.5745
18664TIP3    H177407   5.673   0.002  13.759  0.1806  2.1637 -0.7789
18664TIP3    H277408   5.545  -0.026  13.834  0.4832  0.5362 -0.8462
18665TIP3   OH277409   3.363   0.033  11.758 -0.0075  0.1895 -0.1989
18665TIP3    H177410   3.414   0.011  11.680  2.4636  2.1309  0.7572
18665TIP3    H277411   3.307   0.106  11.731  2.3758  2.2940  0.2768
18666TIP3   OH277412   4.907   5.709  12.357  0.0594 -0.5002  0.0725
18666TIP3    H177413   4.999   5.737  12.354 -0.2234  0.3806 -1.0352
18666TIP3    H277414   4.910   5.616  12.334  0.6490 -0.3947 -0.3212
18667TIP3   OH277415   0.320   2.240  16.599  0.0031  0.5065  0.4253
18667TIP3    H177416   0.364   2.294  16.665  0.1356  1.8961 -0.7585
18667TIP3    H277417   0.277   2.303  16.542 -1.2710 -0.7329 -0.0187
18668TIP3   OH277418   5.916   5.382  14.351  1.0070  0.2046  0.2024
18668TIP3    H177419   5.831   5.346  14.326  0.4811 -1.2098  3.5070
18668TIP3    H277420   5.979   5.336  14.295 -0.2307  0.0070 -1.0973
18669TIP3   OH277421   3.658   0.527  13.281 -0.1635 -1.1114  0.4000
18669TIP3    H177422   3.739   0.555  13.325  0.3241 -0.7721 -0.6711
18669TIP3    H277423   3.588   0.567  13.333  0.4834  1.8700 -0.7763
18670TIP3   OH277424   3.331   0.678   3.583 -0.6140  0.7595  0.0582
18670TIP3    H177425   3.389   0.678   3.660  0.8711  2.1643 -0.9902
18670TIP3    H277426   3.370   0.612   3.525 -0.6774  0.9772 -0.2293
18671TIP3   OH277427   0.181   5.222  10.265 -0.1674 -0.1742  0.3250
18671TIP3    H177428   0.247   5.154  10.269 -0.3045 -0.4505 -1.4051
18671TIP3    H277429   0.230   5.302  10.246 -0.2005 -0.1508  0.3371
18672TIP3   OH277430   4.907   6.375  16.840  0.2373 -1.0248 -0.1738
18672TIP3    H177431   4.982   6.435  16.838 -1.1056  0.8342  1.6952
18672TIP3    H277432   4.865   6.392  16.924 -0.7364 -4.0196  0.0606
18673TIP3   OH277433   3.820   2.330   4.342 -0.6745  0.0672 -0.7866
18673TIP3    H177434   3.742   2.381   4.363 -2.0180 -1.5015 -1.6555
18673TIP3    H277435   3.805   2.245   4.384  1.6328  0.3885  0.9008
18674TIP3   OH277436   5.799   0.674  15.861  0.0742 -0.1492  0.0813
18674TIP3    H177437   5.745   0.737  15.814 -0.5747  0.0367  1.0318
18674TIP3    H277438   5.801   0.707  15.951  2.7786  0.4988 -0.1305
18675TIP3   OH277439   5.595   1.154   5.271  0.1107 -0.2591  0.4796
18675TIP3    H177440   5.666   1.185   5.327  0.8531  0.2847 -0.7198
18675TIP3    H277441   5.517   1.158   5.326  1.0200 -1.0482  1.8867
18676TIP3   OH277442   5.677   1.254   0.521 -0.5581  0.1858 -0.0825
18676TIP3    H177443   5.713   1.166   0.509 -1.2294  0.1993 -2.8374
18676TIP3    H277444   5.606   1.260   0.457 -0.7885  2.6090  0.3059
18677TIP3   OH277445   6.092   3.026  13.836  0.1996 -0.5204  0.1000
18677TIP3    H177446   6.010   3.069  13.811  0.1734 -0.5220  0.1826
18677TIP3    H277447   6.086   3.017  13.931  0.5971  0.1024  0.1907
18678TIP3   OH277448   3.366   6.513  11.971  0.0568  0.0532  0.1093
18678TIP3    H177449   3.297   6.578  11.978  0.5489  0.6792 -0.7920
18678TIP3    H277450   3.342   6.446  12.036  0.1089  1.6226  1.8242
18679TIP3   OH277451   5.633   5.239  13.351 -0.1637 -0.1154  0.2458
18679TIP3    H177452   5.662   5.307  13.290 -1.3052 -2.0523 -2.6461
18679TIP3    H277453   5.688   5.163  13.330 -2.1514 -1.5443 -0.0737
18680TIP3   OH277454   5.413   5.236   1.755  0.6466  0.0422  0.7304
18680TIP3    H177455   5.479   5.240   1.824  1.1664 -0.9105  0.2924
18680TIP3    H277456   5.392   5.328   1.737  0.7946  0.3160  1.8668
18681TIP3   OH277457   1.780   1.499   2.445 -0.9848 -0.1677 -0.2812
18681TIP3    H177458   1.685   1.511   2.449 -0.8205  0.8783  1.0063
18681TIP3    H277459   1.792   1.404   2.447 -2.0307 -0.3889 -2.0364
18682TIP3   OH277460   4.939   6.200   0.903 -0.6430 -0.1100 -0.6491
18682TIP3    H177461   5.022   6.182   0.858 -0.2714 -0.3636  0.1275
18682TIP3    H277462   4.879   6.134   0.867 -0.1077 -0.9122 -0.1199
18683TIP3   OH277463   2.329   6.747   5.035 -0.3656  0.6862 -0.0889
18683TIP3    H177464   2.279   6.697   5.100 -0.8408 -0.1738 -1.0911
18683TIP3    H277465   2.415   6.705   5.035 -1.0092 -0.7234 -1.5159
18684TIP3   OH277466   6.606   0.462   1.224  0.1079 -0.1661  0.7684
18684TIP3    H177467   6.520   0.455   1.266 -1.5015  1.1791 -1.9584
18684TIP3    H277468   6.596   0.412   1.143  2.5063 -1.3543  1.1286
18685TIP3   OH277469   3.393   6.537   4.065 -0.3454 -0.9459 -0.3427
18685TIP3    H177470   3.447   6.491   4.129  0.0974 -1.6932 -1.2340
18685TIP3    H277471   3.385   6.477   3.992 -2.5793 -0.9548 -0.1747
18686TIP3   OH277472   4.143   5.406   2.823 -0.1695 -0.1726 -0.0751
18686TIP3    H177473   4.130   5.312   2.838 -0.2753 -0.0802  0.4449
18686TIP3    H277474   4.065   5.447   2.860  0.7004  0.2462  1.3859
18687TIP3   OH277475   6.652   6.263  15.471  0.0890  0.6671 -0.9529
18687TIP3    H177476   6.638   6.185  15.417 -0.2224 -0.4759  0.6951
18687TIP3    H277477   6.601   6.247  15.550  0.7877  2.1215 -0.1621
18688TIP3   OH277478   4.804   5.626   0.209 -0.2218 -0.2661  0.7047
18688TIP3    H177479   4.830   5.619   0.301  1.1932  1.2901  0.4609
18688TIP3    H277480   4.754   5.708   0.204  1.6714  0.8962 -0.2925
18689TIP3   OH277481   0.043   1.553   2.969  0.0815  0.0767 -0.5483
18689TIP3    H177482   0.030   1.600   3.052  1.1978  0.4428 -0.5564
18689TIP3    H277483  -0.042   1.515   2.949  0.0007 -0.7860  1.2410
18690TIP3   OH277484   1.594   0.764  13.178 -0.1561  0.0939 -0.3557
18690TIP3    H177485   1.614   0.837  13.236  2.5470 -0.6336 -0.2088
18690TIP3    H277486   1.601   0.687  13.234 -1.4481 -0.3949 -0.8387
18691TIP3   OH277487   2.013   0.796   4.121  0.3072  0.1651 -0.1149
18691TIP3    H177488   2.004   0.710   4.082  0.7710  0.9101 -1.9693
18691TIP3    H277489   2.107   0.806   4.136  0.4246  0.8591 -1.2039
18692TIP3   OH277490   6.730   2.816  14.472  0.2250 -0.2434 -0.2699
18692TIP3    H177491   6.716   2.886  14.536  2.5710 -0.9532  1.1304
18692TIP3    H277492   6.813   2.839  14.430 -0.8155 -0.2804 -2.4858
18693TIP3   OH277493   0.307   2.018   0.670  0.1924 -0.3503 -0.2854
18693TIP3    H177494   0.393   1.978   0.687  0.1944 -0.8336 -1.3735
18693TIP3    H277495   0.326   2.111   0.657  0.5533 -0.4585 -0.5431
18694TIP3   OH277496   3.002   0.746   6.260 -0.5370  0.1006  0.4971
18694TIP3    H177497   2.999   0.753   6.164 -0.2942 -2.1089  0.2550
18694TIP3    H277498   3.064   0.813   6.287 -1.0712  1.1897 -0.8187
18695TIP3   OH277499   2.090   5.256   1.917  0.2787 -0.2591 -0.3189
18695TIP3    H177500   2.161   5.315   1.941 -1.5300  1.9238 -0.0371
18695TIP3    H277501   2.041   5.304   1.850 -1.9229 -0.9081  0.7345
18696TIP3   OH277502   3.161   5.795  15.921 -0.0435 -0.7482 -0.5113
18696TIP3    H177503   3.085   5.824  15.971  0.0102  0.6200 -1.1636
18696TIP3    H277504   3.128   5.784  15.832  0.9355  2.2393 -1.3628
18697TIP3   OH277505   1.758   2.109   2.582  0.4046  0.3065 -0.6592
18697TIP3    H177506   1.688   2.170   2.561  1.5764  1.8327 -0.2844
18697TIP3    H277507   1.736   2.030   2.532 -1.4001  0.8259 -0.7846
18698TIP3   OH277508   1.133   1.250   2.473  0.0536 -0.4598 -0.0830
18698TIP3    H177509   1.041   1.272   2.456 -0.2971 -1.2327  0.7553
18698TIP3    H277510   1.182   1.308   2.414 -0.9182  0.7501  0.2460
18699TIP3   OH277511   3.287   5.634   0.749 -1.0049  0.0230  0.3868
18699TIP3    H177512   3.322   5.550   0.781  2.1987  0.4717 -1.4882
18699TIP3    H277513   3.260   5.680   0.828 -1.6025 -2.2070  1.5877
18700TIP3   OH277514   6.390   4.166  14.935 -0.0878  0.2747  0.7417
18700TIP3    H177515   6.341   4.094  14.895 -0.1795  0.6512  0.1748
18700TIP3    H277516   6.368   4.243  14.883  1.5383  0.3512  0.1048
18701TIP3   OH277517   1.695   5.425   3.847 -0.2423  0.1505 -0.9010
18701TIP3    H177518   1.722   5.462   3.763  1.1370 -0.0272 -0.5708
18701TIP3    H277519   1.755   5.352   3.861  0.3560  0.9025  0.7803
18702TIP3   OH277520   4.861   0.636   2.908 -0.4043  0.1867  0.3933
18702TIP3    H177521   4.803   0.571   2.870 -1.8032  1.7561 -0.2838
18702TIP3    H277522   4.909   0.589   2.976  1.0505 -2.3519 -2.1406
18703TIP3   OH277523   1.044   3.002  13.661  0.7885  0.3193  0.3632
18703TIP3    H177524   1.070   3.094  13.663  0.4957  0.4146 -0.0581
18703TIP3    H277525   1.098   2.964  13.592  0.7349  0.2334  0.3690
18704TIP3   OH277526   3.481   4.555  10.590  0.5335  0.1323  0.4568
18704TIP3    H177527   3.575   4.561  10.573  1.2348  0.9300  3.7494
18704TIP3    H277528   3.463   4.461  10.597  1.1282 -0.0216 -0.0298
18705TIP3   OH277529   3.163   0.197  14.658 -0.0450  0.3052 -0.1275
18705TIP3    H177530   3.178   0.250  14.579  1.4743 -0.8543 -0.6775
18705TIP3    H277531   3.202   0.248  14.729  2.0571 -0.3058 -0.7579
18706TIP3   OH277532   1.757   6.634   3.370  0.0377 -0.7210 -0.3290
18706TIP3    H177533   1.771   6.557   3.315  0.0000 -0.7072 -0.3585
18706TIP3    H277534   1.680   6.676   3.333  0.3332 -0.4139 -0.6047
18707TIP3   OH277535   1.573   4.433   6.366 -0.1589 -0.1792  0.3324
18707TIP3    H177536   1.569   4.401   6.456  0.4251  1.1734  0.8592
18707TIP3    H277537   1.490   4.406   6.327  0.1027 -1.8955  0.8703
18708TIP3   OH277538   2.685   3.914  13.627  0.2311  0.5173 -0.3096
18708TIP3    H177539   2.622   3.844  13.642  2.0149 -1.1900 -0.4011
18708TIP3    H277540   2.735   3.886  13.549  0.2400  2.4602 -1.0530
18709TIP3   OH277541   2.934   5.956   2.206 -0.0160  0.6236 -0.0629
18709TIP3    H177542   2.990   5.888   2.244  1.0572  1.4941 -0.0309
18709TIP3    H277543   2.848   5.940   2.243  0.4668 -0.0488  0.8073
18710TIP3   OH277544   1.327   4.695   2.467 -0.4601 -0.0122 -0.2251
18710TIP3    H177545   1.294   4.780   2.495 -0.3449 -0.3575  0.9875
18710TIP3    H277546   1.415   4.713   2.433 -0.5038  0.3778 -0.1325
18711TIP3   OH277547   3.008   5.040  11.812 -0.6372 -0.1288  0.1337
18711TIP3    H177548   3.050   5.031  11.727 -1.3312  0.5369 -0.2878
18711TIP3    H277549   2.953   5.118  11.804  0.1035  0.5630  1.5295
18712TIP3   OH277550   1.014   0.345  11.353  0.4392 -0.0219  0.4117
18712TIP3    H177551   0.983   0.432  11.327  0.6315 -0.0107  0.2108
18712TIP3    H277552   1.109   0.349  11.339  0.6318  0.1597  1.6288
18713TIP3   OH277553   3.183   0.231   0.836 -0.1517 -0.0166  0.2176
18713TIP3    H177554   3.108   0.243   0.777  0.9516  0.0630 -1.2083
18713TIP3    H277555   3.143   0.208   0.920 -1.7540 -0.7910 -0.7058
18714TIP3   OH277556   5.843   1.372  11.785 -0.0576  0.4715 -0.2030
18714TIP3    H177557   5.876   1.310  11.720 -0.9892  0.4976 -0.7063
18714TIP3    H277558   5.788   1.432  11.736 -0.5476  0.6640  0.5695
18715TIP3   OH277559   6.397   4.788   0.008 -0.4364 -0.3141  0.2367
18715TIP3    H177560   6.324   4.833  -0.035  0.6632  0.0654 -1.3192
18715TIP3    H277561   6.407   4.834   0.091 -1.0625  0.5509 -0.1455
18716TIP3   OH277562   3.963   6.065   5.476 -0.0596  0.3666  0.2056
18716TIP3    H177563   3.882   6.014   5.486 -0.1665 -0.0826 -2.2383
18716TIP3    H277564   3.936   6.156   5.489 -1.0175  0.2434 -0.7684
18717TIP3   OH277565   3.290   2.591   5.573  0.1220  0.2317  0.0864
18717TIP3    H177566   3.276   2.683   5.551 -0.1144  0.2691  0.3856
18717TIP3    H277567   3.368   2.591   5.629 -0.3290  0.3442  0.7316
18718TIP3   OH277568   0.399   3.014  14.893  0.2825 -0.2706  0.5537
18718TIP3    H177569   0.352   2.931  14.894  0.5554 -0.4272  0.3533
18718TIP3    H277570   0.349   3.070  14.833  0.9662 -0.7983 -0.5404
18719TIP3   OH277571   0.907   3.349  14.317  0.7414 -0.1108  0.0534
18719TIP3    H177572   0.957   3.419  14.274  2.3258 -0.0793  1.8024
18719TIP3    H277573   0.962   3.271  14.306 -1.0082 -1.1489 -1.8806
18720TIP3   OH277574   4.651   4.993  11.523  0.4105 -0.2232  0.6171
18720TIP3    H177575   4.690   4.996  11.436 -0.6964  0.2315  0.1108
18720TIP3    H277576   4.681   4.910  11.560  2.2212  0.3375  0.4668
18721TIP3   OH277577   1.437   6.291  12.949 -0.1304 -0.0119 -0.0257
18721TIP3    H177578   1.437   6.234  13.026 -0.2046 -3.3622 -2.2606
18721TIP3    H277579   1.376   6.361  12.970 -1.4514 -1.7300  2.3292
18722TIP3   OH277580   0.556   0.508   0.386  0.5374 -0.0461  0.1525
18722TIP3    H177581   0.583   0.545   0.303 -1.1519 -0.4243 -0.6125
18722TIP3    H277582   0.535   0.417   0.366 -0.5591  0.0381  0.8178
18723TIP3   OH277583   4.274   4.965  15.638 -0.2469  1.0957 -0.0070
18723TIP3    H177584   4.363   4.932  15.649 -0.2353  1.0038 -0.3824
18723TIP3    H277585   4.270   5.042  15.695 -0.1720  0.6512  0.6203
18724TIP3   OH277586   1.752   3.841   4.843  0.2239  0.0324 -0.6415
18724TIP3    H177587   1.767   3.898   4.768 -0.8352  0.3398 -0.6352
18724TIP3    H277588   1.831   3.850   4.896  2.5921 -2.7713 -3.2820
18725TIP3   OH277589   5.676   1.635  16.640  0.0635  0.5905 -0.0080
18725TIP3    H177590   5.655   1.543  16.628 -0.4077  0.3171  2.4870
18725TIP3    H277591   5.721   1.660  16.559 -1.8016 -1.1811 -1.7090
18726TIP3   OH277592   0.174   4.633  13.874 -0.4204 -0.2573 -0.4758
18726TIP3    H177593   0.204   4.545  13.851  0.3995  0.0161 -0.4798
18726TIP3    H277594   0.173   4.633  13.970  0.1998 -0.0742 -0.4648
18727TIP3   OH277595   6.355   3.123  16.342 -0.9244  0.1813  0.0839
18727TIP3    H177596   6.288   3.074  16.391 -1.5124  1.3467  0.4868
18727TIP3    H277597   6.404   3.170  16.410  0.6267 -1.0098 -0.1702
18728TIP3   OH277598   2.935   3.448  12.619 -0.1225  0.3893  0.2328
18728TIP3    H177599   2.979   3.399  12.689  2.0117  2.1188  0.2172
18728TIP3    H277600   2.845   3.458  12.650  0.1416 -0.9523  1.5730
18729TIP3   OH277601   5.777   4.881  14.807  0.0483 -0.0861 -0.2743
18729TIP3    H177602   5.834   4.954  14.832  0.1662  0.2457 -1.4258
18729TIP3    H277603   5.693   4.921  14.787  0.0510 -0.2807 -0.7062
18730TIP3   OH277604   3.590   2.081   4.980 -0.2666 -0.6682 -0.1383
18730TIP3    H177605   3.513   2.024   4.970  0.8676 -2.3926  0.4294
18730TIP3    H277606   3.601   2.121   4.894 -1.1214 -1.2837 -0.5559
18731TIP3   OH277607   1.185   4.378   3.682 -0.5579  0.0365  0.0897
18731TIP3    H177608   1.197   4.418   3.596  0.0155 -1.8812 -0.7662
18731TIP3    H277609   1.224   4.291   3.674  0.7429  0.2630  2.6821
18732TIP3   OH277610   5.850   1.994   2.210 -0.5754  0.3442 -0.0919
18732TIP3    H177611   5.902   1.914   2.202  1.9359  1.6158  2.1849
18732TIP3    H277612   5.762   1.963   2.233  0.2720 -1.7666  0.5216
18733TIP3   OH277613   4.853   4.472  13.685  0.5569 -0.2763 -0.1641
18733TIP3    H177614   4.863   4.566  13.671  1.6443 -0.4437 -0.5523
18733TIP3    H277615   4.915   4.431  13.625 -1.0298 -1.3261 -1.1760
18734TIP3   OH277616   3.765   2.024  15.662 -0.2955  0.0299  0.1706
18734TIP3    H177617   3.692   2.077  15.694  0.1330  0.7686 -0.0596
18734TIP3    H277618   3.736   1.933  15.673  0.0836  0.2021  3.2130
18735TIP3   OH277619   6.667   0.898   0.218 -0.1125 -0.1888 -0.2491
18735TIP3    H177620   6.599   0.833   0.202 -0.4062 -0.1802  0.8924
18735TIP3    H277621   6.688   0.889   0.311 -0.6270  1.7626  0.1085
18736TIP3   OH277622   0.958   3.102  10.984 -0.2440 -0.4628  0.3395
18736TIP3    H177623   0.961   3.182  11.036 -2.0762  0.2852 -0.6237
18736TIP3    H277624   0.866   3.078  10.980 -0.0492 -1.1369 -1.5522
18737TIP3   OH277625   6.509   5.481  10.408  0.6702  0.0354 -0.3957
18737TIP3    H177626   6.595   5.439  10.411  1.9788  2.4411 -1.2191
18737TIP3    H277627   6.521   5.554  10.348 -1.7763  0.8955  0.0653
18738TIP3   OH277628   4.154   0.806   4.165  0.1839 -0.3641 -0.4657
18738TIP3    H177629   4.122   0.737   4.106 -0.4583 -0.4574 -0.0157
18738TIP3    H277630   4.075   0.852   4.193  0.2464 -1.4228  1.7018
18739TIP3   OH277631   4.739   5.909  15.228  0.0629 -0.5856  0.3977
18739TIP3    H177632   4.782   5.915  15.143  1.4695 -0.3246  1.1110
18739TIP3    H277633   4.688   5.828  15.223  1.0009 -1.1551 -0.3062
18740TIP3   OH277634   1.256   4.851   3.839 -0.0929  0.0842  0.2660
18740TIP3    H177635   1.295   4.921   3.891 -0.1823  1.3706 -1.3192
18740TIP3    H277636   1.162   4.857   3.857  0.0801 -1.0481  1.7493
18741TIP3   OH277637   5.173   2.514   5.314 -0.3580  0.0329  0.2626
18741TIP3    H177638   5.087   2.543   5.343 -0.6042  0.1932 -0.6040
18741TIP3    H277639   5.235   2.570   5.361 -0.7433  0.2434  0.5184
18742TIP3   OH277640   5.278   1.293  16.114  0.4486  0.3813 -0.3303
18742TIP3    H177641   5.355   1.310  16.167 -1.1728  0.7609  2.0629
18742TIP3    H277642   5.283   1.199  16.094  1.6085  0.4485 -0.4323
18743TIP3   OH277643   4.514   5.794  14.898 -0.2122  1.0089  0.0996
18743TIP3    H177644   4.545   5.864  14.840 -1.6428  1.4757 -0.1508
18743TIP3    H277645   4.589   5.736  14.908  0.2859  1.2953 -1.6698
18744TIP3   OH277646   2.368   4.902  13.965  0.2977  0.5633 -0.0878
18744TIP3    H177647   2.372   4.881  13.872 -0.7826 -1.2470  0.2194
18744TIP3    H277648   2.457   4.889  13.997  0.1872 -1.3379 -0.4215
18745TIP3   OH277649   3.922   5.316   3.876  0.0253  0.3225 -0.4251
18745TIP3    H177650   3.982   5.241   3.872 -0.8816 -0.3491 -2.4748
18745TIP3    H277651   3.971   5.387   3.833  0.4286  0.6042  0.4723
18746TIP3   OH277652   4.030   6.800  13.874 -0.3774 -0.2015 -0.3372
18746TIP3    H177653   4.117   6.838  13.867 -0.1742 -0.4465  0.7400
18746TIP3    H277654   4.041   6.709  13.847  0.3750 -1.1025  2.6196
18747TIP3   OH277655   5.433   6.289  14.062  0.6728  0.0267  0.5463
18747TIP3    H177656   5.516   6.326  14.031  0.0819 -0.6326 -2.0588
18747TIP3    H277657   5.397   6.244  13.986 -2.3584  0.7423  1.4269
18748TIP3   OH277658   0.703   1.316   1.011 -0.1180 -0.7972  0.2304
18748TIP3    H177659   0.673   1.293   0.924  0.4524 -0.5734 -0.0282
18748TIP3    H277660   0.637   1.376   1.045 -0.2562 -0.7637 -0.1043
18749TIP3   OH277661   3.479   5.241   2.765  0.0495  0.4661 -0.7058
18749TIP3    H177662   3.552   5.208   2.714  2.5632  2.3233  1.4546
18749TIP3    H277663   3.429   5.162   2.788  1.5293 -0.9117 -1.9973
18750TIP3   OH277664   6.191   2.781   1.224  0.3893 -0.3266  0.4324
18750TIP3    H177665   6.255   2.814   1.161 -0.8604 -0.1146 -0.7783
18750TIP3    H277666   6.233   2.793   1.310  1.1545  1.7081 -0.1569
18751TIP3   OH277667   1.879   4.028   1.576  0.6401  0.0771 -0.0279
18751TIP3    H177668   1.798   4.079   1.577  0.2848 -0.4066 -1.4698
18751TIP3    H277669   1.947   4.091   1.597 -0.2652  0.0578  3.4562
18752TIP3   OH277670   5.098   0.741   3.534  0.3102 -0.0594  0.2704
18752TIP3    H177671   5.087   0.822   3.584 -2.9529  0.1671 -0.6192
18752TIP3    H277672   5.086   0.769   3.443 -3.0848 -1.7379  0.0615
18753TIP3   OH277673   0.550   4.379  14.121  0.5565  0.3084  0.2192
18753TIP3    H177674   0.458   4.379  14.150  1.0936 -3.1331  2.4500
18753TIP3    H277675   0.548   4.330  14.039  0.4395 -0.3849  0.6243
18754TIP3   OH277676   6.730   4.339  14.177  0.4021 -0.3563  0.3329
18754TIP3    H177677   6.738   4.325  14.082  2.3431 -2.1728  0.6906
18754TIP3    H277678   6.672   4.415  14.185  1.4638  0.8808 -2.3659
18755TIP3   OH277679   0.327   6.119  13.387  0.0663 -0.2668 -0.6422
18755TIP3    H177680   0.293   6.196  13.341 -1.0706 -0.1662  0.3285
18755TIP3    H277681   0.272   6.047  13.356 -1.2789 -0.0653  1.1152
18756TIP3   OH277682   6.007   3.268  14.047 -0.2377 -0.4385  0.1917
18756TIP3    H177683   6.035   3.340  13.990 -1.1255 -1.4385 -1.5847
18756TIP3    H277684   5.912   3.262  14.033 -0.3439 -1.2646  1.1576
18757TIP3   OH277685   1.773   3.169  13.818 -0.3284  0.3702 -0.5097
18757TIP3    H177686   1.747   3.148  13.728 -0.0867  0.3834 -0.5817
18757TIP3    H277687   1.800   3.085  13.854 -0.2617  0.3945 -0.5034
18758TIP3   OH277688   4.163   2.043   2.825 -0.3055  0.0724 -0.5366
18758TIP3    H177689   4.068   2.053   2.816 -0.2081  0.3438 -1.3527
18758TIP3    H277690   4.175   2.015   2.915 -1.0952  1.0206 -0.1097
18759TIP3   OH277691   6.115   0.052  12.624  0.2789 -0.4068 -0.1778
18759TIP3    H177692   6.081  -0.027  12.581  0.7586 -0.5027 -0.3868
18759TIP3    H277693   6.194   0.023  12.668  0.7634  0.0679 -0.7101
18760TIP3   OH277694   6.783   2.875   1.750 -0.1775 -0.2278  0.5182
18760TIP3    H177695   6.874   2.893   1.772 -0.5694  2.0453  0.4389
18760TIP3    H277696   6.782   2.781   1.730  2.1422 -0.3048  0.4747
18761TIP3   OH277697   1.960   2.273   2.728  0.3444  0.0829  0.1814
18761TIP3    H177698   2.031   2.302   2.671  0.4726  0.9910  0.7733
18761TIP3    H277699   1.896   2.233   2.669  1.5025 -1.0895 -0.3149
18762TIP3   OH277700   3.038   3.815   4.185  0.9041  0.0373 -0.0072
18762TIP3    H177701   3.064   3.815   4.093 -1.6822  0.5552 -0.8230
18762TIP3    H277702   2.960   3.760   4.188  0.7718  0.2533  1.8403
18763TIP3   OH277703   4.164   1.319  16.876  0.0551 -0.6385  0.3880
18763TIP3    H177704   4.142   1.226  16.876 -1.3754 -0.3508 -0.9470
18763TIP3    H277705   4.204   1.334  16.790  1.0179 -0.1616  0.9047
18764TIP3   OH277706   2.050   1.066  14.248  0.4037  0.1554 -0.5586
18764TIP3    H177707   2.016   1.064  14.337  2.3548 -0.9519  0.2071
18764TIP3    H277708   2.092   1.151  14.239  0.1904  0.2736 -0.4393
18765TIP3   OH277709   5.008   1.559  12.170  0.4348  0.2673 -0.0127
18765TIP3    H177710   4.949   1.583  12.099 -1.2759  0.6244  1.4591
18765TIP3    H277711   5.066   1.634  12.180 -0.3359  0.8743 -0.0302
18766TIP3   OH277712   6.316   1.016  12.808  0.2066  0.7569  0.0685
18766TIP3    H177713   6.358   1.070  12.742 -2.5029  1.0695 -1.5768
18766TIP3    H277714   6.226   1.006  12.777 -0.9898  0.1650  3.2856
18767TIP3   OH277715   3.510   1.236   3.453  0.2501  0.0573 -0.6883
18767TIP3    H177716   3.583   1.179   3.479 -0.7667 -0.5603  0.9107
18767TIP3    H277717   3.455   1.242   3.530 -2.0777 -0.5119 -2.2095
18768TIP3   OH277718   6.560   0.607   3.825 -0.2606 -0.1604 -0.5003
18768TIP3    H177719   6.561   0.690   3.873 -0.4315  0.7690 -2.0362
18768TIP3    H277720   6.494   0.554   3.870 -1.5838  1.2812 -0.6495
18769TIP3   OH277721   0.873   0.293  14.139  0.2926  0.3128 -0.8381
18769TIP3    H177722   0.865   0.220  14.200 -1.1885  1.3708  0.3076
18769TIP3    H277723   0.939   0.264  14.075 -0.3448 -2.0491 -0.5142
18770TIP3   OH277724   3.780   2.629  14.000 -0.2285  0.3755 -0.2595
18770TIP3    H177725   3.784   2.660  13.910 -0.1652  1.4577  0.1078
18770TIP3    H277726   3.695   2.660  14.033 -0.4038 -0.3040 -0.0416
18771TIP3   OH277727   3.157   5.315  14.065 -0.0360  0.4965  0.1114
18771TIP3    H177728   3.078   5.312  14.011 -0.0410  1.1101  0.0756
18771TIP3    H277729   3.169   5.225  14.095 -0.9505  0.4607  0.4104
18772TIP3   OH277730   2.746   3.591  10.591  0.6946 -0.1423  0.3801
18772TIP3    H177731   2.727   3.659  10.657  1.8539  0.5173  0.0532
18772TIP3    H277732   2.671   3.595  10.531  2.3440  3.5080 -1.7864
18773TIP3   OH277733   5.391   3.129  11.696 -0.2777  0.1208 -0.1996
18773TIP3    H177734   5.476   3.172  11.701 -0.1206 -0.3035  2.4225
18773TIP3    H277735   5.328   3.200  11.701 -0.0665  0.3677 -1.0205
18774TIP3   OH277736   2.253   4.866   4.832 -0.1952 -0.4845 -0.2917
18774TIP3    H177737   2.319   4.799   4.815  1.7373  1.7970 -2.5485
18774TIP3    H277738   2.298   4.931   4.886 -1.8192 -0.5866  1.2900
18775TIP3   OH277739   3.336   0.423  14.818 -1.3087 -0.5717  0.1883
18775TIP3    H177740   3.413   0.380  14.781 -1.2334 -0.7216  0.5151
18775TIP3    H277741   3.325   0.382  14.904 -0.9204  0.4300  0.7294
18776TIP3   OH277742   2.654   5.887  12.389  0.2097  0.0321 -0.1102
18776TIP3    H177743   2.688   5.849  12.308  0.0513 -0.3888  0.0172
18776TIP3    H277744   2.683   5.978  12.387  3.5007 -0.8804  1.1989
18777TIP3   OH277745   2.377   4.967  16.109 -0.2766 -0.1984  0.7166
18777TIP3    H177746   2.325   5.033  16.155  1.5185  0.9949  1.1509
18777TIP3    H277747   2.421   4.918  16.178  0.5964  0.0509  0.3634
18778TIP3   OH277748   3.725   3.580   3.361 -0.5095 -0.8685  0.0846
18778TIP3    H177749   3.747   3.574   3.454 -1.0596 -2.5756  0.1397
18778TIP3    H277750   3.634   3.611   3.361  0.0969  1.0047  0.0259
18779TIP3   OH277751   4.536   0.769   2.953  0.2171  0.3342  0.0243
18779TIP3    H177752   4.622   0.804   2.928 -0.1502  0.7768 -0.6527
18779TIP3    H277753   4.477   0.844   2.948 -0.0920  0.1969  1.1763
18780TIP3   OH277754   1.687   5.369   2.488 -0.1882 -0.3382 -0.0482
18780TIP3    H177755   1.612   5.310   2.474 -0.3858  0.0502 -0.6477
18780TIP3    H277756   1.690   5.423   2.409 -0.1881  0.6623  0.6229
18781TIP3   OH277757   2.748   5.395   2.913  0.3641 -0.7405 -0.1468
18781TIP3    H177758   2.764   5.489   2.922 -0.8810 -0.4811 -0.4948
18781TIP3    H277759   2.807   5.368   2.843 -0.5607  0.1568 -1.3199
18782TIP3   OH277760   4.317   1.205   3.155 -0.1704  0.0177 -0.3698
18782TIP3    H177761   4.398   1.156   3.164 -0.7845 -0.8196  0.8223
18782TIP3    H277762   4.257   1.146   3.109 -0.8741 -0.3533  0.9640
18783TIP3   OH277763   4.260   2.880  16.243 -0.0283 -0.3764  0.3965
18783TIP3    H177764   4.191   2.921  16.295 -0.5639  0.9338 -1.2826
18783TIP3    H277765   4.218   2.857  16.161  0.6735 -2.9007  0.6580
18784TIP3   OH277766   1.587   6.596   5.474 -0.2266 -0.7920  0.2236
18784TIP3    H177767   1.655   6.658   5.496  0.4776 -1.3578 -0.2961
18784TIP3    H277768   1.568   6.612   5.381  0.0999 -1.4619  0.0302
18785TIP3   OH277769   2.121   1.356  14.618  0.1229 -0.2310  0.1550
18785TIP3    H177770   2.109   1.448  14.592  0.2965  0.0605  1.0754
18785TIP3    H277771   2.099   1.355  14.711  1.5336 -0.8296  0.4987
18786TIP3   OH277772   5.247   0.349   5.901  0.0668 -0.6423  0.6214
18786TIP3    H177773   5.338   0.345   5.931  1.7469 -0.5010 -3.7816
18786TIP3    H277774   5.214   0.433   5.935  1.6964 -0.4742  1.8997
18787TIP3   OH277775   1.661   0.114   4.060 -0.2154 -0.3605 -0.3479
18787TIP3    H177776   1.752   0.091   4.077 -0.1774  0.1282  0.1308
18787TIP3    H277777   1.665   0.187   3.998 -0.2127  0.8631  1.0479
18788TIP3   OH277778   2.233   0.648   5.293  0.5084  0.1645  0.6188
18788TIP3    H177779   2.218   0.645   5.199  1.3240 -0.5945  0.5129
18788TIP3    H277780   2.328   0.644   5.304  0.4115 -0.0476  1.4882
18789TIP3   OH277781   4.113   4.561   3.021  0.0296  0.1951  0.4789
18789TIP3    H177782   4.094   4.469   3.035 -0.6395  0.5181  1.8916
18789TIP3    H277783   4.028   4.602   3.008  0.3426  0.5818 -0.5057
18790TIP3   OH277784   4.382   1.116   4.726  0.1019 -0.2723 -0.2042
18790TIP3    H177785   4.367   1.129   4.633  0.9290  2.1356 -0.0607
18790TIP3    H277786   4.411   1.025   4.733  0.6112 -0.3274 -2.3623
18791TIP3   OH277787   4.293   3.528   5.843 -0.1465  0.4399 -0.2327
18791TIP3    H177788   4.347   3.588   5.894  1.6141 -1.5207  0.3903
18791TIP3    H277789   4.351   3.498   5.772 -0.3865 -1.6261  0.3817
18792TIP3   OH277790   5.055   1.003   4.946  0.3590 -0.0251  0.3294
18792TIP3    H177791   4.978   1.060   4.944  0.2861 -0.1422 -0.7216
18792TIP3    H277792   5.111   1.041   5.015 -1.2572 -0.8113  2.1642
18793TIP3   OH277793   2.581   2.047  12.775 -0.6091 -0.5082 -0.5217
18793TIP3    H177794   2.518   2.072  12.707 -1.0624  0.2320  0.1493
18793TIP3    H277795   2.666   2.073  12.740 -0.9297  0.6927 -0.4479
18794TIP3   OH277796   5.674   3.495  11.253  0.1751  0.6324  0.1971
18794TIP3    H177797   5.698   3.534  11.337 -0.2348  0.6570  0.3076
18794TIP3    H277798   5.749   3.511  11.197 -0.4390  2.6854 -0.1349
18795TIP3   OH277799   4.611   6.748  15.680  0.3814  0.0504 -0.3027
18795TIP3    H177800   4.639   6.816  15.619  1.4840  0.2506  0.4120
18795TIP3    H277801   4.633   6.666  15.636  2.8524  0.1952  0.5403
18796TIP3   OH277802   6.533   1.871   2.492  0.2274  0.2192  0.9961
18796TIP3    H177803   6.462   1.809   2.482  0.4425  0.0738  0.2951
18796TIP3    H277804   6.610   1.825   2.459  0.3063  1.0035  0.0302
18797TIP3   OH277805   4.696   0.013  13.209 -0.3007 -0.5696  0.2102
18797TIP3    H177806   4.715   0.068  13.133  3.1917 -1.1135  0.5413
18797TIP3    H277807   4.651  -0.063  13.173 -1.7593  0.6898 -0.7658
18798TIP3   OH277808   0.558   4.640   1.550  0.7310 -0.7394  0.1064
18798TIP3    H177809   0.571   4.570   1.487 -1.8146 -1.6510  0.4900
18798TIP3    H277810   0.488   4.694   1.513  1.5014  0.6784  0.6111
18799TIP3   OH277811   6.322   1.917   4.275 -0.1161 -0.2777 -0.3251
18799TIP3    H177812   6.387   1.980   4.243 -0.1800 -0.6144 -1.1313
18799TIP3    H277813   6.346   1.835   4.233 -1.3340 -0.3112 -1.0081
18800TIP3   OH277814   5.185   0.545   1.840 -0.0854 -0.2531 -0.5008
18800TIP3    H177815   5.174   0.450   1.839 -0.9194 -0.1559 -0.8634
18800TIP3    H277816   5.227   0.563   1.924  0.2365 -0.9562 -0.5033
18801TIP3   OH277817   4.831   0.813  10.844  0.2733 -0.5129 -0.1813
18801TIP3    H177818   4.768   0.745  10.821  0.2153  0.0365 -1.7126
18801TIP3    H277819   4.803   0.842  10.931 -0.4731 -1.5320 -0.0549
18802TIP3   OH277820   3.806   6.463   3.141  0.4256  0.3579 -0.1517
18802TIP3    H177821   3.835   6.375   3.116  0.2931  0.3252 -0.1905
18802TIP3    H277822   3.711   6.461   3.130  0.4318  0.5342 -0.2347
18803TIP3   OH277823   5.189   6.105   1.282  0.1691  0.7146  0.5776
18803TIP3    H177824   5.120   6.156   1.324 -1.4890 -0.6571 -0.3172
18803TIP3    H277825   5.184   6.129   1.189  2.5369  2.3323  0.7774
18804TIP3   OH277826   0.246   1.437   5.058  0.0398 -0.0803 -0.0233
18804TIP3    H177827   0.284   1.522   5.034 -1.5561  0.7439  0.1843
18804TIP3    H277828   0.303   1.403   5.126  1.3391  0.2941 -0.8931
18805TIP3   OH277829   6.638   3.483   1.366  0.1324  0.4136  0.3004
18805TIP3    H177830   6.702   3.465   1.297  1.4945  0.1121  1.5690
18805TIP3    H277831   6.671   3.563   1.408 -1.0293  0.9518  0.2118
18806TIP3   OH277832   4.360   1.319   0.641  0.0292 -0.2167  0.5119
18806TIP3    H177833   4.391   1.366   0.564  0.9982 -0.9306  0.4422
18806TIP3    H277834   4.403   1.233   0.635 -0.9124 -0.7483  1.1523
18807TIP3   OH277835   2.506   4.572   1.411  0.0451 -0.4458  0.1782
18807TIP3    H177836   2.511   4.666   1.432  0.6335 -0.0925 -1.4287
18807TIP3    H277837   2.492   4.530   1.496  2.7692  0.8299  1.3772
18808TIP3   OH277838   6.147   3.094  14.617  0.2730  0.5498  0.3961
18808TIP3    H177839   6.160   3.093  14.522  1.8967  2.0375  0.5615
18808TIP3    H277840   6.062   3.137  14.628  0.2708  0.7628 -0.3655
18809TIP3   OH277841   2.048   6.359   5.445 -0.4947  0.1350  0.0202
18809TIP3    H177842   2.128   6.308   5.457 -0.0518  1.1516  1.7319
18809TIP3    H277843   1.995   6.339   5.523 -2.3712 -1.2409 -1.5070
18810TIP3   OH277844   6.421   3.430   2.118 -0.3599  0.9220  0.7681
18810TIP3    H177845   6.478   3.404   2.046  1.3220  2.5354  1.4433
18810TIP3    H277846   6.371   3.504   2.083 -3.1288 -1.2449 -0.2470
18811TIP3   OH277847   5.694   6.447   3.647  0.2114 -0.3354  0.3962
18811TIP3    H177848   5.682   6.541   3.633 -1.0060 -0.3193  1.3376
18811TIP3    H277849   5.780   6.428   3.610 -0.4711  0.7015 -1.9216
18812TIP3   OH277850   4.003   0.130   1.163  0.5377 -0.2398 -0.3211
18812TIP3    H177851   4.080   0.081   1.193  0.1072 -2.2311 -2.2273
18812TIP3    H277852   3.941   0.063   1.136 -0.9520  1.3632 -1.0396
18813TIP3   OH277853   1.157   5.029   4.150 -0.2140 -0.6991 -0.5248
18813TIP3    H177854   1.172   4.955   4.208 -0.5024 -0.2706  0.1054
18813TIP3    H277855   1.141   5.103   4.209 -0.7009 -0.2968 -1.1498
18814TIP3   OH277856   4.465   2.546   5.083  0.1371 -0.1488  0.3340
18814TIP3    H177857   4.442   2.577   5.171  2.3148 -0.1151  0.9396
18814TIP3    H277858   4.456   2.451   5.088  0.4369 -0.1596  0.6352
18815TIP3   OH277859   0.284   1.738   2.883  0.8808 -0.3748 -0.6341
18815TIP3    H177860   0.204   1.735   2.935  1.0882 -1.9557 -0.3796
18815TIP3    H277861   0.315   1.828   2.893 -0.3674  0.0054  0.0075
18816TIP3   OH277862   5.628   4.173   2.264 -0.7907 -0.1017 -0.2456
18816TIP3    H177863   5.597   4.191   2.176 -0.7826  0.1126 -0.2045
18816TIP3    H277864   5.551   4.138   2.310 -1.0375  0.6455 -0.0778
18817TIP3   OH277865   4.988   1.882   5.888  0.0456  0.1721 -1.1690
18817TIP3    H177866   4.977   1.831   5.968 -3.3516  0.4843 -1.2886
18817TIP3    H277867   5.029   1.821   5.826  3.8416  0.2600  0.9419
18818TIP3   OH277868   4.178   2.955  13.319  0.1564  0.8515  0.4040
18818TIP3    H177869   4.178   2.893  13.246  0.4751  2.2109 -0.7964
18818TIP3    H277870   4.137   2.907  13.391 -0.7906 -0.3142 -0.8546
18819TIP3   OH277871   3.061   5.900   1.222 -0.2161  1.0253 -0.4352
18819TIP3    H177872   2.968   5.923   1.230 -0.2433  0.7028  0.2748
18819TIP3    H277873   3.098   5.919   1.308 -0.0643 -0.7342 -0.0654
18820TIP3   OH277874   3.432   6.014   1.437  0.5619  0.5947 -0.7058
18820TIP3    H177875   3.515   5.967   1.431  1.0547  1.6107 -2.5978
18820TIP3    H277876   3.449   6.099   1.395 -1.0103  1.4410  0.2595
18821TIP3   OH277877   0.089   1.769  16.083  0.8860  0.2777 -0.0133
18821TIP3    H177878   0.048   1.808  16.160 -0.3488 -0.5720 -0.2123
18821TIP3    H277879   0.180   1.753  16.109  0.2997 -0.7240  1.5592
18822TIP3   OH277880   1.457   1.288  16.988  0.1926 -0.2325  0.1030
18822TIP3    H177881   1.496   1.260  16.905  2.0144  2.9914 -0.3230
18822TIP3    H277882   1.520   1.262  17.055 -0.1382 -0.7892  0.1986
18823TIP3   OH277883   0.635   3.882  14.190 -0.3819  0.3414 -0.1698
18823TIP3    H177884   0.541   3.867  14.194 -0.4503  0.2407 -1.7878
18823TIP3    H277885   0.649   3.959  14.245 -1.2615 -0.2107  0.8593
18824TIP3   OH277886   6.674   1.249   0.332  0.2436  0.2992  0.3737
18824TIP3    H177887   6.647   1.162   0.361 -2.4477  0.9757  0.2118
18824TIP3    H277888   6.661   1.305   0.409  0.4691  0.7940  0.0574
18825TIP3   OH277889   0.011   5.654  14.133  0.4044  0.4703  0.2211
18825TIP3    H177890   0.070   5.728  14.147  2.0361 -0.7455  0.0288
18825TIP3    H277891   0.046   5.585  14.190  0.3135 -0.8853 -1.3022
18826TIP3   OH277892   5.249   1.416  12.702  0.7929  0.2527 -0.3742
18826TIP3    H177893   5.239   1.465  12.784 -1.8932  1.3660 -1.2337
18826TIP3    H277894   5.190   1.460  12.641  2.0581 -1.0746 -2.6895
18827TIP3   OH277895   5.460   6.188   0.820 -0.0682 -1.0112  0.3316
18827TIP3    H177896   5.502   6.233   0.892  0.6718 -1.9226  0.4922
18827TIP3    H277897   5.446   6.098   0.852  0.8934 -1.6160 -0.8705
18828TIP3   OH277898   0.118   4.994  10.522  0.1174  0.5619  0.2340
18828TIP3    H177899   0.083   5.044  10.448 -0.0419 -1.5394 -1.1831
18828TIP3    H277900   0.208   5.027  10.532  0.9958 -0.7016 -2.5128
18829TIP3   OH277901   5.696   4.912  13.033 -0.3633  0.6874  0.2169
18829TIP3    H177902   5.688   4.837  12.974  3.0079  1.4378 -1.4557
18829TIP3    H277903   5.654   4.984  12.986 -1.2965  0.4242  0.6352
18830TIP3   OH277904   5.234   4.769   1.530  0.2625  0.2403 -0.3617
18830TIP3    H177905   5.282   4.842   1.568  0.1943  1.0514 -1.7650
18830TIP3    H277906   5.227   4.790   1.436 -1.0938 -0.8112 -0.5424
18831TIP3   OH277907   4.382   2.095   0.316  0.1723  0.7587  0.4455
18831TIP3    H177908   4.477   2.093   0.317  0.1963 -1.3955 -0.4356
18831TIP3    H277909   4.357   2.105   0.408  1.2906 -1.6962  1.1012
18832TIP3   OH277910   1.738   4.072  16.071 -0.3307 -0.2812 -0.0944
18832TIP3    H177911   1.798   4.064  15.997 -0.2774  0.4364 -0.1347
18832TIP3    H277912   1.773   4.011  16.136  2.6506  2.6301  1.3379
18833TIP3   OH277913   3.892   6.126  16.276  0.0000 -0.4651 -0.7180
18833TIP3    H177914   3.886   6.130  16.181 -0.0945 -1.3519 -0.7572
18833TIP3    H277915   3.978   6.163  16.296 -0.8403  1.7707 -0.9593
18834TIP3   OH277916   5.523   4.909  16.697  0.3426  0.1972  0.3618
18834TIP3    H177917   5.569   4.827  16.680 -0.8976 -0.6527  0.9219
18834TIP3    H277918   5.456   4.914  16.629  1.1786  1.3825 -0.4047
18835TIP3   OH277919   4.287   3.379  14.502  0.8652  0.0488  0.1331
18835TIP3    H177920   4.309   3.287  14.514 -2.7615 -1.4398 -2.6212
18835TIP3    H277921   4.255   3.407  14.589 -0.3853 -2.1595  0.4650
18836TIP3   OH277922   5.513   1.524  14.722  0.2283 -0.4236 -0.6314
18836TIP3    H177923   5.439   1.553  14.775  1.5767  1.5354  0.2638
18836TIP3    H277924   5.489   1.434  14.696 -2.6508  0.2773 -0.8040
18837TIP3   OH277925   3.066   4.129  16.610  0.1855  0.5208  0.0838
18837TIP3    H177926   3.094   4.186  16.682  1.9104  0.7760 -0.7303
18837TIP3    H277927   2.972   4.145  16.602  0.2639  1.7214  1.2105
18838TIP3   OH277928   5.087   4.145   3.707  0.3755 -0.0379  0.4816
18838TIP3    H177929   5.006   4.138   3.758 -0.2161 -1.5970 -0.5617
18838TIP3    H277930   5.150   4.185   3.766 -1.4912  2.6022  0.8993
18839TIP3   OH277931   0.177   4.893  16.560  0.8863  0.2352 -0.2722
18839TIP3    H177932   0.163   4.986  16.579 -0.0381  0.4981 -2.0064
18839TIP3    H277933   0.175   4.850  16.645  1.2653  1.7830  0.5607
18840TIP3   OH277934   0.060   1.959  12.139 -0.6124 -0.5947  0.6210
18840TIP3    H177935   0.075   2.024  12.208  0.7649 -0.1587 -0.0611
18840TIP3    H277936   0.017   1.887  12.184  1.9620 -1.1501  2.4123
18841TIP3   OH277937   3.518   1.485  15.703  0.9015  0.3375 -0.7009
18841TIP3    H177938   3.483   1.536  15.630 -0.9128 -1.1188 -0.9288
18841TIP3    H277939   3.562   1.411  15.661  1.8256  0.6866 -0.3517
18842TIP3   OH277940   2.571   1.923   3.740 -0.0753  0.7387  0.3317
18842TIP3    H177941   2.625   1.847   3.758 -2.0691 -0.6336  0.9059
18842TIP3    H277942   2.537   1.949   3.826 -2.3755 -0.1044 -0.2568
18843TIP3   OH277943   1.670   6.376   0.083 -0.1763  0.5866 -0.1498
18843TIP3    H177944   1.676   6.354  -0.010  1.4228  0.0706  0.0575
18843TIP3    H277945   1.577   6.395   0.096 -0.4330  0.7131 -1.8520
18844TIP3   OH277946   3.597   4.043  10.897  0.0863 -0.8996  1.0386
18844TIP3    H177947   3.590   3.948  10.911 -0.4605 -1.0210  0.0787
18844TIP3    H277948   3.674   4.053  10.841 -0.0822 -0.8167  0.8200
18845TIP3   OH277949   0.482   5.860   4.566  0.2062 -0.0423 -0.2371
18845TIP3    H177950   0.542   5.926   4.529  0.6697 -0.4954 -0.3052
18845TIP3    H277951   0.494   5.783   4.511  1.3454 -0.9192  1.1670
18846TIP3   OH277952   3.197   6.382   0.824 -0.1096 -0.1322 -0.1297
18846TIP3    H177953   3.260   6.310   0.835 -0.7201 -0.7172 -0.3937
18846TIP3    H277954   3.233   6.433   0.751  0.4950  0.0261  0.2664
18847TIP3   OH277955   4.377   3.955  15.691 -0.0998 -0.1139 -0.8883
18847TIP3    H177956   4.330   4.026  15.647 -1.8601  0.3523  1.5211
18847TIP3    H277957   4.468   3.967  15.664 -0.2915  3.1659 -0.5686
18848TIP3   OH277958   6.546   5.066   3.831  0.7952  0.0229  0.2044
18848TIP3    H177959   6.498   5.123   3.772  0.4523 -1.6604 -1.2427
18848TIP3    H277960   6.616   5.120   3.867  2.2791  0.6808 -3.3097
18849TIP3   OH277961   3.962   4.905   2.068  0.0040  0.6688 -0.5431
18849TIP3    H177962   3.939   4.858   2.149  0.5330  0.8098 -0.3018
18849TIP3    H277963   4.030   4.851   2.028  1.0721  1.5263  0.0582
18850TIP3   OH277964   5.994   3.676  11.899 -0.0658 -0.2252  0.2358
18850TIP3    H177965   5.921   3.624  11.867  0.3427  0.4340 -1.8804
18850TIP3    H277966   6.073   3.632  11.866  0.3549  0.7116 -0.0566
18851TIP3   OH277967   3.743   2.986   5.120 -0.8093 -0.2510 -0.2414
18851TIP3    H177968   3.727   3.034   5.039 -2.8239 -0.2023  0.1183
18851TIP3    H277969   3.774   3.052   5.181  2.4529 -0.5860 -1.3531
18852TIP3   OH277970   0.071   5.044  16.779 -0.3474 -0.3079 -0.0994
18852TIP3    H177971   0.069   5.114  16.845  0.2253  2.0787 -2.4189
18852TIP3    H277972  -0.012   5.051  16.733  0.0961 -0.5127 -0.9626
18853TIP3   OH277973   0.447   1.965   3.708  0.1965  0.3074  0.0962
18853TIP3    H177974   0.527   1.981   3.759 -0.6353 -0.4072  1.7085
18853TIP3    H277975   0.420   1.877   3.734  0.0728 -0.3518 -2.1298
18854TIP3   OH277976   6.129   2.870   5.420  0.3098  0.0270 -0.2544
18854TIP3    H177977   6.205   2.913   5.380  2.4356 -1.8645  1.5584
18854TIP3    H277978   6.142   2.880   5.514 -1.3913 -0.8870  0.1206
18855TIP3   OH277979   0.702   1.759   4.942  0.1983  0.4070  0.0686
18855TIP3    H177980   0.794   1.763   4.968 -0.4836  1.6046  2.5077
18855TIP3    H277981   0.673   1.672   4.971  0.5537 -0.0501 -0.8761
18856TIP3   OH277982   6.558   1.201   4.603  0.2913 -0.0821  0.1187
18856TIP3    H177983   6.535   1.258   4.676 -1.4129 -2.0512  1.2319
18856TIP3    H277984   6.652   1.189   4.609  0.1905 -0.1971  2.0296
18857TIP3   OH277985   5.925   5.136   1.225 -0.0838  0.5894 -0.1509
18857TIP3    H177986   5.892   5.153   1.313  0.5319 -0.3270  0.2713
18857TIP3    H277987   5.904   5.045   1.208  2.6081 -0.2304  0.3659
18858TIP3   OH277988   0.969   4.387   1.384  0.2596 -0.1946 -0.7200
18858TIP3    H177989   1.053   4.384   1.429 -0.1853  1.7003  0.3435
18858TIP3    H277990   0.935   4.298   1.392  1.0062 -0.3653  1.1561
18859TIP3   OH277991   6.358   3.874  16.219  0.1147  0.2450  0.0261
18859TIP3    H177992   6.316   3.943  16.271  1.6602  0.4925  1.0065
18859TIP3    H277993   6.286   3.816  16.194 -0.7546  0.3605  2.0770
18860TIP3   OH277994   2.990   0.499  11.842 -0.3173  0.5491 -0.6880
18860TIP3    H177995   3.066   0.511  11.785  0.2476 -0.4801 -0.1808
18860TIP3    H277996   3.027   0.466  11.924 -1.2807  0.3886 -0.3114
18861TIP3   OH277997   2.412   2.336   3.222 -0.4347 -0.0129  0.5336
18861TIP3    H177998   2.501   2.303   3.228  0.6373  2.7551  1.4274
18861TIP3    H277999   2.395   2.375   3.308 -1.5228  1.7039 -0.3863
18862TIP3   OH278000   4.848   4.011   0.566  0.3642  0.2457  0.0002
18862TIP3    H178001   4.801   3.969   0.494 -0.0278 -1.8508  1.3547
18862TIP3    H278002   4.789   4.079   0.597 -0.2929 -0.0953 -0.4723
18863TIP3   OH278003   5.442   5.243   4.184  0.0661  0.1667  0.1484
18863TIP3    H178004   5.412   5.170   4.129 -0.3783 -0.3744  1.0729
18863TIP3    H278005   5.451   5.205   4.271  2.7765  0.4937  0.0873
18864TIP3   OH278006   4.600   3.169   0.752  0.2870 -0.4708  0.1474
18864TIP3    H178007   4.589   3.259   0.783  0.3723 -1.2884  2.7701
18864TIP3    H278008   4.692   3.149   0.769 -0.1248 -1.5820  1.1998
18865TIP3   OH278009   5.236   4.932   5.452  0.7087  0.4031  0.7327
18865TIP3    H178010   5.236   4.837   5.455  1.3739  0.3193 -0.8086
18865TIP3    H278011   5.144   4.957   5.461  0.3425 -0.4728 -0.3899
18866TIP3   OH278012   4.129   3.156  13.964 -0.0301  0.4035  1.1782
18866TIP3    H178013   4.151   3.076  14.013 -0.3792  0.3180  1.1970
18866TIP3    H278014   4.186   3.223  14.002 -0.1425  0.2888  1.5544
18867TIP3   OH278015   0.800   6.736  15.950  0.8830  0.3735  0.5334
18867TIP3    H178016   0.715   6.778  15.941  0.9671  0.1594 -2.4223
18867TIP3    H278017   0.812   6.724  16.044 -1.1955  2.6892  1.1830
18868TIP3   OH278018   4.664   1.389   0.010 -0.2712  0.2747 -0.2422
18868TIP3    H178019   4.586   1.390  -0.046  0.8717 -0.5295 -1.9455
18868TIP3    H278020   4.630   1.394   0.099 -2.2507  0.1986 -0.9448
18869TIP3   OH278021   3.482   2.334  16.884  0.3666  0.6164  0.0945
18869TIP3    H178022   3.536   2.255  16.877  0.8065  0.9893 -0.9042
18869TIP3    H278023   3.456   2.353  16.794 -0.4870  1.0999  0.4370
18870TIP3   OH278024   5.556   1.674   0.399  0.0176 -0.3664 -0.2102
18870TIP3    H178025   5.557   1.770   0.391  0.3992 -0.3526 -0.0424
18870TIP3    H278026   5.609   1.656   0.477  1.3345 -0.7889 -1.1618
18871TIP3   OH278027   2.441   2.599  13.414  0.3143 -0.0284  0.1797
18871TIP3    H178028   2.446   2.504  13.427 -0.3974 -0.5931 -3.0092
18871TIP3    H278029   2.530   2.625  13.392 -0.0996 -0.7269 -2.7533
18872TIP3   OH278030   4.168   6.511   3.945  0.3504 -0.4039  0.7297
18872TIP3    H178031   4.122   6.593   3.959 -0.0159 -0.8656  2.4784
18872TIP3    H278032   4.106   6.457   3.895  0.4802  0.2441 -0.1642
18873TIP3   OH278033   4.843   4.215  12.582  0.5433  0.2481 -0.2998
18873TIP3    H178034   4.843   4.143  12.520  1.6589  2.5790 -3.2552
18873TIP3    H278035   4.934   4.225  12.608  0.9249  2.1809 -2.1042
18874TIP3   OH278036   0.419   2.167  15.674 -0.9210 -0.1505 -0.1230
18874TIP3    H178037   0.325   2.171  15.658 -1.3945 -2.4430  1.5615
18874TIP3    H278038   0.441   2.074  15.661  1.1903  0.3864 -0.7957
18875TIP3   OH278039   5.254   3.154  11.211 -0.1369 -0.4111  0.3875
18875TIP3    H178040   5.275   3.091  11.142 -0.2832 -0.3993  0.3324
18875TIP3    H278041   5.324   3.219  11.206 -1.1721  0.6620 -1.0449
18876TIP3   OH278042   3.442   4.130  14.977 -0.7163  0.2447 -0.3203
18876TIP3    H178043   3.524   4.097  14.940  0.1311 -0.6810  2.1875
18876TIP3    H278044   3.381   4.057  14.971 -0.5263  0.0382  0.2706
18877TIP3   OH278045   0.601   5.846   0.205  0.1684 -0.2613 -0.5366
18877TIP3    H178046   0.517   5.823   0.165  0.9608 -1.2669 -1.6858
18877TIP3    H278047   0.650   5.764   0.205  0.6949  0.0217  1.3309
18878TIP3   OH278048   0.072   3.486  14.665 -0.3574 -0.5770 -0.7593
18878TIP3    H178049   0.113   3.403  14.691  0.8284  0.5311  1.0781
18878TIP3    H278050  -0.022   3.471  14.676 -0.2121 -1.8536 -1.0625
18879TIP3   OH278051   6.059   6.662  13.389  0.1343 -0.9442 -0.5705
18879TIP3    H178052   6.145   6.679  13.349  0.0835  0.7890 -0.0155
18879TIP3    H278053   6.080   6.632  13.478  0.1696 -1.2960 -0.6948
18880TIP3   OH278054   6.511   5.567   0.274 -0.1111  0.6332  0.1495
18880TIP3    H178055   6.548   5.557   0.186 -1.1297  0.1421 -0.2457
18880TIP3    H278056   6.586   5.583   0.330  0.5755  0.8297 -0.7929
18881TIP3   OH278057   2.634   3.379   2.871  0.6098 -0.3155 -0.1054
18881TIP3    H178058   2.708   3.356   2.928 -0.9154 -2.1556  1.2474
18881TIP3    H278059   2.567   3.409   2.932  0.1751  1.3012 -1.3152
18882TIP3   OH278060   1.881   0.915  12.286 -0.8028 -0.1646  0.1487
18882TIP3    H178061   1.845   0.863  12.214 -0.3260  0.2882 -0.4325
18882TIP3    H278062   1.916   0.993  12.243  0.7180 -0.5129  0.7026
18883TIP3   OH278063   1.310   6.578  14.096  0.0165 -0.0044 -0.0146
18883TIP3    H178064   1.348   6.661  14.066  1.7674 -0.7933 -0.0444
18883TIP3    H278065   1.317   6.520  14.020 -3.1886  0.3451 -0.7577
18884TIP3   OH278066   4.748   6.564   6.083  0.0291  0.1036  0.3306
18884TIP3    H178067   4.701   6.647   6.094  0.4299  0.3296  0.3757
18884TIP3    H278068   4.840   6.590   6.079  0.4165 -0.5417  3.0349
18885TIP3   OH278069   5.957   0.531  14.904  0.5342  0.0160 -0.0183
18885TIP3    H178070   5.948   0.436  14.908 -3.1819  0.2881  2.4170
18885TIP3    H278071   5.904   0.557  14.829  1.5764  0.2516 -0.7046
18886TIP3   OH278072   5.522   4.167  11.797  0.0365 -0.7022 -0.6793
18886TIP3    H178073   5.450   4.120  11.756 -0.1613 -0.8855 -0.1302
18886TIP3    H278074   5.517   4.143  11.889  0.8229 -0.7460 -0.6417
18887TIP3   OH278075   4.563   6.174  10.585 -0.5042 -0.5702  0.0899
18887TIP3    H178076   4.565   6.143  10.495  1.2662  2.5389 -1.0755
18887TIP3    H278077   4.654   6.193  10.607 -1.0830  0.3508  1.9304
18888TIP3   OH278078   2.759   4.599  12.059  0.0547 -0.0439  0.0187
18888TIP3    H178079   2.799   4.685  12.069  2.6611 -0.8286 -2.3622
18888TIP3    H278080   2.741   4.591  11.966 -0.8325 -1.8020  0.2961
18889TIP3   OH278081   1.031   4.142  16.530 -0.0347 -0.3751 -0.1105
18889TIP3    H178082   0.955   4.127  16.587  1.3753 -0.5387  1.7967
18889TIP3    H278083   1.007   4.218  16.478 -1.3092 -0.1086  0.8240
18890TIP3   OH278084   6.314   0.627   3.123 -0.3215  0.5319 -0.4499
18890TIP3    H178085   6.241   0.575   3.156 -0.3091  0.5661 -0.3683
18890TIP3    H278086   6.370   0.563   3.079 -0.8157  0.6277 -1.2434
18891TIP3   OH278087   6.268   1.135   2.728 -0.1057  0.6234 -0.4947
18891TIP3    H178088   6.238   1.180   2.649 -0.1901  0.9522 -0.2752
18891TIP3    H278089   6.359   1.112   2.710 -0.2814  0.2107 -0.9023
18892TIP3   OH278090   1.520   6.515  13.090  0.6763 -0.1715 -0.4775
18892TIP3    H178091   1.574   6.574  13.142  0.5539 -0.0406 -0.4950
18892TIP3    H278092   1.552   6.428  13.110  0.5997 -0.1249 -0.1505
18893TIP3   OH278093   3.861   4.057   5.098 -0.1598  0.5954  0.5057
18893TIP3    H178094   3.884   3.970   5.065  1.0105  1.5542 -1.4427
18893TIP3    H278095   3.907   4.065   5.181 -0.0147 -0.5259  0.5391
18894TIP3   OH278096   6.440   6.005  13.018 -0.2477 -0.2601 -0.0656
18894TIP3    H178097   6.452   6.087  13.067 -1.8324 -0.9576  1.6430
18894TIP3    H278098   6.518   5.954  13.037 -0.4175 -0.1406  1.0405
18895TIP3   OH278099   4.986   0.576  15.101 -0.8376 -0.0901  0.4555
18895TIP3    H178100   5.000   0.484  15.081 -0.8444 -0.2431  1.1458
18895TIP3    H278101   4.943   0.577  15.186 -2.0536  0.5012 -0.1300
18896TIP3   OH278102   5.123   0.203  13.904  0.0884  0.1821  0.2119
18896TIP3    H178103   5.034   0.224  13.874  0.3195 -0.6538 -1.1464
18896TIP3    H278104   5.177   0.271  13.864  0.5114 -1.4151 -2.1306
18897TIP3   OH278105   6.564   3.434  14.947 -0.3933 -0.4454  0.3345
18897TIP3    H178106   6.504   3.466  15.015 -1.1306 -1.0148 -0.0260
18897TIP3    H278107   6.643   3.410  14.994  0.3750  2.2734  0.5736
18898TIP3   OH278108   3.814   3.669   5.462 -0.3897 -0.2372  0.1139
18898TIP3    H178109   3.904   3.701   5.455 -0.0853 -0.7319  1.4874
18898TIP3    H278110   3.759   3.743   5.436  0.3996  0.1099 -0.6021
18899TIP3   OH278111   1.542   6.707   6.410  0.1132  0.1259 -0.2890
18899TIP3    H178112   1.516   6.634   6.354  0.4009  0.3510 -0.7247
18899TIP3    H278113   1.497   6.783   6.373 -1.9570 -0.1715  1.4815
18900TIP3   OH278114   1.212   5.416  11.357 -0.0123 -0.3267 -0.0245
18900TIP3    H178115   1.126   5.385  11.326  0.5225 -0.9793 -0.9179
18900TIP3    H278116   1.203   5.420  11.452 -1.0200 -0.4274 -0.0968
18901TIP3   OH278117   1.519   1.866   4.074 -0.1287  0.1833  0.1641
18901TIP3    H178118   1.528   1.853   4.169  2.6160  1.6438  0.2266
18901TIP3    H278119   1.565   1.791   4.036  1.2860  1.0179  0.1317
18902TIP3   OH278120   2.291   1.211   6.326  0.0843 -0.8559 -0.3240
18902TIP3    H178121   2.367   1.233   6.272 -0.0114  2.3045  0.5844
18902TIP3    H278122   2.327   1.158   6.397  1.1966 -0.5938 -0.6677
18903TIP3   OH278123   6.068   6.410   2.335 -0.9536  0.6943 -0.5691
18903TIP3    H178124   6.040   6.320   2.353  1.4186 -0.1058 -0.6204
18903TIP3    H278125   6.035   6.460   2.410 -0.9658 -0.5052  0.2584
18904TIP3   OH278126   4.712   5.603  14.254  0.2615  0.0547 -0.6553
18904TIP3    H178127   4.721   5.512  14.229  0.1549 -0.0483 -0.3196
18904TIP3    H278128   4.657   5.642  14.186 -1.9011 -0.7297  0.5669
18905TIP3   OH278129   2.053   5.694  13.487  0.2152 -0.1906 -0.4604
18905TIP3    H178130   1.966   5.682  13.447 -0.8406  1.2379  1.2572
18905TIP3    H278131   2.084   5.777  13.452  1.7952 -1.5421 -2.4911
18906TIP3   OH278132   0.378   4.740  12.597  0.0705 -0.3777 -0.3886
18906TIP3    H178133   0.401   4.755  12.505  0.3698  0.4037 -0.1921
18906TIP3    H278134   0.384   4.826  12.638  2.1638 -1.0552  0.8558
18907TIP3   OH278135   1.636   4.431   4.034  0.3016 -0.0775  0.0475
18907TIP3    H178136   1.556   4.408   3.986  0.2802  0.8688 -0.3983
18907TIP3    H278137   1.690   4.476   3.969  2.0339 -2.3164 -0.1992
18908TIP3   OH278138   3.578   5.079  13.964 -0.5875  0.1144  0.9000
18908TIP3    H178139   3.623   5.001  13.998  0.2142  0.6319  1.0377
18908TIP3    H278140   3.531   5.048  13.887 -0.4030 -0.5382  1.0433
18909TIP3   OH278141   6.299   1.518  15.996  0.4192  0.0440 -0.0550
18909TIP3    H178142   6.307   1.611  16.014  0.9160  0.3425 -1.6711
18909TIP3    H278143   6.386   1.482  16.015 -0.3038 -0.5479  2.6563
18910TIP3   OH278144   4.596   2.179   5.744 -0.0978  0.2915 -0.2614
18910TIP3    H178145   4.675   2.153   5.791 -0.7339 -0.5171  0.3804
18910TIP3    H278146   4.530   2.192   5.812 -1.3522 -1.9991 -0.9376
18911TIP3   OH278147   4.178   4.462   4.327  0.6787  0.0270  0.4341
18911TIP3    H178148   4.093   4.468   4.283  1.4126 -1.9407 -1.4207
18911TIP3    H278149   4.161   4.495   4.416 -1.9730 -0.2081  0.1053
18912TIP3   OH278150   1.854   6.044  16.791  0.0770 -0.0673 -0.2711
18912TIP3    H178151   1.854   6.026  16.886 -0.7701  0.6921 -0.1174
18912TIP3    H278152   1.761   6.046  16.767  0.2863 -0.2723 -1.1310
18913TIP3   OH278153   1.636   1.542   2.172  0.3884 -0.0676  0.9363
18913TIP3    H178154   1.579   1.465   2.168  0.0508  0.1944  0.7411
18913TIP3    H278155   1.630   1.572   2.263  0.3592 -0.1483  0.9612
18914TIP3   OH278156   4.022   5.841  10.298  0.3997 -0.6702  0.2320
18914TIP3    H178157   3.979   5.788  10.365 -0.0844 -2.2367 -1.2407
18914TIP3    H278158   4.077   5.902  10.347 -1.2092 -0.6102  2.0862
18915TIP3   OH278159   3.599   4.004   1.765 -0.0180 -0.5390  0.4873
18915TIP3    H178160   3.578   4.089   1.727  0.5774 -1.0505 -1.0749
18915TIP3    H278161   3.599   4.019   1.859  0.4904  1.2848  0.2340
18916TIP3   OH278162   6.022   5.401   1.241 -0.1021  0.4857  0.0246
18916TIP3    H178163   6.008   5.308   1.218  0.7846  0.5638 -0.9169
18916TIP3    H278164   6.072   5.398   1.322  0.1585  0.1298 -0.1426
18917TIP3   OH278165   0.456   1.074   4.549  0.6464  0.2462  0.2290
18917TIP3    H178166   0.513   1.142   4.511  0.7150 -0.4279 -0.9450
18917TIP3    H278167   0.517   1.011   4.587  0.7650 -0.6851 -1.3884
18918TIP3   OH278168   1.196   1.458  12.333 -0.0822  0.3713 -0.3095
18918TIP3    H178169   1.130   1.521  12.306  0.0339  1.2881  1.3979
18918TIP3    H278170   1.246   1.441  12.254 -3.5878 -2.0438 -2.2742
18919TIP3   OH278171   5.328   6.008  14.562 -0.0083 -0.7221  0.0924
18919TIP3    H178172   5.305   6.016  14.470  2.6337 -1.1091 -0.6900
18919TIP3    H278173   5.245   6.019  14.609 -1.4806 -0.8559 -2.3172
18920TIP3   OH278174   4.057   1.822  13.913  0.2152 -0.7608 -0.3391
18920TIP3    H178175   4.029   1.786  13.998 -0.8467  0.9410  0.0650
18920TIP3    H278176   4.153   1.827  13.921  0.0869  0.1677  1.1337
18921TIP3   OH278177   2.018   2.778   0.836 -0.3419 -0.5142 -0.6654
18921TIP3    H178178   1.929   2.779   0.802 -0.4841  1.2718 -0.3356
18921TIP3    H278179   2.012   2.729   0.918 -1.1065 -0.1388 -0.4823
18922TIP3   OH278180   2.730   3.566  12.755  0.4456 -0.4576  0.2176
18922TIP3    H178181   2.651   3.526  12.790  0.8601 -1.5694 -0.0855
18922TIP3    H278182   2.698   3.636  12.697 -0.2723  0.0076  1.1509
18923TIP3   OH278183   0.051   4.171  16.053  0.0529  0.0961 -0.1351
18923TIP3    H178184   0.080   4.262  16.045 -2.1257  0.6921 -2.9713
18923TIP3    H278185  -0.016   4.172  16.121  0.5482  0.4483  0.3515
18924TIP3   OH278186   6.279   1.045   5.170  0.0968  0.3876 -0.1237
18924TIP3    H178187   6.347   0.978   5.170  0.4940  0.7791 -1.0492
18924TIP3    H278188   6.323   1.126   5.196 -0.3483  0.3477  0.8263
18925TIP3   OH278189   3.748   4.969  11.984  0.6059 -0.1683  0.5428
18925TIP3    H178190   3.695   4.922  11.920 -0.0243  1.8639 -0.4945
18925TIP3    H278191   3.788   4.900  12.037 -3.0797 -1.8264  1.4412
18926TIP3   OH278192   2.875   6.280  14.037  0.0958 -0.2337 -0.1909
18926TIP3    H178193   2.782   6.286  14.056 -0.2873  0.4277 -2.0428
18926TIP3    H278194   2.896   6.187  14.051 -1.0191 -0.5450 -0.4563
18927TIP3   OH278195   5.833   5.723  10.501 -0.4108 -0.7295 -0.3672
18927TIP3    H178196   5.864   5.691  10.416 -0.5582  0.2404 -0.7904
18927TIP3    H278197   5.853   5.816  10.501  0.3567 -0.8746  1.0221
18928TIP3   OH278198   1.731   2.058  11.303 -0.1237 -0.1466 -0.5208
18928TIP3    H178199   1.651   2.106  11.325 -0.7949 -1.1841 -0.6437
18928TIP3    H278200   1.720   2.034  11.211 -0.0960 -1.0925 -0.2848
18929TIP3   OH278201   6.058   4.855  16.749  0.1949  0.1652 -0.2086
18929TIP3    H178202   5.998   4.852  16.675  0.6241 -0.0382 -0.5565
18929TIP3    H278203   6.003   4.839  16.825 -0.1544 -0.2758 -0.5463
18930TIP3   OH278204   5.872   0.576   1.239 -0.3184 -0.1008 -0.0549
18930TIP3    H178205   5.940   0.614   1.184 -1.0699  0.3718 -0.6886
18930TIP3    H278206   5.826   0.515   1.182 -2.7521  2.2659 -0.8421
18931TIP3   OH278207   3.479   6.273  16.978  0.4549  0.4744 -0.5780
18931TIP3    H178208   3.501   6.241  16.890  2.0721 -0.7762  0.2364
18931TIP3    H278209   3.563   6.282  17.022 -0.4098 -0.9967  1.5249
18932TIP3   OH278210   4.061   1.273  14.599  0.0943 -0.1108  0.4095
18932TIP3    H178211   4.023   1.276  14.511  0.1354 -2.2331  0.2770
18932TIP3    H278212   4.154   1.255  14.585 -0.0090 -1.0825  0.8826
18933TIP3   OH278213   1.396   2.384  14.647  0.1673 -0.1351  0.0805
18933TIP3    H178214   1.309   2.350  14.669  0.3341  0.1159  1.2179
18933TIP3    H278215   1.427   2.326  14.577 -1.0347 -0.0236 -0.5829
18934TIP3   OH278216   6.237   4.928   4.123 -0.1337 -0.3112 -0.3061
18934TIP3    H178217   6.323   4.912   4.083  0.7940  1.6423  0.7241
18934TIP3    H278218   6.255   4.933   4.217 -1.8398 -2.3447  0.1932
18935TIP3   OH278219   2.347   0.865   3.057  0.2568 -0.8829  0.1617
18935TIP3    H178220   2.291   0.866   3.135  0.9276 -0.8502  0.6530
18935TIP3    H278221   2.292   0.827   2.988 -0.2931 -1.0647  0.6939
18936TIP3   OH278222   3.296   2.133   6.174  0.5311 -0.0047  0.5628
18936TIP3    H178223   3.277   2.152   6.266  2.6399  0.0768  1.0314
18936TIP3    H278224   3.334   2.045   6.176 -0.8812 -0.6837 -0.4764
18937TIP3   OH278225   5.666   3.457  15.814 -0.2866 -0.2635 -0.3022
18937TIP3    H178226   5.602   3.387  15.801 -0.6975  0.1398 -0.4744
18937TIP3    H278227   5.613   3.534  15.837  0.1750 -0.0625  0.1099
18938TIP3   OH278228   2.153   1.001  15.817  0.6682 -0.5909 -0.1907
18938TIP3    H178229   2.230   1.039  15.774  0.9734  0.2837  1.0798
18938TIP3    H278230   2.189   0.927  15.867  0.1216 -2.4849 -2.4165
18939TIP3   OH278231   3.255   3.391  14.574 -1.0539 -0.5291 -0.1498
18939TIP3    H178232   3.345   3.359  14.571  0.1882  2.6325 -1.6143
18939TIP3    H278233   3.208   3.338  14.510  0.9733  0.6819 -2.8019
18940TIP3   OH278234   4.439   1.314  16.768 -0.0427 -0.2234 -0.3599
18940TIP3    H178235   4.517   1.263  16.746 -1.6216 -3.3539  0.6552
18940TIP3    H278236   4.372   1.282  16.707 -1.1122  0.7530  0.2589
18941TIP3   OH278237   3.300   2.515  10.275  0.0079  0.5115  0.5860
18941TIP3    H178238   3.293   2.440  10.216 -2.5381  1.3696 -0.3417
18941TIP3    H278239   3.366   2.489  10.340  2.1214 -0.9073 -1.9363
18942TIP3   OH278240   2.119   1.995  11.150 -0.4062 -0.0941 -0.5039
18942TIP3    H178241   2.135   2.069  11.091  1.6711 -0.4246 -0.4264
18942TIP3    H278242   2.047   1.947  11.109 -1.8329  1.9609 -0.5244
18943TIP3   OH278243   5.574   1.216  14.617  0.5824 -0.0673 -0.3727
18943TIP3    H178244   5.494   1.237  14.569  0.2985  1.1968  0.6245
18943TIP3    H278245   5.625   1.164  14.555  0.4666  1.9513 -2.2792
18944TIP3   OH278246   3.614   2.899  10.732 -0.5670  0.1876  0.4610
18944TIP3    H178247   3.606   2.946  10.815 -0.3811  2.0011 -0.4853
18944TIP3    H278248   3.665   2.957  10.676  0.1936 -1.4376 -0.6245
18945TIP3   OH278249   6.526   3.281  12.190 -0.3594  0.5147  0.3714
18945TIP3    H178250   6.542   3.288  12.096 -0.3651  0.5388  0.3724
18945TIP3    H278251   6.536   3.188  12.211 -0.8900  0.4280  0.2482
18946TIP3   OH278252   0.550   6.396   0.231  0.0498 -0.3988  0.2528
18946TIP3    H178253   0.475   6.337   0.229 -0.4496  0.2459 -0.9457
18946TIP3    H278254   0.526   6.462   0.296 -1.4005  1.0028 -1.6196
18947TIP3   OH278255   4.743   2.276   4.143  0.5373 -0.4614  0.2730
18947TIP3    H178256   4.662   2.292   4.192 -0.3198 -1.8298 -0.6028
18947TIP3    H278257   4.740   2.337   4.070  1.0492  0.5038  1.0341
18948TIP3   OH278258   6.789   2.531  12.418  0.1344  0.1485 -0.4890
18948TIP3    H178259   6.831   2.599  12.471 -2.4325  0.9049  0.7429
18948TIP3    H278260   6.796   2.452  12.471 -0.5898  0.4454  0.0770
18949TIP3   OH278261   4.564   4.319   2.856  0.1623  0.5249  0.2952
18949TIP3    H178262   4.547   4.249   2.919  0.2748 -0.2750 -0.5452
18949TIP3    H278263   4.536   4.283   2.772 -1.0141  1.9766  0.0359
18950TIP3   OH278264   2.743   6.768   2.535  0.0004  0.1463 -0.6270
18950TIP3    H178265   2.732   6.841   2.473  0.1073  2.0952  1.5029
18950TIP3    H278266   2.654   6.752   2.568 -0.2196 -1.5635 -1.9324
18951TIP3   OH278267   4.191   5.790  14.369 -0.7811 -0.1686 -0.0363
18951TIP3    H178268   4.107   5.750  14.345 -0.1166 -1.1227 -0.8657
18951TIP3    H278269   4.220   5.739  14.445 -0.8493  0.0103  0.1085
18952TIP3   OH278270   5.209   4.917   4.343  0.5748 -0.3083 -0.1555
18952TIP3    H178271   5.182   4.987   4.403 -0.3693 -0.2240 -0.6681
18952TIP3    H278272   5.304   4.916   4.350  0.5688  0.6552  0.2822
18953TIP3   OH278273   2.940   0.953   3.627  0.2698 -0.0326 -0.4786
18953TIP3    H178274   2.973   1.033   3.666 -1.6865  0.7086 -0.1977
18953TIP3    H278275   2.986   0.883   3.672  1.5277  0.9139 -0.2488
18954TIP3   OH278276   5.991   0.786  12.193  0.3915 -0.2669 -0.5040
18954TIP3    H178277   5.952   0.873  12.191 -0.9954 -0.8591 -2.4883
18954TIP3    H278278   6.037   0.778  12.109  0.0112 -1.6210 -0.6139
18955TIP3   OH278279   4.447   1.961  10.247  0.0748 -0.8649 -0.1428
18955TIP3    H178280   4.506   1.904  10.198 -0.1503  0.5519 -2.1901
18955TIP3    H278281   4.482   1.962  10.336  2.6910 -0.7332 -1.0985
18956TIP3   OH278282   5.097   5.382   4.964 -0.0999  0.3331  0.4131
18956TIP3    H178283   5.093   5.399   5.058 -0.0768 -2.6581  1.0520
18956TIP3    H278284   5.190   5.364   4.947 -0.2415 -0.0734  0.0313
18957TIP3   OH278285   3.901   2.536   2.033  0.1231  0.4465  0.3746
18957TIP3    H178286   3.988   2.517   2.070  1.2906  0.6414 -2.0338
18957TIP3    H278287   3.855   2.452   2.037  0.7826  0.0962  0.8433
18958TIP3   OH278288   4.144   2.785  11.144 -0.1120  0.0279  0.2049
18958TIP3    H178289   4.083   2.727  11.190  0.6428 -0.1024  1.0949
18958TIP3    H278290   4.151   2.862  11.201 -2.0805  1.6341 -1.5717
18959TIP3   OH278291   1.588   4.499  13.618  0.4648 -0.1541  0.0420
18959TIP3    H178292   1.522   4.439  13.652  1.8385 -0.3814  2.5371
18959TIP3    H278293   1.569   4.583  13.660  1.9269 -0.3174  1.1018
18960TIP3   OH278294   3.456   0.935   3.621 -0.0882  0.2874 -0.2240
18960TIP3    H178295   3.382   0.955   3.678  0.4531  0.1438  0.5485
18960TIP3    H278296   3.423   0.869   3.560 -0.9970  1.2396 -0.8050
18961TIP3   OH278297   4.288   3.193   3.034 -0.5245 -0.4425  0.4418
18961TIP3    H178298   4.314   3.101   3.032  1.0701 -0.0194  0.5039
18961TIP3    H278299   4.259   3.211   2.944  1.2265 -0.4658 -0.1650
18962TIP3   OH278300   0.480   2.605  15.424  0.3792 -0.0492  0.1180
18962TIP3    H178301   0.489   2.623  15.518  2.0173  0.8031 -0.1685
18962TIP3    H278302   0.398   2.556  15.417  0.5779 -0.7544  2.0742
18963TIP3   OH278303   2.894   0.027  12.319 -0.2135  0.1937 -0.0269
18963TIP3    H178304   2.831  -0.030  12.363 -0.1032  1.1902  1.4889
18963TIP3    H278305   2.865   0.116  12.339  0.5569  0.6763 -0.9701
18964TIP3   OH278306   5.281   0.604  13.035 -0.2589  0.0573 -0.0149
18964TIP3    H178307   5.303   0.564  12.951 -1.0401 -0.2673 -0.0720
18964TIP3    H278308   5.291   0.533  13.099 -2.2160 -0.4306 -0.1925
18965TIP3   OH278309   1.193   6.773   1.989 -0.2561  0.3628 -0.0613
18965TIP3    H178310   1.256   6.829   1.943  0.0098 -0.1861 -0.3722
18965TIP3    H278311   1.199   6.689   1.944 -0.4387 -0.0033  0.5897
18966TIP3   OH278312   2.613   3.550  11.431 -0.1977  0.3571  0.1582
18966TIP3    H178313   2.639   3.639  11.406  2.1987 -0.7300 -1.4998
18966TIP3    H278314   2.540   3.529  11.373  0.8391  0.3789 -1.1922
18967TIP3   OH278315   0.812   5.875   2.720 -0.3261  0.2068 -0.0040
18967TIP3    H178316   0.858   5.860   2.637  0.0347  4.4651 -0.7922
18967TIP3    H278317   0.719   5.864   2.698 -0.1637  0.1784 -0.6995
18968TIP3   OH278318   1.263   1.197   4.938  0.1778 -0.0578 -0.5964
18968TIP3    H178319   1.229   1.234   5.019 -0.6026 -1.9548 -0.0086
18968TIP3    H278320   1.342   1.151   4.963 -1.0913 -2.3049 -0.4875
18969TIP3   OH278321   5.363   5.233  15.490 -0.6178  0.7032 -0.4275
18969TIP3    H178322   5.361   5.305  15.427 -0.4444  0.5352 -0.6263
18969TIP3    H278323   5.321   5.160  15.444  0.6791  0.1851 -0.8448
18970TIP3   OH278324   5.075   1.352  11.082  0.4378 -0.6403  0.2765
18970TIP3    H178325   5.028   1.428  11.048  2.9808  1.9017  1.9815
18970TIP3    H278326   5.152   1.344  11.026  0.4553 -1.6639  0.4307
18971TIP3   OH278327   3.116   2.535  15.513 -0.9620  0.1606  0.0614
18971TIP3    H178328   3.104   2.461  15.453 -0.1648 -0.6089  0.8208
18971TIP3    H278329   3.055   2.518  15.584  0.2581 -0.6070  0.9814
18972TIP3   OH278330   5.809   1.520  15.878  0.0698 -0.0003  0.0623
18972TIP3    H178331   5.893   1.520  15.832 -0.0748  0.1244 -0.2003
18972TIP3    H278332   5.788   1.427  15.889  1.4313 -0.1235  2.3174
18973TIP3   OH278333   3.493   2.956  13.859 -0.4901 -0.3858 -0.5779
18973TIP3    H178334   3.586   2.972  13.845 -0.0607 -1.9570  0.2557
18973TIP3    H278335   3.466   3.023  13.922 -0.2718  0.9102 -1.8084
18974TIP3   OH278336   5.521   2.805  12.921  0.3932 -0.1232  0.5973
18974TIP3    H178337   5.572   2.844  12.992  1.0194 -2.6815  1.6951
18974TIP3    H278338   5.430   2.824  12.943  0.6905  1.1271  0.7780
18975TIP3   OH278339   0.013   5.264  13.205  0.6258 -0.7472  0.0651
18975TIP3    H178340   0.064   5.345  13.206  1.2084 -1.1110 -0.2199
18975TIP3    H278341   0.006   5.241  13.113 -0.0234 -0.7297  0.1011
18976TIP3   OH278342   4.283   2.379  16.702 -0.0718 -0.3152  0.1407
18976TIP3    H178343   4.212   2.441  16.685  0.6347  0.4479 -0.0952
18976TIP3    H278344   4.307   2.346  16.616  2.3036  2.2082 -0.3110
18977TIP3   OH278345   2.171   3.633   6.197  0.4166  0.4268  0.0234
18977TIP3    H178346   2.087   3.674   6.220 -0.9433 -1.1453 -1.7843
18977TIP3    H278347   2.187   3.569   6.266  0.4152  1.0738  0.6387
18978TIP3   OH278348   5.341   4.211  13.027 -0.1134  0.1366 -0.7226
18978TIP3    H178349   5.326   4.150  13.099 -0.6171  0.1768 -0.7894
18978TIP3    H278350   5.432   4.238  13.037 -0.5076  1.0594  0.6000
18979TIP3   OH278351   3.530   2.235  10.570  0.2670  0.2169 -0.6199
18979TIP3    H178352   3.507   2.150  10.531  0.5648 -0.4527  0.5979
18979TIP3    H278353   3.617   2.221  10.608 -0.4133  0.5031  1.1418
18980TIP3   OH278354   6.780   6.205  13.759  0.4519  0.8343 -0.3277
18980TIP3    H178355   6.808   6.207  13.667  1.9511  0.7509  0.1024
18980TIP3    H278356   6.743   6.291  13.775  0.4488  0.9513 -0.9250
18981TIP3   OH278357   3.964   3.383  10.732  0.3407  0.5803  0.0318
18981TIP3    H178358   3.883   3.398  10.683 -0.4094 -2.0459  0.3186
18981TIP3    H278359   4.029   3.437  10.687 -1.2135  1.5111 -1.2094
18982TIP3   OH278360   4.450   0.702   0.983  0.1521 -0.0314 -0.3527
18982TIP3    H178361   4.437   0.669   0.894 -1.4735 -0.2376 -0.0750
18982TIP3    H278362   4.362   0.727   1.012  0.5272 -0.7149  1.4861
18983TIP3   OH278363   4.947   3.731   6.371 -0.2564  0.3563  0.1911
18983TIP3    H178364   4.902   3.672   6.431 -0.6352  0.5029  0.0520
18983TIP3    H278365   4.877   3.779   6.327 -0.0460 -0.5688 -1.2145
18984TIP3   OH278366   3.407   0.977   5.063  0.0249 -0.6109  0.4913
18984TIP3    H178367   3.430   0.999   5.153 -0.7676  2.5840  0.0153
18984TIP3    H278368   3.463   1.033   5.010 -0.4883 -1.4452 -0.9798
18985TIP3   OH278369   5.697   0.175  15.003  0.0570  0.1569  0.0878
18985TIP3    H178370   5.675   0.170  14.910 -0.1971  0.8113  0.1055
18985TIP3    H278371   5.644   0.107  15.044 -0.7660  0.6815 -0.0839
18986TIP3   OH278372   0.628   4.209  11.055  0.5513 -0.1591  0.0095
18986TIP3    H178373   0.648   4.201  11.148 -0.2016 -2.1325  0.0349
18986TIP3    H278374   0.533   4.198  11.050  0.3476  1.6096 -0.8566
18987TIP3   OH278375   4.107   4.797  14.059  0.2556 -0.0381 -0.2768
18987TIP3    H178376   4.030   4.838  14.021  0.2029  0.9821  0.8505
18987TIP3    H278377   4.165   4.779  13.985 -0.5657  0.2559 -1.0029
18988TIP3   OH278378   5.602   0.457  13.728  0.2645 -0.0180 -0.3115
18988TIP3    H178379   5.601   0.514  13.806  0.9515  1.2259 -1.1712
18988TIP3    H278380   5.695   0.445  13.708  0.1996 -2.5698  0.5847
18989TIP3   OH278381   1.007   1.819  15.154 -0.7851 -0.0201 -0.0821
18989TIP3    H178382   1.007   1.726  15.129  0.3860 -0.6182  1.8764
18989TIP3    H278383   0.972   1.819  15.244  0.7377  1.2013  0.5589
18990TIP3   OH278384   5.761   5.319   4.387  0.1033 -0.1929 -0.2584
18990TIP3    H178385   5.854   5.332   4.369 -0.1675  1.6749 -0.4967
18990TIP3    H278386   5.737   5.241   4.336  1.8228 -1.6176  0.9648
18991TIP3   OH278387   3.527   6.247   1.599  0.2585  0.8821 -0.1313
18991TIP3    H178388   3.528   6.271   1.692 -1.2809 -3.2993  1.2181
18991TIP3    H278389   3.438   6.269   1.570 -0.8883 -1.9618  0.8835
18992TIP3   OH278390   3.913   4.088  10.918 -0.0648 -0.1587 -0.7717
18992TIP3    H178391   3.910   4.036  10.998 -2.8238  0.6924 -0.2293
18992TIP3    H278392   3.975   4.042  10.862 -1.2084 -3.1715  0.2472
18993TIP3   OH278393   1.603   2.830   2.358 -0.1507  0.1414  0.0771
18993TIP3    H178394   1.553   2.904   2.324  0.2975 -0.8025 -2.8773
18993TIP3    H278395   1.553   2.800   2.434 -2.1520  1.3746 -0.6813
18994TIP3   OH278396   1.192   4.527  16.075  0.5358  0.2678 -0.4174
18994TIP3    H178397   1.098   4.508  16.068  0.4800  0.4033 -0.0433
18994TIP3    H278398   1.197   4.621  16.087  0.4794 -0.0873  3.4959
18995TIP3   OH278399   2.697   0.808   3.370  0.0894  0.5066 -0.3607
18995TIP3    H178400   2.750   0.757   3.309  2.7596  2.0753  0.4990
18995TIP3    H278401   2.656   0.875   3.316 -0.1709 -0.0588 -0.8774
18996TIP3   OH278402   5.145   1.037  11.535 -0.3075  0.2009  0.1155
18996TIP3    H178403   5.119   0.956  11.492  2.1118 -1.0756  0.8783
18996TIP3    H278404   5.218   1.070  11.482 -0.4653  1.2050  0.5031
18997TIP3   OH278405   1.628   5.498   5.061  0.0122  0.2420  0.2880
18997TIP3    H178406   1.535   5.480   5.050  0.5569 -2.1322 -1.2727
18997TIP3    H278407   1.656   5.534   4.978  1.1130 -2.6158 -0.7115
18998TIP3   OH278408   6.606   2.909   4.533 -0.4719  0.0095  0.2403
18998TIP3    H178409   6.519   2.931   4.501 -0.1774  0.9756  0.0912
18998TIP3    H278410   6.664   2.975   4.495  0.5553 -1.4426 -0.8101
18999TIP3   OH278411   1.534   0.989  17.047  0.2093  0.0123 -0.6159
18999TIP3    H178412   1.571   1.072  17.077 -0.2153  0.3661 -1.0512
18999TIP3    H278413   1.523   0.937  17.126  4.5793 -1.3776 -0.6459
19000TIP3   OH278414   6.121   3.112   3.607 -0.0987  0.5789  0.2053
19000TIP3    H178415   6.096   3.024   3.635  0.2968  0.3016 -0.2780
19000TIP3    H278416   6.205   3.128   3.650  1.1067 -0.3270 -1.6580
19001TIP3   OH278417   2.860   3.864   2.895  0.5462 -0.0616  0.3433
19001TIP3    H178418   2.929   3.828   2.839  1.6944  0.2563  1.5003
19001TIP3    H278419   2.838   3.948   2.856 -0.1491 -0.7334 -0.7780
19002TIP3   OH278420   6.703   0.052   1.947  0.4699 -0.2694 -0.5570
19002TIP3    H178421   6.748  -0.003   1.882  3.0738  1.4184 -0.3142
19002TIP3    H278422   6.705  -0.001   2.027  0.5135 -0.9131 -0.9691
19003TIP3   OH278423   3.208   0.018  12.825  0.2102 -0.1776 -0.0450
19003TIP3    H178424   3.291   0.002  12.870 -0.5988  2.3802  2.6479
19003TIP3    H278425   3.158  -0.062  12.841  1.9295 -1.6050 -1.3787
19004TIP3   OH278426   2.597   6.432  12.233 -0.0991 -0.2470 -0.6868
19004TIP3    H178427   2.639   6.468  12.311 -0.4532 -0.5671 -0.3370
19004TIP3    H278428   2.665   6.431  12.166 -0.1211  1.2050 -0.7555
19005TIP3   OH278429   5.450   3.350   5.681 -0.1798  0.4739  0.2961
19005TIP3    H178430   5.381   3.417   5.679 -1.0764 -0.4377 -0.0744
19005TIP3    H278431   5.433   3.301   5.762  1.0690  1.2781  1.0763
19006TIP3   OH278432   2.347   3.149  15.412  0.6383  0.4182  0.2370
19006TIP3    H178433   2.359   3.188  15.499 -0.4984  0.0831  0.5586
19006TIP3    H278434   2.428   3.169  15.366  1.5891 -0.0498  1.6203
19007TIP3   OH278435   2.980   0.114   2.547 -0.2339  0.5119 -0.2205
19007TIP3    H178436   2.995   0.174   2.620  0.5527 -1.0176  0.9178
19007TIP3    H278437   2.892   0.081   2.560 -0.4909  1.0309 -0.5850
19008TIP3   OH278438   5.797   0.424  13.964  0.4845  0.3754 -0.5245
19008TIP3    H178439   5.731   0.381  14.019  0.5123 -2.0693 -2.2377
19008TIP3    H278440   5.874   0.430  14.020  0.3048 -1.3678 -0.0170
19009TIP3   OH278441   5.058   1.801   2.296  0.1111 -0.6443 -0.5015
19009TIP3    H178442   5.135   1.767   2.249 -0.9494 -1.9474 -1.3559
19009TIP3    H278443   5.040   1.885   2.254  2.1913  0.6871  1.0091
19010TIP3   OH278444   5.521   0.749  14.848  0.3030  0.0174  0.0400
19010TIP3    H178445   5.552   0.834  14.880  1.8813 -1.1815  1.8355
19010TIP3    H278446   5.455   0.722  14.912  1.7728 -1.3112  1.0602
19011TIP3   OH278447   5.048   0.655  13.169  0.2255  0.2846  0.8560
19011TIP3    H178448   5.021   0.567  13.143 -0.9429  0.8195  0.1887
19011TIP3    H278449   5.133   0.669  13.127 -1.0809  0.7046 -1.8689
19012TIP3   OH278450   2.347   1.674   3.792 -0.6934 -0.1142  0.2649
19012TIP3    H178451   2.423   1.659   3.736  0.1822  0.9867  1.1003
19012TIP3    H278452   2.385   1.689   3.879 -1.7530  1.7604  0.4492
19013TIP3   OH278453   1.514   3.183  14.683 -0.1323 -0.2351  0.0726
19013TIP3    H178454   1.602   3.188  14.647 -0.2289 -0.8939 -0.2763
19013TIP3    H278455   1.464   3.249  14.635 -0.3385 -1.3167 -1.2692
19014TIP3   OH278456   4.840   1.901   6.303  0.1026 -0.5958  0.0230
19014TIP3    H178457   4.841   1.834   6.234 -0.6802  0.4189 -1.0044
19014TIP3    H278458   4.904   1.966   6.275 -0.8203  0.2422 -0.2137
19015TIP3   OH278459   0.224   1.381   1.389  0.3298 -0.0380  0.2460
19015TIP3    H178460   0.302   1.355   1.340  0.7274  1.0639  0.2750
19015TIP3    H278461   0.213   1.311   1.454  1.5646  0.0050  0.5410
19016TIP3   OH278462   0.757   5.057   2.153 -0.5437 -0.6254 -0.4381
19016TIP3    H178463   0.735   4.965   2.164  0.1055 -1.0293 -2.3085
19016TIP3    H278464   0.676   5.097   2.121 -0.7949 -0.5370  0.2773
19017TIP3   OH278465   3.294   4.954  16.629  0.1161 -0.6997 -0.5538
19017TIP3    H178466   3.357   4.943  16.700  0.3017  0.4356 -0.5368
19017TIP3    H278467   3.346   4.944  16.549 -0.1031 -2.0350 -0.5559
19018TIP3   OH278468   3.476   4.753  12.737  0.5487 -0.3296  0.5449
19018TIP3    H178469   3.468   4.658  12.733 -0.7540 -0.2006 -2.4242
19018TIP3    H278470   3.568   4.770  12.715  0.6459 -0.8826  0.5123
19019TIP3   OH278471   5.172   1.420   2.781  0.3097  0.5845  0.5937
19019TIP3    H178472   5.257   1.377   2.777 -0.4417 -0.9423  0.4261
19019TIP3    H278473   5.112   1.353   2.813 -0.7885  1.7268  1.0310
19020TIP3   OH278474   6.638   3.341   0.995  0.0926  0.0206 -0.0971
19020TIP3    H178475   6.724   3.343   0.952 -0.4945  0.0158 -1.2860
19020TIP3    H278476   6.612   3.433   1.001  0.1868  0.0265  0.3186
19021TIP3   OH278477   0.783   4.260   0.687  0.4071 -0.5067  0.0805
19021TIP3    H178478   0.788   4.169   0.715 -0.1842 -0.8534 -0.9063
19021TIP3    H278479   0.872   4.282   0.659  0.4620 -0.9112 -0.0615
19022TIP3   OH278480   1.721   1.843   2.458 -0.2391  0.0915 -0.8120
19022TIP3    H178481   1.643   1.787   2.463 -0.1579  0.0401  0.0008
19022TIP3    H278482   1.757   1.825   2.371 -0.6503 -0.5346 -0.8642
19023TIP3   OH278483   1.040   2.722  15.688  0.1439  0.0698 -0.0017
19023TIP3    H178484   1.038   2.797  15.748  0.3009  0.0502  0.0308
19023TIP3    H278485   1.125   2.729  15.645  0.0262  0.0877 -0.2291
19024TIP3   OH278486   3.182   5.934  11.557  0.2051 -0.1038 -0.0279
19024TIP3    H178487   3.242   5.872  11.598 -0.1268 -0.2377  0.2687
19024TIP3    H278488   3.138   5.977  11.630  0.9894  1.0623 -0.2080
19025TIP3   OH278489   2.870   4.382   5.181  0.1079 -0.4748 -0.3775
19025TIP3    H178490   2.905   4.295   5.162  0.8656 -0.4262  0.7118
19025TIP3    H278491   2.941   4.442   5.157  0.4394 -0.3126  0.9450
19026TIP3   OH278492   1.169   6.682   4.466  0.1150  0.3503  0.6511
19026TIP3    H178493   1.202   6.658   4.552  1.2689  0.2608  0.2009
19026TIP3    H278494   1.099   6.745   4.483  2.5084  2.9477  1.5791
19027TIP3   OH278495   2.442   3.373  15.864  0.2243  0.1479  0.0102
19027TIP3    H178496   2.538   3.370  15.873  0.0312 -0.7671  2.4669
19027TIP3    H278497   2.409   3.350  15.951 -2.2509 -0.3057 -0.9697
19028TIP3   OH278498   4.529   2.711   0.883 -0.0874  0.2886  0.7210
19028TIP3    H178499   4.492   2.776   0.942 -2.4204 -0.0886 -0.2334
19028TIP3    H278500   4.510   2.626   0.924  0.0663  0.1017  0.4157
19029TIP3   OH278501   6.065   5.474   3.330 -0.1167 -0.5767  0.6566
19029TIP3    H178502   5.974   5.447   3.320 -0.4334  1.2557 -2.3739
19029TIP3    H278503   6.115   5.415   3.273  0.1717  0.3529 -0.0713
19030TIP3   OH278504   0.900   2.612  10.913 -0.3794 -0.0859  0.2922
19030TIP3    H178505   0.882   2.550  10.983  0.0446  0.2297  0.6848
19030TIP3    H278506   0.818   2.619  10.865 -1.3803  1.4087  2.0909
19031TIP3   OH278507   0.689   2.732  16.112  0.7435  0.2709 -0.7542
19031TIP3    H178508   0.772   2.729  16.161 -0.4607  3.0321  1.7324
19031TIP3    H278509   0.633   2.668  16.157  0.2946  1.3248  0.2311
19032TIP3   OH278510   1.716   6.321  12.526 -0.2324  0.5435  0.0583
19032TIP3    H178511   1.694   6.247  12.582 -1.7717  0.7751 -0.2037
19032TIP3    H278512   1.669   6.395  12.563  0.5898  1.2153 -0.2021
19033TIP3   OH278513   1.226   4.414  10.967  0.2538  0.1288  0.2923
19033TIP3    H178514   1.155   4.417  10.903 -1.2254 -1.5165  1.7224
19033TIP3    H278515   1.242   4.320  10.980  0.9757  0.4266  1.7968
19034TIP3   OH278516   5.385   3.347  10.872 -0.3989  0.3193  0.0907
19034TIP3    H178517   5.453   3.330  10.807 -0.7094 -0.4909 -0.0308
19034TIP3    H278518   5.341   3.263  10.884  0.4640  0.1043  2.2809
19035TIP3   OH278519   0.236   2.507  13.271 -0.2075  0.3901 -0.3988
19035TIP3    H178520   0.144   2.511  13.245 -0.2485  0.6120 -0.2294
19035TIP3    H278521   0.234   2.522  13.366 -0.1298 -1.1777 -0.1262
19036TIP3   OH278522   5.006   6.484  16.278 -0.1021 -0.1008  1.0402
19036TIP3    H178523   4.964   6.565  16.249  0.7574  0.1659  0.4813
19036TIP3    H278524   4.950   6.450  16.347  0.5834  2.0514  2.7500
19037TIP3   OH278525   3.876   3.780  16.920  0.0155  0.4493  0.3626
19037TIP3    H178526   3.922   3.793  16.837 -0.9142  0.8157 -0.1174
19037TIP3    H278527   3.945   3.759  16.983  0.5428 -2.8050 -1.0665
19038TIP3   OH278528   5.866   2.642   2.960  0.1183 -0.3999  0.2435
19038TIP3    H178529   5.892   2.563   3.007 -0.1708 -1.9018 -1.9477
19038TIP3    H278530   5.942   2.665   2.907 -0.1622  0.1724  0.0801
19039TIP3   OH278531   0.561   1.739   1.756 -0.3280 -0.4957 -0.3856
19039TIP3    H178532   0.506   1.698   1.688 -1.7183  0.2070  0.2686
19039TIP3    H278533   0.509   1.814   1.787  1.8244  1.3988 -1.0618
19040TIP3   OH278534   2.664   2.762  14.853 -0.1091 -0.2339 -0.4700
19040TIP3    H178535   2.750   2.777  14.814 -0.7010 -0.2538 -1.8619
19040TIP3    H278536   2.604   2.765  14.778 -1.0264 -2.9157  0.0709
19041TIP3   OH278537   1.764   4.856  14.311 -0.4749 -0.3691  0.9800
19041TIP3    H178538   1.790   4.881  14.399 -0.3406  0.5658  0.6808
19041TIP3    H278539   1.715   4.931  14.278 -0.0234 -0.4734  0.0474
19042TIP3   OH278540   4.569   5.646   3.638 -0.1801 -0.1455 -0.5805
19042TIP3    H178541   4.593   5.572   3.582  3.1463  1.1573 -1.0871
19042TIP3    H278542   4.636   5.648   3.706  0.0707  2.5226 -0.7851
19043TIP3   OH278543   0.085   5.817  10.644 -0.0155  0.0671  0.3925
19043TIP3    H178544   0.139   5.801  10.566  0.0819  0.0402  0.4657
19043TIP3    H278545   0.041   5.733  10.660 -0.0801  0.0901  0.3305
19044TIP3   OH278546   3.189   4.702  11.379 -0.3877 -0.3903  0.3324
19044TIP3    H178547   3.151   4.758  11.311 -0.6504  1.2372  1.7545
19044TIP3    H278548   3.283   4.716  11.372 -0.1416 -2.5407 -1.5927
19045TIP3   OH278549   6.562   5.723  15.682  0.1498  0.1762  0.5075
19045TIP3    H178550   6.609   5.650  15.722  3.3346  0.8817 -1.5678
19045TIP3    H278551   6.512   5.683  15.611  2.1264 -0.0997 -0.8284
19046TIP3   OH278552   6.201   5.624  15.875  0.1537 -0.1531 -0.5242
19046TIP3    H178553   6.189   5.544  15.926 -0.5000  0.1244 -0.2326
19046TIP3    H278554   6.292   5.650  15.892  0.0068 -0.1769  0.3344
19047TIP3   OH278555   5.237   3.585  14.188 -1.2940 -0.2914 -0.2900
19047TIP3    H178556   5.180   3.662  14.185  0.1418  0.8343  0.1755
19047TIP3    H278557   5.312   3.612  14.241  0.1620 -1.3746 -1.6612
19048TIP3   OH278558   0.139   4.071   2.497  0.8630  0.4810 -0.2823
19048TIP3    H178559   0.074   4.099   2.432  0.7916  1.3901  0.1568
19048TIP3    H278560   0.109   3.985   2.525  0.7028  0.2288 -1.2015
19049TIP3   OH278561   6.074   5.863  12.847 -0.1143 -0.0595 -0.4239
19049TIP3    H178562   6.146   5.846  12.787  1.5708 -1.2765  1.7801
19049TIP3    H278563   6.030   5.778  12.855  2.2029 -1.1556  3.0067
19050TIP3   OH278564   3.342   0.766  15.426 -0.0534 -0.1964 -0.0914
19050TIP3    H178565   3.311   0.760  15.335 -2.1314  1.6006  0.4056
19050TIP3    H278566   3.407   0.836  15.425 -0.8053  0.5213 -0.0639
19051TIP3   OH278567   3.530   4.199   5.790 -0.0866 -0.3705 -0.5655
19051TIP3    H178568   3.551   4.205   5.883 -0.7292 -1.4435 -0.3340
19051TIP3    H278569   3.605   4.155   5.751 -0.2555 -0.8240 -0.3803
19052TIP3   OH278570   4.317   5.547  14.555  0.2190 -0.2249 -0.0780
19052TIP3    H178571   4.370   5.565  14.477 -0.2137  0.3347 -0.2502
19052TIP3    H278572   4.283   5.459  14.541 -1.4836  0.5942 -1.5007
19053TIP3   OH278573   3.280   2.021  13.961 -0.5276 -0.5167  0.9647
19053TIP3    H178574   3.316   2.080  14.027 -2.0561  0.7699  0.6973
19053TIP3    H278575   3.186   2.039  13.961 -0.7350 -1.4272 -0.6497
19054TIP3   OH278576   5.136   3.262  11.423  0.1955  0.7009 -0.0240
19054TIP3    H178577   5.150   3.225  11.335 -0.2921 -1.5213  0.7825
19054TIP3    H278578   5.050   3.230  11.449  0.5130  0.9909  1.4451
19055TIP3   OH278579   1.113   3.903   0.087 -0.1576  0.2102  0.2123
19055TIP3    H178580   1.171   3.854   0.146 -1.3613 -0.0518  1.2149
19055TIP3    H278581   1.116   3.853   0.005  2.7508  1.4334 -0.5453
19056TIP3   OH278582   6.139   4.556   2.381 -0.3776 -0.1339 -0.2881
19056TIP3    H178583   6.122   4.549   2.475  0.4937  0.9935 -0.0181
19056TIP3    H278584   6.201   4.629   2.374 -1.1970  0.4455 -1.8309
19057TIP3   OH278585   4.813   4.014  14.545 -0.1744  0.0784  0.2592
19057TIP3    H178586   4.775   4.097  14.575  0.8232  0.8505 -0.5393
19057TIP3    H278587   4.787   4.006  14.453 -2.8543 -2.0704  1.0616
19058TIP3   OH278588   6.365   3.438  15.148 -0.2755 -0.4217  0.4754
19058TIP3    H178589   6.388   3.354  15.187 -0.2642 -1.5214 -1.7782
19058TIP3    H278590   6.272   3.431  15.127 -0.6412  0.7125  1.5607
19059TIP3   OH278591   0.517   4.647  13.981 -0.5154 -0.1658  0.9003
19059TIP3    H178592   0.535   4.561  14.019 -2.4547 -0.6113  0.9129
19059TIP3    H278593   0.426   4.665  14.003 -1.7204 -0.2782 -3.0801
19060TIP3   OH278594   2.607   2.306  13.230 -0.6421 -0.1149 -0.3330
19060TIP3    H178595   2.559   2.342  13.155  0.8065  1.0871 -0.7395
19060TIP3    H278596   2.560   2.225  13.252 -2.5954  0.8020 -0.9159
19061TIP3   OH278597   5.357   3.160   3.494 -0.7436  0.0379 -0.3666
19061TIP3    H178598   5.353   3.102   3.418  1.2037 -0.6810  0.0197
19061TIP3    H278599   5.282   3.135   3.548  0.0392 -2.1398 -0.2078
19062TIP3   OH278600   1.893   1.870   6.592  0.0473 -0.1738 -0.1392
19062TIP3    H178601   1.828   1.828   6.534 -3.2591  2.1755  1.5338
19062TIP3    H278602   1.925   1.799   6.647 -2.2391 -1.2767 -0.0945
19063TIP3   OH278603   3.350   2.588   4.505 -0.1667 -0.7245  0.1854
19063TIP3    H178604   3.408   2.663   4.516  2.2402 -2.3010 -0.8382
19063TIP3    H278605   3.297   2.586   4.585 -0.0469  1.7864  0.3965
19064TIP3   OH278606   1.076   4.357  13.600 -0.3571 -0.4583 -0.2166
19064TIP3    H178607   1.030   4.440  13.614  0.6800  0.0554  0.2819
19064TIP3    H278608   1.162   4.384  13.567 -0.1853 -1.3697 -0.5353
19065TIP3   OH278609   6.638   6.167  15.864  0.1516 -0.7653 -0.2422
19065TIP3    H178610   6.732   6.185  15.857  0.4788 -1.5694  1.5217
19065TIP3    H278611   6.614   6.130  15.778  1.3870 -0.3739 -0.7767
19066TIP3   OH278612   3.360   5.576  16.873  0.4182 -0.1604  0.3499
19066TIP3    H178613   3.365   5.671  16.880  0.5230 -0.2557  1.7295
19066TIP3    H278614   3.316   5.548  16.953 -0.4482 -1.2193 -0.4541
19067TIP3   OH278615   0.225   2.360  13.573  0.3404 -0.3989 -0.0688
19067TIP3    H178616   0.307   2.409  13.560  1.8576 -2.4559  1.1880
19067TIP3    H278617   0.234   2.284  13.516 -1.0611 -0.2990 -0.4494
19068TIP3   OH278618   6.663   0.588  12.688  0.3301 -0.5221  0.0115
19068TIP3    H178619   6.673   0.679  12.662  0.3705 -0.7496 -0.7969
19068TIP3    H278620   6.699   0.584  12.776 -1.8881  0.7379  1.0506
19069TIP3   OH278621   3.279   5.726  14.346  0.2222  0.2076  0.5468
19069TIP3    H178622   3.262   5.726  14.440 -0.3675 -1.2319  0.4580
19069TIP3    H278623   3.369   5.694  14.338  0.0195 -0.3914  0.5974
19070TIP3   OH278624   4.561   2.689  16.069  0.1252 -0.4071  0.1527
19070TIP3    H178625   4.598   2.653  16.149 -0.1003 -1.1776 -0.0767
19070TIP3    H278626   4.620   2.760  16.045  0.2191 -0.1998  0.9683
19071TIP3   OH278627   5.891   4.763   3.440 -0.3764 -0.2980 -0.8596
19071TIP3    H178628   5.915   4.716   3.519  2.3591  1.6302 -0.3804
19071TIP3    H278629   5.938   4.718   3.370 -0.6005 -0.3961 -0.9452
19072TIP3   OH278630   2.603   1.071   5.560  0.2198  0.5136  0.2789
19072TIP3    H178631   2.586   1.051   5.468  0.9903  0.1185  0.2205
19072TIP3    H278632   2.682   1.022   5.582 -0.0254  0.4938  1.1923
19073TIP3   OH278633   3.130   4.413  14.939 -0.4128 -0.1305  0.2956
19073TIP3    H178634   3.077   4.491  14.925 -0.9042 -0.7125 -1.2153
19073TIP3    H278635   3.197   4.416  14.871  0.4033 -0.3507  1.0622
19074TIP3   OH278636   0.298   1.802  16.600  0.2453  0.3413 -0.3400
19074TIP3    H178637   0.213   1.803  16.645  0.7144 -0.0147  0.5853
19074TIP3    H278638   0.353   1.860  16.651  0.4364  0.9550 -1.2209
19075TIP3   OH278639   2.118   6.576   3.586  0.3425  0.0171  0.3700
19075TIP3    H178640   2.031   6.572   3.624  0.2754  0.0903  0.2261
19075TIP3    H278641   2.122   6.662   3.544  0.0705 -0.4313 -0.6037
19076TIP3   OH278642   0.621   1.741  12.204 -0.2685 -0.2942  0.1155
19076TIP3    H178643   0.606   1.760  12.297 -0.6617 -1.0466  0.2115
19076TIP3    H278644   0.619   1.827  12.162  2.2927  0.3428  1.1042
19077TIP3   OH278645   4.410   6.648   3.778 -0.3532  0.2297  0.3577
19077TIP3    H178646   4.426   6.730   3.826 -1.3822  1.0890 -0.7080
19077TIP3    H278647   4.381   6.586   3.845 -1.6203  1.3555  0.8882
19078TIP3   OH278648   5.389   3.380  16.438 -0.1588 -0.1802  0.0272
19078TIP3    H178649   5.427   3.360  16.524  3.0624 -0.1674 -1.2698
19078TIP3    H278650   5.388   3.297  16.392  0.2921  0.2040 -0.6866
19079TIP3   OH278651   4.851   5.836   4.946 -0.0317 -0.0936  0.4322
19079TIP3    H178652   4.945   5.850   4.956  0.0881 -0.9968  0.5821
19079TIP3    H278653   4.824   5.790   5.025 -0.4310 -0.6525 -0.0247
19080TIP3   OH278654   1.973   5.439  14.044  0.2161 -0.3613 -0.2596
19080TIP3    H178655   1.904   5.405  14.101  0.1762 -0.2433 -0.2351
19080TIP3    H278656   2.020   5.362  14.012  1.1106 -0.3856  1.0305
19081TIP3   OH278657   4.096   2.682   0.477  0.3636  0.2741 -0.5986
19081TIP3    H178658   4.070   2.698   0.386 -3.7413 -0.1299  0.3348
19081TIP3    H278659   4.086   2.587   0.488  0.5093  0.3680  0.3881
19082TIP3   OH278660   2.228   0.422   4.127 -0.0403  0.1147  0.6398
19082TIP3    H178661   2.223   0.479   4.050  0.4509 -0.4963  0.1528
19082TIP3    H278662   2.305   0.367   4.113 -0.4239 -0.5842  1.1647
19083TIP3   OH278663   0.391   3.918   1.384 -0.3642  0.6201  0.0053
19083TIP3    H178664   0.398   3.970   1.464 -1.6818 -0.5963  0.9559
19083TIP3    H278665   0.372   3.829   1.414  0.2313 -0.0964 -1.6261
19084TIP3   OH278666   0.597   1.263  16.685 -0.3448  0.0978 -0.1179
19084TIP3    H178667   0.637   1.225  16.763 -1.0952 -2.2130 -0.7886
19084TIP3    H278668   0.603   1.358  16.699 -0.3734 -0.2321  2.6861
19085TIP3   OH278669   4.033   1.981  13.695  0.2384  0.1355  0.3737
19085TIP3    H178670   4.081   1.923  13.755  0.0745 -0.1876  0.1988
19085TIP3    H278671   3.945   1.986  13.733  0.3227  0.4755  0.5244
19086TIP3   OH278672   6.714   0.483  16.807 -0.2658  0.1779  0.3389
19086TIP3    H178673   6.715   0.390  16.785 -2.2396  0.7139 -2.5844
19086TIP3    H278674   6.794   0.519  16.767  0.2792 -0.1792  1.1017
19087TIP3   OH278675   1.149   2.016  11.243 -0.8647  0.1980  0.3557
19087TIP3    H178676   1.097   2.096  11.254  0.4612  1.0972  0.3548
19087TIP3    H278677   1.143   1.996  11.150 -0.8586  0.5415  0.2811
19088TIP3   OH278678   1.855   0.600  11.909  0.4973 -0.6279 -0.3951
19088TIP3    H178679   1.882   0.674  11.962  0.9518 -1.2747  0.2873
19088TIP3    H278680   1.848   0.527  11.970  1.9845 -1.6318 -1.3607
19089TIP3   OH278681   3.620   3.847  17.044  0.2583 -0.3947  0.1457
19089TIP3    H178682   3.659   3.935  17.048 -0.0367 -0.3037  1.5326
19089TIP3    H278683   3.694   3.791  17.020  0.8506  0.0244  0.9029
19090TIP3   OH278684   0.960   4.778  15.621  0.1625 -0.0081 -0.2604
19090TIP3    H178685   0.921   4.739  15.543  0.5558 -0.2236 -0.3547
19090TIP3    H278686   1.026   4.714  15.650 -0.1630 -0.0539  0.4054
19091TIP3   OH278687   5.641   2.992   0.913  0.1605 -0.1763 -0.1302
19091TIP3    H178688   5.578   2.922   0.930 -1.2920  0.9473 -0.5735
19091TIP3    H278689   5.679   2.970   0.828  2.3668 -2.2152  1.2655
19092TIP3   OH278690   1.380   4.698  16.273 -0.3472 -0.2427 -0.7523
19092TIP3    H178691   1.311   4.665  16.330  0.4167  0.6262  0.7267
19092TIP3    H278692   1.451   4.635  16.281  0.6502  1.0151  1.1426
19093TIP3   OH278693   4.704   0.043   3.321  0.1422 -1.0958 -0.3698
19093TIP3    H178694   4.619   0.034   3.365  0.3515 -1.5698 -0.0545
19093TIP3    H278695   4.685   0.027   3.229 -0.1528 -0.9667 -0.3329
19094TIP3   OH278696   3.943   1.047  13.601 -0.1360  1.1695  0.2346
19094TIP3    H178697   4.004   1.009  13.664  0.2174 -0.4236 -1.0152
19094TIP3    H278698   3.862   0.997  13.613  0.4855 -0.4359 -1.7624
19095TIP3   OH278699   6.480   4.289  14.384  0.1698 -0.0279 -0.1321
19095TIP3    H178700   6.401   4.265  14.433  0.2585 -0.2844 -0.1122
19095TIP3    H278701   6.458   4.269  14.293 -0.0239  0.5255 -0.2106
19096TIP3   OH278702   1.639   5.569   2.711 -0.5025 -0.5961  0.5258
19096TIP3    H178703   1.650   5.513   2.635  2.3264  0.2468  0.2038
19096TIP3    H278704   1.711   5.633   2.705 -2.3963  1.8607  1.9133
19097TIP3   OH278705   3.185   0.706   2.891 -0.5133 -0.2633  0.1136
19097TIP3    H178706   3.228   0.692   2.806 -0.4552 -3.0545  0.5097
19097TIP3    H278707   3.255   0.736   2.949  0.0899 -1.1768 -0.1336
19098TIP3   OH278708   6.036   4.584  12.886  0.0742  0.3161 -0.7755
19098TIP3    H178709   6.118   4.540  12.866 -0.5898 -0.9412 -0.8022
19098TIP3    H278710   6.033   4.589  12.981 -0.4456 -0.8822 -0.7204
19099TIP3   OH278711   1.751   6.331  16.926 -0.1988  0.2116 -0.0149
19099TIP3    H178712   1.813   6.362  16.859 -0.9014 -1.2241 -1.4101
19099TIP3    H278713   1.708   6.256  16.885 -2.2469  0.6297  1.2510
19100TIP3   OH278714   1.382   3.033  13.248 -0.1430 -0.8026 -0.1333
19100TIP3    H178715   1.440   3.080  13.308 -1.8842  0.7820  0.3926
19100TIP3    H278716   1.403   3.070  13.162  0.7691 -1.4399 -0.1952
19101TIP3   OH278717   3.650   4.547  11.385  0.5433 -0.2265 -0.8957
19101TIP3    H178718   3.600   4.556  11.467  1.9102  0.9557 -0.1426
19101TIP3    H278719   3.646   4.454  11.365  0.4790 -0.6113  0.7370
19102TIP3   OH278720   5.355   0.158  14.076 -0.4426  0.1329  0.4976
19102TIP3    H178721   5.316   0.192  13.995 -0.3987  0.1807  0.4957
19102TIP3    H278722   5.328   0.067  14.080  0.6175 -0.2373 -0.2381
19103TIP3   OH278723   6.643   3.397  15.626 -0.3923 -0.2820 -0.5969
19103TIP3    H178724   6.731   3.363  15.640 -0.6992 -1.7005 -1.8750
19103TIP3    H278725   6.641   3.479  15.675  0.9684 -1.2089  1.1390
19104TIP3   OH278726   4.448   5.178  14.317  0.5704 -0.2184 -0.2353
19104TIP3    H178727   4.366   5.144  14.280 -0.3441  0.5661  1.0173
19104TIP3    H278728   4.478   5.243  14.254  0.0067 -0.2009 -0.4847
19105TIP3   OH278729   4.791   5.068   4.852 -0.2416 -0.3706  0.1237
19105TIP3    H178730   4.756   4.985   4.820 -1.1179 -0.1602  0.4959
19105TIP3    H278731   4.753   5.078   4.939  0.5045  0.0362  0.4123
19106TIP3   OH278732   1.450   3.905   3.394 -0.3543 -0.8050  0.1318
19106TIP3    H178733   1.465   3.888   3.487 -1.7392 -1.6960  0.2316
19106TIP3    H278734   1.432   3.999   3.390 -0.9341 -0.8629  0.8894
19107TIP3   OH278735   6.119   0.135   5.637 -0.2254  0.2987 -0.2742
19107TIP3    H178736   6.193   0.084   5.604 -0.2229 -0.0179  0.2134
19107TIP3    H278737   6.043   0.080   5.620  0.0355 -1.2940  2.9461
19108TIP3   OH278738   1.627   1.208   4.637  0.0497 -0.3220 -0.5643
19108TIP3    H178739   1.691   1.277   4.619  0.2806 -0.7576 -1.4253
19108TIP3    H278740   1.620   1.159   4.556 -0.6910 -0.8536 -0.1955
19109TIP3   OH278741   2.976   2.840   2.125 -0.4681  0.4343  0.7467
19109TIP3    H178742   2.897   2.823   2.073 -0.3992 -2.7347  1.4846
19109TIP3    H278743   3.047   2.839   2.062 -0.8057  1.3099  0.3353
19110TIP3   OH278744   1.448   4.856   4.436 -0.1076 -0.1835 -0.1274
19110TIP3    H178745   1.537   4.875   4.464 -0.2148 -3.3963  3.1225
19110TIP3    H278746   1.438   4.762   4.449 -4.2993  0.1855  0.7980
19111TIP3   OH278747   4.933   3.819  16.207 -0.7402  0.0510  0.2850
19111TIP3    H178748   4.932   3.909  16.240  0.4914  0.2058 -0.0627
19111TIP3    H278749   4.919   3.828  16.113  1.9181  0.1171 -0.1654
19112TIP3   OH278750   5.645   1.018   2.924 -0.0173  0.7094 -0.1856
19112TIP3    H178751   5.658   1.031   2.830 -0.7591  1.0345 -0.2511
19112TIP3    H278752   5.727   1.045   2.964 -0.2233  2.0311 -0.6208
19113TIP3   OH278753   0.329   4.531  16.158 -0.1980  0.0776  0.2666
19113TIP3    H178754   0.258   4.573  16.206 -0.5240 -1.3028  1.0545
19113TIP3    H278755   0.292   4.447  16.129  0.7631 -0.1807 -0.2518
19114TIP3   OH278756   1.082   6.273  16.480 -0.7067  0.0075  0.1830
19114TIP3    H178757   1.073   6.214  16.555  0.2866  0.1480  0.4319
19114TIP3    H278758   1.112   6.217  16.409 -0.0149  0.1511  0.3515
19115TIP3   OH278759   5.811   1.627   3.736  0.1075  0.3529  0.7674
19115TIP3    H178760   5.726   1.597   3.769 -0.0764 -0.4633 -0.4076
19115TIP3    H278761   5.808   1.610   3.642  1.4866  0.5384  0.6690
19116TIP3   OH278762   2.621   4.956   4.010  0.2788 -0.0302 -0.3026
19116TIP3    H178763   2.691   5.014   4.040  0.3915 -0.4264  0.2058
19116TIP3    H278764   2.651   4.868   4.034  0.4512 -0.3790 -1.7099
19117TIP3   OH278765   1.772   5.289   4.927  0.4904 -0.3732  0.5721
19117TIP3    H178766   1.863   5.318   4.939  0.3420  0.7639 -0.9035
19117TIP3    H278767   1.720   5.350   4.979  0.4415 -0.0156  0.1047
19118TIP3   OH278768   4.162   2.120   5.074  0.7763  0.6823 -0.2512
19118TIP3    H178769   4.137   2.030   5.051  1.2122  1.0460 -2.3374
19118TIP3    H278770   4.258   2.120   5.070  0.7719  1.2705 -0.3668
19119TIP3   OH278771   1.596   4.758   1.925 -0.4379 -0.2935  0.0187
19119TIP3    H178772   1.681   4.775   1.886 -1.4196  0.4289 -1.9686
19119TIP3    H278773   1.596   4.806   2.008  0.9177 -0.0081 -0.1377
19120TIP3   OH278774   4.843   5.942   2.906 -0.5413 -0.3153 -0.1850
19120TIP3    H178775   4.912   5.902   2.854  0.3988  1.5403 -0.4435
19120TIP3    H278776   4.789   5.869   2.934  1.7520 -1.8888  0.3925
19121TIP3   OH278777   5.209   1.377   5.824  0.4041  0.2006  0.0888
19121TIP3    H178778   5.208   1.414   5.912 -0.2382 -0.4628  0.3753
19121TIP3    H278779   5.123   1.398   5.788 -0.2385 -1.5451  0.5090
19122TIP3   OH278780   6.296   5.751   0.324 -0.2488  0.0641 -0.0850
19122TIP3    H178781   6.372   5.694   0.337 -0.1924  0.2631  0.5031
19122TIP3    H278782   6.300   5.812   0.397 -0.5133  0.5981 -0.5104
19123TIP3   OH278783   3.158   3.265  14.342 -0.4996  0.0733 -0.1523
19123TIP3    H178784   3.124   3.354  14.341  1.5727  0.9267 -0.9065
19123TIP3    H278785   3.178   3.246  14.250  0.0698 -0.7449  0.1229
19124TIP3   OH278786   5.525   3.389  12.058  0.1561 -0.6135  0.2868
19124TIP3    H178787   5.482   3.474  12.055  0.6565 -0.1389  3.3319
19124TIP3    H278788   5.500   3.346  11.977 -1.3951  1.8171 -0.6151
19125TIP3   OH278789   2.812   1.448   2.497  0.1969 -0.5010 -0.6818
19125TIP3    H178790   2.893   1.491   2.523 -0.5308  0.0081  0.9208
19125TIP3    H278791   2.778   1.410   2.578 -0.7257 -1.4635 -1.4844
19126TIP3   OH278792   2.358   4.398   1.603 -0.2597  0.1037 -0.0723
19126TIP3    H178793   2.432   4.432   1.652  0.8446 -1.8855 -0.2494
19126TIP3    H278794   2.290   4.384   1.669 -0.1762  1.0848  0.2362
19127TIP3   OH278795   0.272   4.483  14.612  0.1115 -0.4318 -0.6367
19127TIP3    H178796   0.267   4.558  14.552 -1.8858  0.7487  0.8448
19127TIP3    H278797   0.239   4.409  14.562 -0.6386  0.3278 -1.2929
19128TIP3   OH278798   3.996   4.042   5.973 -0.1230  0.2160  0.6375
19128TIP3    H178799   3.991   4.096   6.051  0.3823 -0.7512  1.3600
19128TIP3    H278800   3.907   4.044   5.936  0.4066  3.4714 -0.7350
19129TIP3   OH278801   2.452   0.237  16.231  0.5394  0.1946 -0.1817
19129TIP3    H178802   2.508   0.314  16.239 -2.0365  2.3039 -0.7082
19129TIP3    H278803   2.472   0.185  16.308  0.8305  2.5460  1.4567
19130TIP3   OH278804   6.381   4.642   5.833  0.0186  0.1959 -0.5062
19130TIP3    H178805   6.475   4.624   5.839 -0.1498 -0.4618  0.2133
19130TIP3    H278806   6.362   4.635   5.739  0.7513  0.7188 -0.7127
19131TIP3   OH278807   5.524   1.472   3.426  0.1824 -0.1840 -0.0235
19131TIP3    H178808   5.530   1.459   3.331  3.0057  0.7540 -0.0531
19131TIP3    H278809   5.528   1.567   3.437  1.9495 -0.3468  1.0876
19132TIP3   OH278810   3.464   3.210   5.564 -0.4878  0.4654 -0.4448
19132TIP3    H178811   3.508   3.289   5.532 -1.2828  0.6762 -1.0597
19132TIP3    H278812   3.527   3.140   5.551  0.6287  1.1496  1.0825
19133TIP3   OH278813   6.388   1.239  16.359 -0.0535 -0.5811 -0.2917
19133TIP3    H178814   6.439   1.159  16.373  0.7327  0.1046  0.9244
19133TIP3    H278815   6.340   1.251  16.441  0.9295  0.9520  0.0975
19134TIP3   OH278816   4.398   4.855   2.928 -0.0398  0.5860  0.1774
19134TIP3    H178817   4.348   4.813   2.858  0.2480  1.7443 -0.7577
19134TIP3    H278818   4.384   4.799   3.004 -0.4490 -0.6567 -0.7725
19135TIP3   OH278819   2.306   0.289  14.032  0.0995  0.2524  0.1208
19135TIP3    H178820   2.310   0.194  14.047 -2.6035  0.1478  0.5757
19135TIP3    H278821   2.248   0.300  13.958  1.6553  1.5454 -0.9827
19136TIP3   OH278822   3.948   6.591  12.104  0.4693  0.6349 -0.8685
19136TIP3    H178823   3.986   6.594  12.191  1.0928  0.6625 -1.1332
19136TIP3    H278824   4.020   6.560  12.048 -0.0421  0.2221 -1.3009
19137TIP3   OH278825   2.646   0.688  11.144 -0.1173  0.4378 -0.4923
19137TIP3    H178826   2.720   0.726  11.098 -1.1260  1.4136 -1.3786
19137TIP3    H278827   2.616   0.757  11.203 -0.8517  0.3967 -0.8000
19138TIP3   OH278828   1.860   5.985   2.246 -0.2220  0.2738  0.1845
19138TIP3    H178829   1.849   5.891   2.229  1.0023  0.2965 -0.8075
19138TIP3    H278830   1.838   6.027   2.163 -0.5002  0.8603  0.5482
19139TIP3   OH278831   1.499   1.959   0.246  0.5040  0.3833  0.4325
19139TIP3    H178832   1.457   1.877   0.220  0.0217  0.8947 -0.4901
19139TIP3    H278833   1.439   1.997   0.310 -0.3275  0.9558 -0.6416
19140TIP3   OH278834   5.878   2.214  13.016 -0.4973 -0.3448  0.2020
19140TIP3    H178835   5.821   2.186  13.087 -1.3061  1.0867  0.1565
19140TIP3    H278836   5.821   2.218  12.939  0.1106 -0.7748 -0.2868
19141TIP3   OH278837   2.838   1.422   6.104 -0.2957 -0.3759 -0.5008
19141TIP3    H178838   2.791   1.350   6.147 -1.2518  0.4146 -0.1692
19141TIP3    H278839   2.843   1.491   6.171 -0.6615  0.3952 -1.2408
19142TIP3   OH278840   4.840   0.094   5.194 -0.0900  0.2293 -0.1303
19142TIP3    H178841   4.763   0.149   5.184  0.1007  1.3727  3.3993
19142TIP3    H278842   4.814   0.027   5.258  1.3039 -0.5094 -0.2822
19143TIP3   OH278843   0.688   5.459   4.148  0.2629  0.4367  0.8386
19143TIP3    H178844   0.595   5.479   4.157  0.5282  1.1573  2.4058
19143TIP3    H278845   0.732   5.541   4.171  1.2892  0.1581 -0.0572
19144TIP3   OH278846   2.644   6.078  15.354 -0.4207 -0.4221  0.3206
19144TIP3    H178847   2.558   6.107  15.385 -1.5483 -0.5143 -2.4220
19144TIP3    H278848   2.639   5.983  15.354 -0.9608 -0.4281 -1.2820
19145TIP3   OH278849   6.319   3.981   0.837  0.1258 -0.0791  0.1271
19145TIP3    H178850   6.279   3.918   0.897  0.4393  0.0205  0.4403
19145TIP3    H278851   6.288   4.066   0.868 -1.2449 -0.1194 -0.9850
19146TIP3   OH278852   0.838   4.498  15.535 -0.2520 -0.1721  0.2108
19146TIP3    H178853   0.832   4.563  15.465 -1.5458  0.0310  0.4804
19146TIP3    H278854   0.754   4.453  15.533  0.1476 -0.9749  0.8593
19147TIP3   OH278855   5.766   1.741  16.381 -0.4531  0.1512  0.2217
19147TIP3    H178856   5.717   1.681  16.326  0.0609  1.0653 -1.2805
19147TIP3    H278857   5.712   1.821  16.384 -0.7733 -0.0822  1.5821
19148TIP3   OH278858   1.305   0.499   6.674 -0.3540  0.2280  0.0561
19148TIP3    H178859   1.274   0.576   6.721 -1.1079  0.0400 -0.1107
19148TIP3    H278860   1.272   0.511   6.584 -0.9729 -0.5504  0.1621
19149TIP3   OH278861   6.010   4.646   3.043 -0.3682 -0.0554 -0.1411
19149TIP3    H178862   6.041   4.569   2.996  0.5262  0.8671 -1.1159
19149TIP3    H278863   6.057   4.719   3.004  0.8841  0.7335  2.5884
19150TIP3   OH278864   4.066   0.522   6.334 -0.2982  0.4196 -0.1176
19150TIP3    H178865   4.110   0.460   6.276 -1.6598 -0.0840 -0.6277
19150TIP3    H278866   3.975   0.495   6.335 -0.3205  0.3744  2.3218
19151TIP3   OH278867   5.609   3.294  12.664 -0.0434 -0.1779 -0.1362
19151TIP3    H178868   5.590   3.217  12.610 -1.6775 -0.6859  1.0788
19151TIP3    H278869   5.660   3.261  12.738 -0.6800 -0.0923  0.3491
19152TIP3   OH278870   0.488   5.045  14.914 -0.1887 -0.0627 -0.5172
19152TIP3    H178871   0.495   5.116  14.978 -1.6827  0.2404 -0.6513
19152TIP3    H278872   0.550   5.069  14.844 -0.4392  0.9453 -0.4066
19153TIP3   OH278873   1.807   1.628   3.039 -0.2448 -0.3453 -0.5766
19153TIP3    H178874   1.881   1.655   3.092 -0.2858  1.6682 -1.4593
19153TIP3    H278875   1.735   1.616   3.101  0.6813 -1.9998  0.2405
19154TIP3   OH278876   2.168   5.019   5.721 -0.5621 -0.3845  0.1493
19154TIP3    H178877   2.148   4.927   5.733 -1.0990 -0.1246  1.4002
19154TIP3    H278878   2.156   5.035   5.628 -0.7943 -1.4971 -0.0185
19155TIP3   OH278879   4.090   0.771   0.082 -0.6816  0.1864  0.0272
19155TIP3    H178880   4.007   0.769   0.035 -1.2116 -0.8358  0.9497
19155TIP3    H278881   4.073   0.827   0.158 -0.3118  0.5231 -0.1327
19156TIP3   OH278882   4.657   4.838  16.740  0.1534 -0.2719  0.1182
19156TIP3    H178883   4.736   4.850  16.792  0.2930  1.7265 -0.4762
19156TIP3    H278884   4.686   4.785  16.665  0.7990  0.0066  0.1634
19157TIP3   OH278885   5.079   1.228  16.339  0.8609  0.0074 -0.1816
19157TIP3    H178886   5.157   1.252  16.288  0.2628  0.9030 -0.7104
19157TIP3    H278887   5.007   1.272  16.293  0.0785 -0.6085  0.4426
19158TIP3   OH278888   6.615   2.016   3.659 -0.4494  0.0471  0.3257
19158TIP3    H178889   6.610   2.108   3.635 -0.3856 -0.1635 -0.5589
19158TIP3    H278890   6.708   1.994   3.655 -0.4398 -0.0025  0.7591
19159TIP3   OH278891   3.337   1.970  16.992  0.5421  0.2020 -0.1238
19159TIP3    H178892   3.342   2.045  16.933 -0.0778  0.5900  0.3076
19159TIP3    H278893   3.367   1.896  16.939  0.4940  0.6310 -0.7608
19160TIP3   OH278894   4.720   4.501   2.695 -0.2171  0.0771  0.0615
19160TIP3    H178895   4.707   4.543   2.780 -1.2479  0.3246 -0.1965
19160TIP3    H278896   4.677   4.416   2.704  1.1949 -0.6379  0.3363
19161TIP3   OH278897   2.007   0.336  16.831  0.2902 -0.2421 -0.3529
19161TIP3    H178898   2.003   0.276  16.906  0.6255  0.5989  0.3518
19161TIP3    H278899   1.941   0.403  16.850 -0.2058 -0.4662 -1.2221
19162TIP3   OH278900   3.203   1.907   2.193  0.7321 -0.1369 -0.3573
19162TIP3    H178901   3.111   1.930   2.188  0.3100 -1.4296  0.9921
19162TIP3    H278902   3.249   1.990   2.178 -0.6710  0.8433  0.5638
19163TIP3   OH278903   1.717   6.472   2.637 -0.1295 -0.7621  0.1793
19163TIP3    H178904   1.738   6.390   2.591 -0.7760 -0.8313 -0.0047
19163TIP3    H278905   1.628   6.493   2.608  0.1880  0.2258 -0.0803
19164TIP3   OH278906   6.755   2.365  13.004 -0.1892  1.3819 -0.4644
19164TIP3    H178907   6.679   2.342  12.951  1.3873  0.9907 -2.7027
19164TIP3    H278908   6.829   2.359  12.944  1.5885  2.1494  1.5108
19165TIP3   OH278909   1.321   2.062   5.260  0.3886  0.5410  0.4626
19165TIP3    H178910   1.402   2.030   5.298  1.7169  2.3788 -0.6424
19165TIP3    H278911   1.294   2.134   5.317 -0.4634 -0.0314  0.7998
19166TIP3   OH278912   3.729   1.372  12.836  0.4722 -0.8924 -0.6325
19166TIP3    H178913   3.746   1.450  12.783  0.5253 -0.7543 -0.4138
19166TIP3    H278914   3.673   1.403  12.907  1.4428 -0.7987  0.1185
19167TIP3   OH278915   3.209   2.153  15.093 -0.1165  0.2182  0.3123
19167TIP3    H178916   3.157   2.114  15.023 -1.3610  0.9777  0.8014
19167TIP3    H278917   3.199   2.247  15.082  0.6181  0.3645  0.8207
19168TIP3   OH278918   0.147   5.320  14.190 -0.3716 -0.3232  0.1798
19168TIP3    H178919   0.230   5.367  14.203 -0.6866  0.6630 -1.1341
19168TIP3    H278920   0.137   5.317  14.095 -1.0345 -1.9093  0.2863
19169TIP3   OH278921   5.631   5.700   3.222 -0.1528 -0.3045  0.6125
19169TIP3    H178922   5.608   5.618   3.178 -0.2938  0.9586 -1.8279
19169TIP3    H278923   5.550   5.751   3.223  0.1627  0.1991  1.2092
19170TIP3   OH278924   5.324   4.148   1.791  0.6633 -0.1764  0.0714
19170TIP3    H178925   5.283   4.092   1.724  0.0469 -0.8909  1.0172
19170TIP3    H278926   5.271   4.227   1.792  1.9514  0.7998 -1.7734
19171TIP3   OH278927   2.976   3.763  14.545 -0.2981  0.0351  0.0673
19171TIP3    H178928   2.931   3.772  14.461  0.2607 -0.7345 -0.3314
19171TIP3    H278929   2.971   3.849  14.585  0.8441  0.8648 -1.4755
19172TIP3   OH278930   6.350   6.329  15.023  0.0523 -0.0054  0.3577
19172TIP3    H178931   6.306   6.413  15.007  1.2013  0.8159  1.3202
19172TIP3    H278932   6.367   6.329  15.117  0.1961 -1.2650  0.3432
19173TIP3   OH278933   3.016   6.580  16.514  0.0541  0.2709  0.1563
19173TIP3    H178934   2.994   6.662  16.470  0.0604  0.7107  0.9576
19173TIP3    H278935   3.052   6.606  16.599 -1.6167 -0.5880  1.1847
19174TIP3   OH278936   5.643   3.890   1.072  0.4780 -0.3943  1.0092
19174TIP3    H178937   5.571   3.862   1.128  1.0270 -1.0352  1.4064
19174TIP3    H278938   5.600   3.929   0.995 -0.2857 -1.1573  1.0370
19175TIP3   OH278939   4.208   4.174   5.504 -0.1978  0.4437 -0.8415
19175TIP3    H178940   4.124   4.149   5.466 -0.3283 -0.9614  0.2966
19175TIP3    H278941   4.237   4.096   5.552  0.3062  1.8448  1.2854
19176TIP3   OH278942   4.477   5.539  15.943 -0.3111 -0.1424 -0.1927
19176TIP3    H178943   4.474   5.548  15.848 -0.1326  0.2423 -0.1637
19176TIP3    H278944   4.391   5.503  15.967 -0.5296  0.2069 -0.4533
19177TIP3   OH278945   3.111   0.517   3.919 -0.3043 -0.4620 -0.4595
19177TIP3    H178946   3.092   0.480   3.833 -0.1252  0.2199 -0.7957
19177TIP3    H278947   3.180   0.460   3.954 -1.1706 -1.4344 -0.2740
19178TIP3   OH278948   4.339   2.854   3.997 -0.0575  0.1505 -0.2533
19178TIP3    H178949   4.406   2.891   4.055  0.7795 -0.1932 -0.9909
19178TIP3    H278950   4.388   2.804   3.932 -1.0876 -1.0796 -0.1211
19179TIP3   OH278951   3.843   4.355   4.305 -0.1909  0.2595 -0.2608
19179TIP3    H178952   3.747   4.354   4.313 -0.1022  1.0735  1.5064
19179TIP3    H278953   3.864   4.448   4.298  0.5209  0.1518  0.3709
19180TIP3   OH278954   3.478   4.254   3.010  0.1013  0.8250  0.1995
19180TIP3    H178955   3.522   4.231   3.092 -0.5645 -0.2104  0.2878
19180TIP3    H278956   3.527   4.207   2.942  0.1573  1.0166  0.1094
19181TIP3   OH278957   2.607   1.534  15.374  0.5589 -0.3072 -0.4338
19181TIP3    H178958   2.562   1.589  15.310 -1.9297  0.1961  1.5733
19181TIP3    H278959   2.540   1.474  15.406  1.5598 -0.2926  1.9451
19182TIP3   OH278960   5.203   2.514   2.147  0.2854 -0.2518 -0.4701
19182TIP3    H178961   5.209   2.585   2.084 -1.4052 -0.4556 -0.9055
19182TIP3    H278962   5.200   2.435   2.093 -1.6224 -0.4032 -0.2054
19183TIP3   OH278963   3.448   4.774  11.349 -0.2072  0.0517  0.0883
19183TIP3    H178964   3.518   4.709  11.357 -0.4445 -0.1812  0.2996
19183TIP3    H278965   3.471   4.825  11.271  0.4030  0.2296  0.3812
19184TIP3   OH278966   6.247   1.401   6.352 -0.2607 -0.6460 -0.3529
19184TIP3    H178967   6.249   1.317   6.399  1.4796 -1.0647 -1.0789
19184TIP3    H278968   6.253   1.376   6.260  0.3423  0.2715 -0.5715
19185TIP3   OH278969   3.353   3.904   1.352 -0.0607 -0.0864 -0.1358
19185TIP3    H178970   3.275   3.892   1.298 -0.5181 -1.2407  0.7486
19185TIP3    H278971   3.328   3.871   1.438  1.4412 -0.6029  0.1291
19186TIP3   OH278972   5.961   1.208  11.038  0.3244  0.2210  0.9823
19186TIP3    H178973   5.916   1.254  10.967 -1.0985 -0.0584  1.6544
19186TIP3    H278974   6.044   1.255  11.048 -0.2584  1.4428  0.3825
19187TIP3   OH278975   1.913   3.921   0.483  0.0374  0.5367 -0.0664
19187TIP3    H178976   1.911   3.896   0.390  0.7781 -0.4842  0.1714
19187TIP3    H278977   1.884   4.012   0.484 -1.2551  0.1612 -1.1570
19188TIP3   OH278978   2.175   4.928  12.182 -0.1097 -0.0104  0.1871
19188TIP3    H178979   2.188   5.007  12.131  0.4834  0.8155  1.5710
19188TIP3    H278980   2.107   4.880  12.135  0.7389  0.4637 -1.6258
19189TIP3   OH278981   4.381   4.719  11.556  0.3065 -0.1367 -0.4486
19189TIP3    H178982   4.315   4.691  11.493  0.2251 -0.7325 -0.1056
19189TIP3    H278983   4.364   4.666  11.634  0.4692  0.5234  0.0390
19190TIP3   OH278984   3.505   1.667  15.457  0.4206  0.6147 -0.3360
19190TIP3    H178985   3.455   1.677  15.376  2.2277 -0.7016 -1.7164
19190TIP3    H278986   3.595   1.687  15.433  0.7992  1.8704  1.8096
19191TIP3   OH278987   2.731   0.001   3.682  0.1559  0.4293  0.1122
19191TIP3    H178988   2.706   0.062   3.752 -0.6928 -0.7221  0.8494
19191TIP3    H278989   2.648  -0.032   3.648  0.5787 -1.7157  1.0157
19192TIP3   OH278990   4.189   3.279  16.076 -0.0993  0.1356  0.1991
19192TIP3    H178991   4.253   3.244  16.014  0.6927  0.2178  0.9670
19192TIP3    H278992   4.195   3.223  16.153  0.4346  1.2873  1.0258
19193TIP3   OH278993   1.093   6.420   1.558  0.0374 -0.6366 -0.0471
19193TIP3    H178994   1.057   6.358   1.495  0.9660 -1.9251  0.6327
19193TIP3    H278995   1.033   6.417   1.632 -0.1380 -0.4158 -0.1806
19194TIP3   OH278996   1.828   3.046   5.309 -0.4538 -0.5060  0.2495
19194TIP3    H178997   1.890   3.017   5.376  1.1563 -3.6025 -2.2791
19194TIP3    H278998   1.742   3.029   5.347  0.3975 -2.3430  1.5208
19195TIP3   OH278999   3.412   6.764  12.334 -0.4865  0.0823  0.7025
19195TIP3    H179000   3.441   6.785  12.245  1.4515 -2.5548  0.6004
19195TIP3    H279001   3.326   6.725  12.322  0.9138 -2.9320 -0.4808
19196TIP3   OH279002   1.177   3.351   3.500 -0.1951  0.3653  0.7920
19196TIP3    H179003   1.187   3.289   3.428 -0.2406 -1.0222  1.9244
19196TIP3    H279004   1.222   3.430   3.471  0.6681 -0.5181 -0.3484
19197TIP3   OH279005   3.680   3.114  13.070  0.0779  0.9640  0.4630
19197TIP3    H179006   3.620   3.096  12.998  1.2436  0.1772 -0.3654
19197TIP3    H279007   3.739   3.038  13.072  0.1860  1.0412  2.1481
19198TIP3   OH279008   3.302   5.968  16.456 -0.8626 -0.3888  0.3009
19198TIP3    H179009   3.304   5.965  16.361 -2.4662 -0.4143  0.2562
19198TIP3    H279010   3.335   6.056  16.478  0.6744 -0.8081 -0.1971
19199TIP3   OH279011   0.829   2.203  14.606  0.1816 -0.4615  0.1358
19199TIP3    H179012   0.734   2.197  14.601  0.1758 -0.5948  0.3949
19199TIP3    H279013   0.851   2.280  14.553 -0.0961 -0.2433  0.3343
19200TIP3   OH279014   6.780   6.494  12.134 -0.7722 -0.0496  0.2399
19200TIP3    H179015   6.833   6.508  12.055 -1.1840  1.0836  0.1358
19200TIP3    H279016   6.841   6.455  12.197 -0.0662  0.3294 -0.1930
19201TIP3   OH279017   5.088   0.989  15.656 -0.1180 -0.1334 -0.4177
19201TIP3    H179018   5.161   0.963  15.712 -0.7835  0.8222  0.9640
19201TIP3    H279019   5.127   1.005  15.570  1.1505 -0.4284  0.0799
19202TIP3   OH279020   1.980   1.674   3.251 -0.0652 -0.2073  0.1178
19202TIP3    H179021   1.931   1.593   3.263  1.3158 -1.0068  0.4929
19202TIP3    H279022   2.014   1.695   3.338 -0.0017  0.5250 -0.0725
19203TIP3   OH279023   4.706   4.120   1.189 -0.5315 -0.3577 -0.4225
19203TIP3    H179024   4.718   4.129   1.284 -1.6290  0.3069 -0.3257
19203TIP3    H279025   4.702   4.026   1.174  1.3861 -0.5245 -0.0616
19204TIP3   OH279026   1.298   6.043   0.896 -0.0325 -0.4677  0.2518
19204TIP3    H179027   1.337   6.049   0.983  1.2299 -0.6969 -0.2778
19204TIP3    H279028   1.357   6.093   0.840 -1.1481  0.1707 -0.3800
19205TIP3   OH279029   5.387   3.735  14.350 -0.3768 -0.1176 -0.2444
19205TIP3    H179030   5.413   3.827  14.354  1.4696 -0.5975  0.1047
19205TIP3    H279031   5.394   3.704  14.441  0.4388 -0.9337 -0.5651
19206TIP3   OH279032   3.912   1.832   6.049 -0.4774  0.4579 -0.8558
19206TIP3    H179033   3.905   1.790   6.134  0.3389  1.2897 -0.3685
19206TIP3    H279034   3.991   1.794   6.009  0.3688  1.6208 -0.3377
19207TIP3   OH279035   1.232   4.839  14.580  0.4928  0.2564 -0.3149
19207TIP3    H179036   1.144   4.855  14.546  0.6158  0.0026 -0.7659
19207TIP3    H279037   1.220   4.768  14.643  0.4772 -0.3113 -0.9376
19208TIP3   OH279038   2.314   6.495   2.530  0.0225  0.0191  0.2341
19208TIP3    H179039   2.329   6.458   2.617 -2.9718  0.2006  0.9434
19208TIP3    H279040   2.366   6.440   2.472  1.4806 -0.6124  2.0272
19209TIP3   OH279041   0.072   0.937  15.394 -0.3788  0.7864  0.2671
19209TIP3    H179042   0.033   1.007  15.446  0.1875  1.8256 -0.6545
19209TIP3    H279043   0.110   0.982  15.318 -0.9914 -0.6470 -0.9379
19210TIP3   OH279044   0.246   5.640   2.113 -0.1530 -0.6656 -0.1607
19210TIP3    H179045   0.246   5.721   2.062 -0.2969  0.3904  1.4170
19210TIP3    H279046   0.299   5.661   2.190 -2.1120 -1.2532  1.4428
19211TIP3   OH279047   5.700   0.423  15.414 -0.5626  0.0936 -1.1706
19211TIP3    H179048   5.747   0.402  15.333  0.1868 -1.5695 -0.3524
19211TIP3    H279049   5.732   0.509  15.439  0.8033 -0.2786 -1.5320
19212TIP3   OH279050   4.239   0.177  14.431 -1.1640  0.2235 -0.4648
19212TIP3    H179051   4.188   0.101  14.405 -0.1271 -0.5681 -0.2610
19212TIP3    H279052   4.318   0.173  14.376 -0.5576  0.4720  0.3642
19213TIP3   OH279053   4.611   1.813  13.030 -0.5686  0.5258 -0.2157
19213TIP3    H179054   4.568   1.898  13.043  0.5275  1.0134  0.3251
19213TIP3    H279055   4.675   1.828  12.961  0.1994  0.3695  0.4380
19214TIP3   OH279056   6.563   1.361   0.546 -0.0641 -0.0420 -0.7091
19214TIP3    H179057   6.492   1.388   0.605  0.1236 -0.2207 -0.3967
19214TIP3    H279058   6.609   1.442   0.526 -0.0301 -0.0049 -0.4794
19215TIP3   OH279059   2.889   6.000   3.327 -0.6565  0.2593  0.4801
19215TIP3    H179060   2.940   6.081   3.334  0.4470 -0.4856  1.3864
19215TIP3    H279061   2.820   6.021   3.264  0.0716  1.6658  0.1032
19216TIP3   OH279062   4.666   0.073  16.556  0.9175  0.0863 -0.1561
19216TIP3    H179063   4.646  -0.021  16.554 -0.4861  0.3137  1.0915
19216TIP3    H279064   4.698   0.089  16.645  1.8565  0.6629 -0.5930
19217TIP3   OH279065   5.555   0.809   0.555 -0.2843 -0.2868 -0.5660
19217TIP3    H179066   5.464   0.833   0.569 -0.3487 -0.9986  0.3188
19217TIP3    H279067   5.552   0.717   0.529  0.2541 -0.7966  1.0448
19218TIP3   OH279068   2.439   6.638   5.479 -0.1528  0.7604  0.2610
19218TIP3    H179069   2.393   6.558   5.454 -1.3228  1.4313  0.1943
19218TIP3    H279070   2.524   6.631   5.437  0.2611 -1.0277  1.2814
19219TIP3   OH279071   0.208   5.103   0.794 -0.1687  0.0045 -0.0988
19219TIP3    H179072   0.180   5.024   0.840 -0.6009 -0.3879 -1.0193
19219TIP3    H279073   0.141   5.117   0.727 -0.1682  1.2297  0.1417
19220TIP3   OH279074   3.018   1.392  13.229  0.5146  0.1612 -0.3460
19220TIP3    H179075   2.969   1.314  13.254 -0.0419  0.0156 -1.7816
19220TIP3    H279076   2.962   1.465  13.254  0.7102  0.0860  0.3275
19221TIP3   OH279077   2.121   3.934  14.258 -0.2892 -0.5613 -0.1843
19221TIP3    H179078   2.171   3.948  14.339 -0.2546  2.4892 -0.6271
19221TIP3    H279079   2.171   3.866  14.211  1.2501 -0.3811  1.1013
19222TIP3   OH279080   5.896   1.630   3.424 -0.5095 -0.4547 -0.0213
19222TIP3    H179081   5.941   1.703   3.466 -1.1020 -1.0821  1.8398
19222TIP3    H279082   5.887   1.656   3.332  1.1839  0.8443  0.1371
19223TIP3   OH279083   3.938   2.782  10.848 -0.0969  0.1441  0.5376
19223TIP3    H179084   3.968   2.814  10.933  0.1579  0.1133  0.4591
19223TIP3    H279085   3.977   2.841  10.784 -1.3900  1.0157  0.5058
19224TIP3   OH279086   5.920   0.512  14.364  0.0988 -0.2643 -0.0145
19224TIP3    H179087   5.961   0.471  14.287  0.2838 -0.0316 -0.0449
19224TIP3    H279088   5.954   0.462  14.439  0.6552  0.0925 -0.0201
19225TIP3   OH279089   2.990   6.687   1.269  0.1354  0.7418  0.0260
19225TIP3    H179090   3.030   6.642   1.194 -0.7536  0.9012 -0.5546
19225TIP3    H279091   2.983   6.778   1.240 -0.8762  0.6678  0.0266
19226TIP3   OH279092   1.571   1.563   1.182 -0.1572 -0.3057 -0.3655
19226TIP3    H179093   1.632   1.570   1.109  0.5817  0.3977  0.3011
19226TIP3    H279094   1.527   1.648   1.184 -1.0588 -0.7463 -0.7328
19227TIP3   OH279095   0.937   4.171   2.098  0.1041  0.3728 -0.2286
19227TIP3    H179096   0.986   4.252   2.109  2.3534 -1.0342  0.9626
19227TIP3    H279097   0.977   4.128   2.023  0.7829 -0.8357  0.7932
19228TIP3   OH279098   5.690   4.079  11.114  1.1152 -0.0681 -0.4518
19228TIP3    H179099   5.628   4.036  11.173  3.0660  0.3228  2.0180
19228TIP3    H279100   5.640   4.092  11.033 -1.1157 -2.2833  0.4326
19229TIP3   OH279101   5.751   1.355   1.954 -0.2564  0.2242 -0.3409
19229TIP3    H179102   5.819   1.318   1.897  0.5891 -0.9702  1.3490
19229TIP3    H279103   5.669   1.331   1.911  0.3208  1.6499 -2.4069
19230TIP3   OH279104   6.075   0.648  16.121  0.0589  0.0096 -0.4866
19230TIP3    H179105   5.998   0.591  16.111 -0.2910  0.7098 -1.9916
19230TIP3    H279106   6.120   0.613  16.198 -2.5794  0.5195  1.4574
19231TIP3   OH279107   5.281   5.295   3.963 -0.3559  0.2418  0.0343
19231TIP3    H179108   5.209   5.256   4.012  1.5019 -1.3771  1.6632
19231TIP3    H279109   5.298   5.378   4.008 -0.0244 -0.2602  0.8685
19232TIP3   OH279110   4.532   6.686   1.884  0.3227  0.0421  0.0015
19232TIP3    H179111   4.554   6.778   1.899 -0.3368  0.2238 -0.1151
19232TIP3    H279112   4.442   6.677   1.916 -0.5043  0.0201 -2.1301
19233TIP3   OH279113   2.107   5.406  14.954 -0.0954 -0.2281  0.1889
19233TIP3    H179114   2.011   5.398  14.957 -0.1157  0.1429  0.7167
19233TIP3    H279115   2.131   5.429  15.044  0.4129  0.5230 -0.1307
19234TIP3   OH279116   1.159   5.996  11.840 -0.2568 -0.3121 -1.0268
19234TIP3    H179117   1.221   5.925  11.855  0.4605  0.2164 -1.3769
19234TIP3    H279118   1.106   6.000  11.919  1.1469  0.1815 -0.0760
19235TIP3   OH279119   2.589   6.383   5.651 -0.8671  0.0084 -0.1345
19235TIP3    H179120   2.575   6.474   5.678 -0.8877  0.0847 -0.4053
19235TIP3    H279121   2.594   6.335   5.734 -0.3224  0.3303  0.0256
19236TIP3   OH279122   1.804   2.379   1.789 -0.1400  0.1324  0.2323
19236TIP3    H179123   1.849   2.310   1.839 -2.0122  0.3080  2.2590
19236TIP3    H279124   1.764   2.332   1.716  0.5396 -0.5257  0.2608
19237TIP3   OH279125   3.139   5.293   4.286 -0.0987 -0.5658  0.5457
19237TIP3    H179126   3.053   5.307   4.248  0.8700  0.8695 -1.2655
19237TIP3    H279127   3.181   5.229   4.229  0.0576 -1.2711  1.4218
19238TIP3   OH279128   2.627   4.669  11.039  0.0173  0.7122  0.4306
19238TIP3    H179129   2.593   4.755  11.063 -2.1093  0.0026  0.1177
19238TIP3    H279130   2.708   4.689  10.991 -1.3720  2.6900 -1.3330
19239TIP3   OH279131   2.896   4.250  12.681 -0.4614 -0.0154 -0.0992
19239TIP3    H179132   2.888   4.343  12.664  1.0100  0.1169 -0.2202
19239TIP3    H279133   2.806   4.219  12.691 -1.0497  1.1354 -1.4958
19240TIP3   OH279134   4.075   3.157  10.858 -0.1785 -0.1408  0.0952
19240TIP3    H179135   4.118   3.230  10.814  0.7743  0.4105  1.8379
19240TIP3    H279136   4.127   3.081  10.834 -0.3600 -0.0460 -0.6320
19241TIP3   OH279137   1.250   3.370   1.115 -0.2980  0.2455  0.3274
19241TIP3    H179138   1.172   3.325   1.149 -0.0214 -1.6748 -1.3577
19241TIP3    H279139   1.313   3.299   1.099  0.5064  1.3199 -1.6097
19242TIP3   OH279140   3.818   6.575   1.353  0.6523 -0.2444  0.0844
19242TIP3    H179141   3.728   6.541   1.351  1.2591 -1.9315 -0.9558
19242TIP3    H279142   3.849   6.555   1.441 -0.0792  0.6823  0.5761
19243TIP3   OH279143   6.646   4.814  10.497 -0.0370 -0.2545  0.2607
19243TIP3    H179144   6.614   4.904  10.490 -2.1747 -0.7372  2.3101
19243TIP3    H279145   6.580   4.762  10.452 -0.0021 -0.9555  0.9942
19244TIP3   OH279146   1.725   4.831  13.590 -0.1561  0.4652 -0.0205
19244TIP3    H179147   1.642   4.875  13.575  0.5814  1.7980 -0.2806
19244TIP3    H279148   1.705   4.763  13.654 -0.9385  2.5001  2.0038
19245TIP3   OH279149   0.394   6.485   1.184 -0.0358  0.6365 -0.0302
19245TIP3    H179150   0.476   6.444   1.210  0.1088  1.3056  0.5867
19245TIP3    H279151   0.407   6.508   1.092  1.1547  2.3608  0.5337
19246TIP3   OH279152   2.434   4.641   4.806  0.3587  0.4750  0.4904
19246TIP3    H179153   2.514   4.693   4.808  1.2700 -0.8961  1.5688
19246TIP3    H279154   2.438   4.587   4.885 -2.6380  1.7848  1.6898
19247TIP3   OH279155   3.850   1.753  12.980 -0.3091 -1.0646 -0.2512
19247TIP3    H179156   3.819   1.673  12.938 -3.3246 -0.7575  1.1114
19247TIP3    H279157   3.906   1.723  13.051 -0.6286 -1.9437 -0.3622
19248TIP3   OH279158   4.307   1.952  11.173  0.3506  0.5511 -0.1315
19248TIP3    H179159   4.350   1.876  11.212  0.9814  0.7858 -0.3690
19248TIP3    H279160   4.361   1.974  11.097  0.9213  2.0263  0.6677
19249TIP3   OH279161   4.907   5.913  10.556 -0.1377  0.0842  0.1287
19249TIP3    H179162   4.934   5.978  10.621  0.8543  0.6072 -0.7865
19249TIP3    H279163   4.969   5.840  10.568 -0.9995 -0.5434  0.8847
19250TIP3   OH279164   0.317   5.175   0.071  0.1922  0.1141 -0.2243
19250TIP3    H179165   0.357   5.227   0.001 -0.5236 -0.4046 -1.0445
19250TIP3    H279166   0.269   5.106   0.025 -0.5180 -0.0805  0.7761
19251TIP3   OH279167   4.057   4.343  11.037 -0.6271  0.8973  0.5585
19251TIP3    H179168   4.020   4.284  10.972  0.6973 -0.3442  0.8805
19251TIP3    H279169   4.147   4.358  11.009 -0.6287  1.9716  1.0421
19252TIP3   OH279170   5.914   0.605  13.671 -0.0394 -0.3926  0.1323
19252TIP3    H179171   5.942   0.547  13.743  1.5384 -1.2676 -1.1331
19252TIP3    H279172   5.879   0.546  13.605 -1.9880  0.4507  0.3230
19253TIP3   OH279173   1.286   1.009  15.450 -0.3152 -0.0864  0.3544
19253TIP3    H179174   1.343   0.933  15.463  1.0284  0.4851 -1.7408
19253TIP3    H279175   1.197   0.972  15.452  0.3095 -1.8506 -1.1285
19254TIP3   OH279176   4.742   4.110  15.358 -0.4894  0.2124 -0.2953
19254TIP3    H179177   4.812   4.048  15.337 -0.0724  0.0776  1.3600
19254TIP3    H279178   4.746   4.175  15.288  1.1518  0.0724 -0.3725
19255TIP3   OH279179   6.165   1.593   5.576  0.4563  0.0731  0.2340
19255TIP3    H179180   6.253   1.611   5.609  0.7385 -1.9195  0.7619
19255TIP3    H279181   6.108   1.653   5.624  1.1438 -1.1139  2.6954
19256TIP3   OH279182   5.519   3.086  16.121 -0.0015  0.4135  0.2380
19256TIP3    H179183   5.529   3.050  16.033  0.1359  0.8167  0.0890
19256TIP3    H279184   5.601   3.065  16.165 -0.6190 -1.0698  0.7426
19257TIP3   OH279185   1.903   4.741   0.051  0.1694 -0.0860 -0.0752
19257TIP3    H179186   1.832   4.799   0.080 -1.2784 -1.1741 -1.2992
19257TIP3    H279187   1.902   4.669   0.114  0.3203 -0.0024  0.0225
19258TIP3   OH279188   2.464   0.840  10.847  0.0625  1.1583 -0.4768
19258TIP3    H179189   2.418   0.878  10.772 -0.2838  0.6126 -0.5485
19258TIP3    H279190   2.411   0.764  10.871  2.1820 -1.0249 -2.1367
19259TIP3   OH279191   3.397   0.045  12.055 -0.2830 -0.0488  0.2729
19259TIP3    H179192   3.377   0.050  11.962 -1.5558  1.7298  0.5792
19259TIP3    H279193   3.312   0.051  12.098  0.1580 -2.0493  1.5808
19260TIP3   OH279194   1.315   3.957  13.472 -0.5188 -0.0938 -0.1730
19260TIP3    H179195   1.378   3.973  13.402  0.0471  4.2776  1.0822
19260TIP3    H279196   1.234   3.996  13.441 -1.9481 -3.0067 -0.4877
19261TIP3   OH279197   4.223   3.554  14.263 -0.0330 -0.0142 -0.1726
19261TIP3    H179198   4.221   3.486  14.330  1.1719  0.6981  0.6276
19261TIP3    H279199   4.150   3.533  14.205 -1.0603 -0.7149  1.3118
19262TIP3   OH279200   5.999   2.605   4.875 -0.4817 -0.2299  0.1460
19262TIP3    H179201   5.939   2.575   4.806  0.2180 -0.5172 -0.3508
19262TIP3    H279202   6.057   2.531   4.890 -1.5223 -0.7064  2.1162
19263TIP3   OH279203   0.794   1.476   0.087  0.0836  0.0599  0.1232
19263TIP3    H179204   0.707   1.512   0.103  0.2341 -0.0945  1.4352
19263TIP3    H279205   0.809   1.488  -0.006 -0.7858  1.3475  0.1303
19264TIP3   OH279206   6.099   1.205  14.099 -0.5088  0.1946 -0.3050
19264TIP3    H179207   6.038   1.263  14.145  0.0497  0.2793  0.3472
19264TIP3    H279208   6.183   1.250  14.106  0.1895 -1.2434  1.2902
19265TIP3   OH279209   6.458   2.764  14.412  0.1621  0.1676 -0.2540
19265TIP3    H179210   6.552   2.773  14.402  0.2268 -1.8255 -2.3839
19265TIP3    H279211   6.421   2.811  14.338 -0.2344 -2.1013 -1.6130
19266TIP3   OH279212   3.643   6.000  16.241  0.6550  0.4614 -0.4206
19266TIP3    H179213   3.587   6.009  16.318 -0.4314  1.7698 -1.3246
19266TIP3    H279214   3.723   6.046  16.264  1.2738 -1.1111  0.7444
19267TIP3   OH279215   3.891   0.030   4.296  0.3480 -0.5335 -0.1457
19267TIP3    H179216   3.866   0.115   4.332 -1.3281  0.4302 -3.2709
19267TIP3    H279217   3.809  -0.018   4.287  1.1755 -2.2342  0.7813
19268TIP3   OH279218   0.456   2.864   2.596 -0.8992  0.0651  0.2135
19268TIP3    H179219   0.401   2.822   2.530 -1.6184 -0.4982  1.1534
19268TIP3    H279220   0.438   2.958   2.585 -3.2317 -0.1630  1.4535
19269TIP3   OH279221   5.441   5.920  11.366 -0.0055  0.6088  1.1969
19269TIP3    H179222   5.365   5.936  11.422 -0.6067  0.9235  0.3161
19269TIP3    H279223   5.429   5.831  11.335 -0.4357  0.9274  0.4350
19270TIP3   OH279224   3.872   0.410   3.692 -0.5807 -0.3119 -0.1767
19270TIP3    H179225   3.916   0.493   3.713 -0.2332 -0.9745  1.9863
19270TIP3    H279226   3.787   0.417   3.735 -0.6089 -1.0035 -0.1154
19271TIP3   OH279227   1.011   5.451   0.535 -0.0810  0.0833  0.0128
19271TIP3    H179228   0.972   5.539   0.529  0.0222  0.1855  0.8106
19271TIP3    H279229   1.024   5.437   0.628 -1.1906 -1.2679 -0.0055
19272TIP3   OH279230   3.335   1.237  11.323  0.4507  0.0066  0.1373
19272TIP3    H179231   3.405   1.200  11.269  0.3395  1.7062 -1.2649
19272TIP3    H279232   3.254   1.203  11.284  0.4222 -2.1335  1.8903
19273TIP3   OH279233   4.493   4.162  12.634  0.1542  0.3027  0.0453
19273TIP3    H179234   4.564   4.141  12.695  0.0712 -0.7048 -0.1838
19273TIP3    H279235   4.449   4.078  12.620 -1.0322  0.8901  0.1201
19274TIP3   OH279236   0.095   3.187  11.303  0.1964  1.4585 -0.1125
19274TIP3    H179237   0.026   3.229  11.354 -0.8403  0.0186 -0.2732
19274TIP3    H279238   0.073   3.206  11.212 -1.0033 -0.4026 -0.2602
19275TIP3   OH279239   0.153   0.436   4.739  0.5112  0.7216 -0.0482
19275TIP3    H179240   0.189   0.468   4.822  1.2724  0.8644 -0.4261
19275TIP3    H279241   0.229   0.431   4.680  0.1263 -0.2438 -0.4725
19276TIP3   OH279242   6.363   1.378  14.117  0.3133  0.1512 -0.2862
19276TIP3    H179243   6.405   1.332  14.190 -1.3287 -1.5888 -0.3589
19276TIP3    H279244   6.356   1.468  14.146  4.6797  0.7807 -0.5815
19277TIP3   OH279245   3.289   0.102  15.716 -0.2316 -0.3920  0.3342
19277TIP3    H179246   3.325   0.068  15.634 -1.6105  0.6027 -0.7181
19277TIP3    H279247   3.326   0.044  15.783  0.2110 -1.8071 -1.0530
19278TIP3   OH279248   0.479   1.890   5.492  0.2736 -0.0008  0.1125
19278TIP3    H179249   0.393   1.889   5.534  0.0580  2.3238 -0.1458
19278TIP3    H279250   0.535   1.937   5.553  0.7183  0.6886 -0.7978
19279TIP3   OH279251   6.415   2.956   2.897  0.1968 -0.0023  0.0162
19279TIP3    H179252   6.326   2.991   2.901  0.6617  1.1605  1.5675
19279TIP3    H279253   6.457   3.005   2.825 -0.9231 -2.0251 -2.1407
19280TIP3   OH279254   1.411   3.664   5.139  0.0145 -0.1456  0.0147
19280TIP3    H179255   1.417   3.570   5.124 -0.1555 -0.2565  0.6407
19280TIP3    H279256   1.319   3.679   5.161 -0.1879  0.3136 -1.0488
19281TIP3   OH279257   1.611   1.924  16.936  0.2516  0.4244 -0.5036
19281TIP3    H179258   1.580   1.868  16.865  2.2780 -0.1911 -0.9630
19281TIP3    H279259   1.680   1.873  16.979 -1.9092  0.0795  2.9801
19282TIP3   OH279260   4.250   1.495   3.029 -0.2389  0.0349 -0.3678
19282TIP3    H179261   4.235   1.535   3.115  0.6930 -1.5966  0.5992
19282TIP3    H279262   4.264   1.402   3.047  0.7930 -0.2194 -2.2025
19283TIP3   OH279263   4.365   3.058   4.376  0.6757 -0.2669 -0.4915
19283TIP3    H179264   4.290   3.038   4.433  0.6210  0.6807 -0.2287
19283TIP3    H279265   4.440   3.020   4.422  0.5014 -0.3540 -0.2726
19284TIP3   OH279266   2.864   1.514   5.533  0.0308  0.3222 -0.0752
19284TIP3    H179267   2.836   1.422   5.522 -0.3543 -0.1800  3.7079
19284TIP3    H279268   2.872   1.525   5.627 -2.2128  4.8721 -0.1342
19285TIP3   OH279269   0.986   3.724  12.392 -0.3496  0.5277  0.0703
19285TIP3    H179270   1.065   3.695  12.437 -1.0232 -1.3790  0.1524
19285TIP3    H279271   0.939   3.642  12.373 -0.1065  1.1443 -4.0906
19286TIP3   OH279272   3.405   0.795  15.731  0.1149  0.0173 -0.5527
19286TIP3    H179273   3.352   0.840  15.665  2.3360  1.4873 -1.5016
19286TIP3    H279274   3.475   0.754  15.680 -0.1340 -1.9522  0.6219
19287TIP3   OH279275   2.646   6.208   1.438  0.1620  0.0282 -0.0870
19287TIP3    H179276   2.614   6.139   1.379  2.2154 -1.3859  0.3593
19287TIP3    H279277   2.568   6.232   1.489 -0.7921 -1.4458 -0.7524
19288TIP3   OH279278   3.008   3.563  15.848  0.2313  0.2460  0.0666
19288TIP3    H179279   3.095   3.601  15.861 -0.0443  0.4361  1.4845
19288TIP3    H279280   2.986   3.586  15.757  1.4701  0.5627 -0.1803
19289TIP3   OH279281   1.541   0.605  16.780  0.1070 -0.2419 -0.3815
19289TIP3    H179282   1.544   0.700  16.781 -0.0286 -0.2247 -1.0569
19289TIP3    H279283   1.455   0.584  16.743 -0.0498 -0.6261  0.1935
19290TIP3   OH279284   0.901   3.383  10.826 -0.3329  0.0009 -0.2501
19290TIP3    H179285   0.877   3.429  10.906  2.2239 -0.7715  1.0576
19290TIP3    H279286   0.872   3.293  10.840 -1.5838  0.2447 -1.0586
19291TIP3   OH279287   6.324   0.460  12.249  0.3326 -0.7776 -0.4304
19291TIP3    H179288   6.231   0.441  12.262 -0.0779  0.6768 -1.0519
19291TIP3    H279289   6.330   0.555  12.253  1.3348 -0.6327 -3.1371
19292TIP3   OH279290   0.446   0.789  16.175 -0.5685  0.1270  0.4982
19292TIP3    H179291   0.453   0.882  16.155 -0.4255  0.1191  0.5131
19292TIP3    H279292   0.482   0.780  16.263 -2.5468  0.3899  1.3984
19293TIP3   OH279293   4.230   1.568  15.302 -0.4865  0.6263  0.2523
19293TIP3    H179294   4.271   1.513  15.369  1.5060  1.2163 -0.4165
19293TIP3    H279295   4.251   1.524  15.219 -2.4289  0.2175 -0.0740
19294TIP3   OH279296   5.991   5.153  11.268  0.4299  0.4001 -0.8237
19294TIP3    H179297   5.910   5.113  11.236 -0.1509  1.5104 -0.8109
19294TIP3    H279298   6.048   5.156  11.191  0.0642  0.5401 -1.0951
19295TIP3   OH279299   4.486   2.119  13.858  0.5692 -0.5576  0.0585
19295TIP3    H179300   4.403   2.151  13.822 -0.2310  1.5719  3.3456
19295TIP3    H279301   4.550   2.184  13.830  0.3368 -0.0288  0.7221
19296TIP3   OH279302   6.156   5.472  12.590  0.3976 -0.2017  0.7388
19296TIP3    H179303   6.214   5.526  12.645 -0.1983 -0.3265  1.5129
19296TIP3    H279304   6.213   5.439  12.521  0.6890  1.8212 -0.0689
19297TIP3   OH279305   5.516   4.611  16.601  0.4726  0.1062 -0.3909
19297TIP3    H179306   5.496   4.597  16.694  0.7218  0.0241 -0.3480
19297TIP3    H279307   5.435   4.589  16.555  0.5508 -0.4829 -0.2442
19298TIP3   OH279308   4.753   5.138   5.107 -0.2240  0.3571  0.0307
19298TIP3    H179309   4.732   5.058   5.155  0.5856 -0.0658 -0.2900
19298TIP3    H279310   4.784   5.199   5.175 -2.7294  1.1358  0.5663
19299TIP3   OH279311   4.568   6.544   1.663  0.4434  0.1817  0.0147
19299TIP3    H179312   4.643   6.594   1.632 -0.2888  0.8154 -0.7915
19299TIP3    H279313   4.538   6.592   1.740  0.6503  0.1177  0.1372
19300TIP3   OH279314   5.444   5.800  12.568 -0.1930 -0.0316 -0.2072
19300TIP3    H179315   5.441   5.721  12.514 -0.1453 -0.2433  0.0987
19300TIP3    H279316   5.530   5.838  12.549 -0.0555 -0.2654 -0.0560
19301TIP3   OH279317   3.168   2.800   2.792 -0.3690  1.1453 -0.2933
19301TIP3    H179318   3.224   2.859   2.842  1.0503 -0.8770  0.6709
19301TIP3    H279319   3.195   2.812   2.701  1.2089  0.7052  0.0876
19302TIP3   OH279320   4.138   6.426   1.998  0.2122 -0.0152  0.0333
19302TIP3    H179321   4.087   6.507   1.986 -1.3132 -1.0161 -0.6295
19302TIP3    H279322   4.127   6.405   2.090  1.3627  0.9692  0.4276
19303TIP3   OH279323   2.497   6.626   3.247 -0.6653  0.4105  0.3832
19303TIP3    H179324   2.425   6.583   3.293  0.1734  0.8910  2.2421
19303TIP3    H279325   2.477   6.719   3.254 -1.3659  0.4757 -1.7438
19304TIP3   OH279326   4.681   3.956   2.828  0.5908  0.4019  0.1557
19304TIP3    H179327   4.659   3.962   2.735 -1.8879 -0.8963  0.5638
19304TIP3    H279328   4.614   4.008   2.872  0.4431 -0.6890  1.2933
19305TIP3   OH279329   1.942   5.219   0.874 -0.0780 -0.3155 -0.0280
19305TIP3    H179330   1.936   5.189   0.964 -0.9863  0.6165  0.2364
19305TIP3    H279331   1.852   5.240   0.849  0.3933  1.2241 -0.5177
19306TIP3   OH279332   5.157   6.259   2.983 -0.3701 -0.3468 -0.1098
19306TIP3    H179333   5.067   6.267   3.012 -0.3959  1.5557 -0.5690
19306TIP3    H279334   5.167   6.327   2.917  1.9399  0.8666  1.3510
19307TIP3   OH279335   4.784   1.554  16.079  0.1703 -0.3679  0.1836
19307TIP3    H179336   4.731   1.633  16.092  1.1795  0.6372 -1.3868
19307TIP3    H279337   4.735   1.503  16.015 -0.3420 -0.8941  0.9829
19308TIP3   OH279338   2.924   6.202   0.428 -0.3603  0.0438 -0.1051
19308TIP3    H179339   2.973   6.122   0.409  0.8767  0.3794  1.4342
19308TIP3    H279340   2.974   6.271   0.384 -0.6570  0.1353 -0.3008
19309TIP3   OH279341   4.371   4.415   4.582 -0.4455  0.0151  0.0409
19309TIP3    H179342   4.279   4.442   4.578 -0.6253 -0.4254  1.0201
19309TIP3    H279343   4.373   4.344   4.645  0.4183 -0.6651 -0.7136
19310TIP3   OH279344   3.927   6.468  14.181  0.2605  0.0367  0.0011
19310TIP3    H179345   3.853   6.528  14.170  1.1075  0.7390 -2.5214
19310TIP3    H279346   3.999   6.524  14.210 -0.0011 -0.5733  2.0109
19311TIP3   OH279347   1.599   1.180  12.571 -0.3916  0.4924  0.7450
19311TIP3    H179348   1.649   1.262  12.574  3.1020 -1.3186 -1.3029
19311TIP3    H279349   1.529   1.196  12.508  1.7526  1.2993 -1.6003
19312TIP3   OH279350   3.192   5.368  11.089 -0.1845  0.0226  0.5323
19312TIP3    H179351   3.239   5.409  11.161  2.2980  0.0712 -1.0126
19312TIP3    H279352   3.234   5.402  11.010 -0.8705 -2.2148 -0.8900
19313TIP3   OH279353   3.951   2.469  15.229  0.1042  0.4654  0.1017
19313TIP3    H179354   4.041   2.440  15.219  0.2960  0.6372  1.2135
19313TIP3    H279355   3.902   2.420  15.163  0.9910  0.3009 -0.4449
19314TIP3   OH279356   1.163   0.155   1.637 -0.1995  0.0211 -0.0484
19314TIP3    H179357   1.072   0.163   1.667  0.3849  3.1638  1.1722
19314TIP3    H279358   1.177   0.233   1.583  2.1070  0.2543  0.7899
19315TIP3   OH279359   0.118   5.375   2.972 -0.0626 -0.5867 -0.5405
19315TIP3    H179360   0.158   5.462   2.965 -1.0651 -0.1665 -1.4091
19315TIP3    H279361   0.093   5.353   2.882 -4.5314  0.5739  0.1766
19316TIP3   OH279362   5.329   5.030  13.139 -0.4014  0.3553 -0.0653
19316TIP3    H179363   5.271   5.090  13.187 -1.2100  0.1398 -0.7571
19316TIP3    H279364   5.384   5.087  13.086 -2.4519  0.5116 -2.2046
19317TIP3   OH279365   1.171   5.667  13.709  0.3509 -0.2157 -0.5357
19317TIP3    H179366   1.174   5.636  13.618 -0.6555  0.2535 -0.7517
19317TIP3    H279367   1.078   5.686  13.724  0.2765 -1.5743  1.0436
19318TIP3   OH279368   6.753   2.245   4.000  0.0781 -0.1772 -0.3279
19318TIP3    H179369   6.731   2.223   4.090  0.5929  0.3285 -0.0707
19318TIP3    H279370   6.803   2.170   3.969  0.3339 -0.1354 -0.0236
19319TIP3   OH279371   6.151   2.542   1.690 -0.2692 -0.1701 -0.1948
19319TIP3    H179372   6.068   2.528   1.643 -1.0475  2.4682  0.2103
19319TIP3    H279373   6.125   2.587   1.770  1.4114 -1.1713  0.9683
19320TIP3   OH279374   1.758   2.475   2.053 -0.0416 -0.1090  0.1640
19320TIP3    H179375   1.817   2.548   2.068 -1.5387  1.3868 -0.9026
19320TIP3    H279376   1.782   2.441   1.966  0.6475 -0.9252  0.6534
19321TIP3   OH279377   5.502   4.229   4.297  0.1924  0.0397  0.2666
19321TIP3    H179378   5.452   4.296   4.343  0.3129  1.7848 -1.9918
19321TIP3    H279379   5.583   4.274   4.270  0.4280 -1.0880 -1.0104
19322TIP3   OH279380   6.134   2.087  14.767  0.3557  0.3078  0.3751
19322TIP3    H179381   6.145   2.021  14.698  1.0998 -0.1162  0.8945
19322TIP3    H279382   6.058   2.057  14.817 -0.5776  0.9391 -0.6011
19323TIP3   OH279383   6.062   4.150   2.579  0.1655 -0.0849  0.0836
19323TIP3    H179384   6.107   4.188   2.504 -1.1049 -1.0308 -1.2423
19323TIP3    H279385   5.995   4.093   2.540 -0.4221 -0.7650  1.9461
19324TIP3   OH279386   5.115   0.674  13.878 -0.1638  0.1564 -0.0821
19324TIP3    H179387   5.137   0.589  13.838 -0.9104 -1.5272  2.8037
19324TIP3    H279388   5.039   0.704  13.828 -1.2745 -2.0096  0.1568
19325TIP3   OH279389   3.286   5.058   2.748  0.8228  0.0572 -0.1541
19325TIP3    H179390   3.205   5.069   2.700  0.5082  0.2182  0.4021
19325TIP3    H279391   3.339   5.001   2.693  1.3015  1.8629 -1.6560
19326TIP3   OH279392   1.634   6.287   2.386  0.2187 -0.7718  0.3892
19326TIP3    H179393   1.693   6.336   2.328  0.6896  0.6214  1.9532
19326TIP3    H279394   1.563   6.258   2.329  2.6076 -3.0338 -1.7102
19327TIP3   OH279395   0.949   3.910  11.619  0.1850 -0.0817  0.0165
19327TIP3    H179396   0.910   3.918  11.707  1.5326  1.4008  0.5349
19327TIP3    H279397   1.014   3.981  11.616 -0.2287  0.2662 -2.4006
19328TIP3   OH279398   3.034   1.390  15.472 -0.0461  0.6142 -0.1683
19328TIP3    H179399   2.950   1.410  15.512  0.3072  1.0354  0.3769
19328TIP3    H279400   3.094   1.376  15.545 -0.3154 -2.8650 -0.4697
19329TIP3   OH279401   2.738   4.627  16.017 -0.3618  0.3013 -0.2135
19329TIP3    H179402   2.786   4.703  16.049 -0.9719  0.6364 -0.0668
19329TIP3    H279403   2.766   4.555  16.073  0.4871  0.3413 -0.5832
19330TIP3   OH279404   3.793   0.647  15.713  0.2958 -0.2682 -0.0635
19330TIP3    H179405   3.812   0.734  15.677 -0.2607  0.5867  1.6299
19330TIP3    H279406   3.760   0.664  15.801 -0.9564 -2.1453 -0.1272
19331TIP3   OH279407   3.482   3.640   3.000  0.4777  0.0021 -0.2630
19331TIP3    H179408   3.390   3.646   2.977 -0.7363 -0.1125  3.7776
19331TIP3    H279409   3.505   3.728   3.031  1.6022 -0.1140 -0.7097
19332TIP3   OH279410   3.706   0.666  11.116  0.0369 -0.2591  1.0613
19332TIP3    H179411   3.796   0.667  11.084 -0.5502 -0.6244 -0.6857
19332TIP3    H279412   3.685   0.574  11.128 -0.1771 -0.1832  1.2921
19333TIP3   OH279413   3.465   6.726   5.792 -0.7751  0.1228 -0.0273
19333TIP3    H179414   3.441   6.751   5.882 -2.0667 -0.2337 -0.2581
19333TIP3    H279415   3.467   6.631   5.793 -1.3476  0.1057 -0.5188
19334TIP3   OH279416   5.726   2.418   4.007 -0.2482  0.2045  0.4607
19334TIP3    H179417   5.644   2.463   3.986 -0.2291  1.5705  3.0144
19334TIP3    H279418   5.750   2.449   4.094  1.9417 -1.7202  0.6545
19335TIP3   OH279419   0.951   5.733   0.162  0.7891 -0.0319  0.8484
19335TIP3    H179420   0.860   5.709   0.146  0.7676  0.0290  0.8818
19335TIP3    H279421   0.997   5.649   0.166  0.9677 -0.0250 -0.5748
19336TIP3   OH279422   5.663   1.481   5.105 -0.4451 -0.1843 -0.0103
19336TIP3    H179423   5.609   1.507   5.031  0.6977 -0.6952 -1.0707
19336TIP3    H279424   5.603   1.477   5.179 -1.7300 -0.1977 -1.0208
19337TIP3   OH279425   3.332   3.239  14.126 -0.2303  0.0082  0.4655
19337TIP3    H179426   3.415   3.202  14.096 -0.2716  0.1620  0.1616
19337TIP3    H279427   3.358   3.312  14.183 -0.1588  0.0819  0.3377
19338TIP3   OH279428   1.694   1.289   1.957 -0.2191  0.5032 -0.0208
19338TIP3    H179429   1.617   1.256   1.911  0.8375 -0.5151 -1.1267
19338TIP3    H279430   1.698   1.382   1.933 -0.6654  0.3822 -0.5835
19339TIP3   OH279431   0.972   1.898  12.704  0.3603 -0.7308 -0.0982
19339TIP3    H179432   0.896   1.942  12.665  0.5847 -0.0168  0.2692
19339TIP3    H279433   0.995   1.951  12.779  2.3776  0.1251 -1.2555
19340TIP3   OH279434   6.341   1.627   1.272 -0.1075  0.2647 -0.2361
19340TIP3    H179435   6.401   1.663   1.337 -0.6994 -1.9459  1.6889
19340TIP3    H279436   6.382   1.545   1.244  0.0013  1.0352 -2.5520
19341TIP3   OH279437   6.202   4.613  16.816 -0.5369 -0.0317 -0.3240
19341TIP3    H179438   6.186   4.692  16.764  0.3229 -0.7054 -1.6724
19341TIP3    H279439   6.121   4.599  16.863 -1.4295  0.5153 -1.6395
19342TIP3   OH279440   5.457   0.204   3.522 -0.0986 -0.3922 -0.1954
19342TIP3    H179441   5.361   0.213   3.523  0.0709  2.3252  1.2301
19342TIP3    H279442   5.472   0.121   3.478 -3.1818 -1.9642  1.3497
19343TIP3   OH279443   0.260   4.874  14.597  0.1635  0.0619 -0.2853
19343TIP3    H179444   0.201   4.838  14.530  0.6620 -0.4857 -0.4278
19343TIP3    H279445   0.348   4.857  14.564  0.4126  0.0631  0.3693
19344TIP3   OH279446   1.514   6.479  11.110 -0.4944  0.1973 -0.3507
19344TIP3    H179447   1.590   6.537  11.116 -0.3112 -0.1733  1.6094
19344TIP3    H279448   1.549   6.399  11.070 -0.0793  0.3776 -0.3579
19345TIP3   OH279449   5.774   3.975   3.628  0.0698  0.1486 -0.2225
19345TIP3    H179450   5.803   3.918   3.557  1.0101  0.0853  0.2013
19345TIP3    H279451   5.850   4.029   3.649 -0.4804  0.8143  0.1130
19346TIP3   OH279452   4.931   0.860  14.110  0.1287  0.3174 -0.2255
19346TIP3    H179453   4.877   0.841  14.034  2.0848 -0.2468 -1.5366
19346TIP3    H279454   4.882   0.822  14.184 -1.2620 -0.1337 -1.3305
19347TIP3   OH279455   3.610   5.085  15.876 -0.0428 -0.2103  0.3608
19347TIP3    H179456   3.634   5.000  15.837  0.3951 -0.0614  0.3015
19347TIP3    H279457   3.549   5.124  15.813  2.1071  0.8763 -1.1702
19348TIP3   OH279458   5.080   2.918  12.313 -0.4570  0.2171  0.4516
19348TIP3    H179459   5.067   2.899  12.220  1.3494  2.2368 -0.2961
19348TIP3    H279460   5.071   2.833  12.356 -1.7307 -0.7118 -1.4836
19349TIP3   OH279461   5.018   5.739   4.618 -0.0636  0.0408 -0.0056
19349TIP3    H179462   5.001   5.648   4.592  2.1493  0.4243 -3.4458
19349TIP3    H279463   5.108   5.738   4.651  0.0197  0.9629 -0.1827
19350TIP3   OH279464   4.649   2.933   1.129  0.1161  0.0483 -0.0855
19350TIP3    H179465   4.569   2.948   1.079  1.1301  2.1108 -1.2129
19350TIP3    H279466   4.709   2.891   1.068  0.4828  0.1052  0.2295
19351TIP3   OH279467   6.178   4.436  11.818  0.1535 -0.3234 -0.4491
19351TIP3    H179468   6.252   4.379  11.839  0.6911  0.0513 -1.2977
19351TIP3    H279469   6.123   4.384  11.760 -0.7704 -0.9571  0.9403
19352TIP3   OH279470   1.546   1.179  14.924 -0.3695 -0.4668  0.8565
19352TIP3    H179471   1.462   1.171  14.880  0.2335 -0.5480 -0.3051
19352TIP3    H279472   1.545   1.267  14.963 -1.4867 -0.9360  1.9630
19353TIP3   OH279473   1.827   3.100   1.708  0.1128  0.5342  0.0182
19353TIP3    H179474   1.786   3.013   1.710 -0.8369  0.9767  0.1720
19353TIP3    H279475   1.903   3.089   1.650 -1.6340  0.2947 -2.3669
19354TIP3   OH279476   6.014   5.322   4.277 -0.9085  0.1614  0.1699
19354TIP3    H179477   6.021   5.378   4.200 -1.3868 -0.5245 -0.3813
19354TIP3    H279478   6.065   5.367   4.344 -0.1989  0.6022 -0.6430
19355TIP3   OH279479   1.343   5.113  15.094 -0.2836  0.6004 -0.0238
19355TIP3    H179480   1.391   5.084  15.171 -0.5221  0.7467  0.1820
19355TIP3    H279481   1.411   5.143  15.033 -0.1382  1.2797  0.4616
19356TIP3   OH279482   4.822   6.500  12.062  0.6609  0.2306  0.1508
19356TIP3    H179483   4.804   6.422  12.115 -1.5649 -0.3677 -1.3640
19356TIP3    H279484   4.741   6.516  12.014  1.5059  2.7172 -0.5968
19357TIP3   OH279485   6.668   4.284  15.618  0.1064 -0.4219  0.2213
19357TIP3    H179486   6.726   4.267  15.544 -0.5672 -0.3403 -0.3290
19357TIP3    H279487   6.600   4.217  15.612 -0.4699  0.1534  0.2124
19358TIP3   OH279488   3.272   1.062  15.075 -0.0087  0.0012  0.3772
19358TIP3    H179489   3.259   1.109  15.158  0.1662 -0.1605  0.4975
19358TIP3    H279490   3.302   1.129  15.014  1.6601 -0.1927  0.9176
19359TIP3   OH279491   5.173   2.179   1.666  0.5400  0.2092 -0.0281
19359TIP3    H179492   5.080   2.178   1.642  0.4934  2.9209 -0.2823
19359TIP3    H279493   5.177   2.131   1.748 -1.2239  0.5363  0.2943
19360TIP3   OH279494   5.317   0.632  12.391  0.0915  0.7505 -0.5146
19360TIP3    H179495   5.337   0.543  12.419  0.3110  1.0843  0.4586
19360TIP3    H279496   5.380   0.651  12.322  3.4000  1.7832  2.4714
19361TIP3   OH279497   5.534   2.145   3.336 -0.1717  0.5371  0.0736
19361TIP3    H179498   5.546   2.232   3.298 -1.6565  0.0716 -1.6300
19361TIP3    H279499   5.483   2.098   3.271  0.9087 -1.7594  0.7828
19362TIP3   OH279500   0.733   3.994   0.723  0.3223 -0.0038  0.3028
19362TIP3    H179501   0.819   3.958   0.700  0.2683 -0.3445  0.6218
19362TIP3    H279502   0.688   3.922   0.767 -0.1817  0.1258  0.0111
19363TIP3   OH279503   2.197   1.889   1.807  0.3002  0.1543 -0.1333
19363TIP3    H179504   2.206   1.809   1.859 -0.9004 -0.2511 -0.5115
19363TIP3    H279505   2.261   1.879   1.736  0.1969 -0.4533 -0.1453
19364TIP3   OH279506   4.404   3.917  12.721  0.1013 -0.1373  0.0794
19364TIP3    H179507   4.310   3.904  12.708  0.2114 -1.0962  0.1428
19364TIP3    H279508   4.413   3.939  12.814 -0.1490  1.0340 -0.1578
19365TIP3   OH279509   4.322   3.392   4.506  0.0263 -0.0416  0.3246
19365TIP3    H179510   4.305   3.467   4.563  0.7489  1.2810 -1.1274
19365TIP3    H279511   4.274   3.412   4.425  0.6091 -0.9254 -0.2639
19366TIP3   OH279512   5.547   0.369  16.883 -0.2311 -0.0209  0.5196
19366TIP3    H179513   5.611   0.328  16.825  0.5251  1.6085  0.1496
19366TIP3    H279514   5.463   0.356  16.840  0.3411  1.4296 -1.1632
19367TIP3   OH279515   1.140   3.590   5.167  0.3590 -0.3048 -0.2389
19367TIP3    H179516   1.087   3.523   5.210 -0.7770  0.4796 -0.3660
19367TIP3    H279517   1.131   3.572   5.074  0.5258 -0.3288 -0.2498
19368TIP3   OH279518   5.667   2.862  13.186  0.2802 -0.7780 -0.5605
19368TIP3    H179519   5.689   2.954  13.167  2.2054 -1.0141  0.3379
19368TIP3    H279520   5.605   2.867  13.258  0.7121 -0.1652 -0.2150
19369TIP3   OH279521   1.963   0.591   0.513  0.4332 -0.9664  0.5763
19369TIP3    H179522   1.999   0.560   0.596  2.7771 -0.4242 -0.1560
19369TIP3    H279523   1.904   0.520   0.485  1.9437 -2.5756  1.2608
19370TIP3   OH279524   5.338   4.126  15.989 -0.4153 -0.1449  0.0456
19370TIP3    H179525   5.376   4.115  16.076 -0.6931 -2.3166 -0.0373
19370TIP3    H279526   5.406   4.094  15.930 -0.3051  1.1231 -0.5391
19371TIP3   OH279527   6.740   3.124  12.601 -0.8059  0.0152 -0.0048
19371TIP3    H179528   6.746   3.039  12.645  2.3953 -0.2895 -0.8207
19371TIP3    H279529   6.693   3.105  12.520 -1.6477 -0.5651  0.5919
19372TIP3   OH279530   6.484   1.991   0.460 -0.1143 -0.1613  0.7778
19372TIP3    H179531   6.577   2.005   0.443 -0.6051  0.9231 -1.3052
19372TIP3    H279532   6.468   1.900   0.433  0.3137 -0.3229  1.0643
19373TIP3   OH279533   2.943   3.522  11.669 -0.5146  0.0248 -0.0661
19373TIP3    H179534   2.885   3.530  11.744 -0.6642  2.0094 -0.3323
19373TIP3    H279535   2.884   3.516  11.594 -0.3647 -0.9159 -0.1149
19374TIP3   OH279536   4.535   0.469   1.583  0.0437 -0.0008  0.4924
19374TIP3    H179537   4.629   0.469   1.602  0.0745  1.7084  0.4720
19374TIP3    H279538   4.521   0.547   1.530 -1.4149 -0.1429  0.6293
19375TIP3   OH279539   1.300   3.715  15.321 -0.1775  0.5367 -0.3045
19375TIP3    H179540   1.389   3.749  15.322 -1.2188  3.5000 -0.7230
19375TIP3    H279541   1.270   3.721  15.412 -0.1681  0.1413 -0.2731
19376TIP3   OH279542   6.080   5.017  16.411 -0.0646 -0.2988  0.2295
19376TIP3    H179543   6.044   5.053  16.492 -1.8626 -0.6265 -0.3707
19376TIP3    H279544   6.104   5.094  16.359  1.8660 -0.0927  1.3533
19377TIP3   OH279545   3.669   0.711  11.514  0.4720  0.1903 -0.3284
19377TIP3    H179546   3.616   0.718  11.435 -2.1870 -2.7521  0.9748
19377TIP3    H279547   3.639   0.782  11.571 -1.4303 -0.7862 -0.0379
19378TIP3   OH279548   0.569   6.341  11.365  0.0431  0.6156  0.4123
19378TIP3    H179549   0.582   6.374  11.276 -0.6532 -1.7878 -0.6616
19378TIP3    H279550   0.497   6.393  11.399  0.3995  1.6652 -0.3663
19379TIP3   OH279551   4.249   5.022  14.200  0.2606 -0.0549  0.3002
19379TIP3    H179552   4.185   4.961  14.164 -0.3879 -0.0963  1.4928
19379TIP3    H279553   4.321   5.022  14.136 -1.3174  0.7202 -1.5518
19380TIP3   OH279554   4.537   2.237   3.844 -0.5638 -0.1439 -0.4685
19380TIP3    H179555   4.504   2.193   3.923  0.1823  0.5176  0.2227
19380TIP3    H279556   4.466   2.297   3.819  0.5096  2.3241  1.8360
19381TIP3   OH279557   2.955   4.616  11.151  0.6914 -0.5472 -0.4030
19381TIP3    H179558   2.998   4.694  11.187 -2.1271  1.6990 -1.5713
19381TIP3    H279559   2.908   4.578  11.226 -1.6880  1.6656 -0.6305
19382TIP3   OH279560   4.434   4.016  11.347  0.1370  0.6618 -0.1874
19382TIP3    H179561   4.526   4.022  11.320  0.6098  0.4363  1.2947
19382TIP3    H279562   4.399   4.103  11.329  1.3471  1.5821  1.5592
19383TIP3   OH279563   4.489   6.570  16.783  0.3433 -1.0795 -0.1133
19383TIP3    H179564   4.449   6.585  16.869  0.6469  0.6916 -0.2343
19383TIP3    H279565   4.469   6.479  16.762 -0.7390 -1.1982  1.3121
19384TIP3   OH279566   4.420   3.536  16.097  0.1058 -0.0912 -0.2626
19384TIP3    H179567   4.396   3.499  16.013  0.4619  0.6002 -0.6763
19384TIP3    H279568   4.496   3.591  16.079  1.5582 -1.6034  0.8687
19385TIP3   OH279569   2.299   5.683  14.593 -0.0844  0.1806 -0.0101
19385TIP3    H179570   2.303   5.777  14.613  0.4208 -0.2103  1.9579
19385TIP3    H279571   2.229   5.649  14.649 -2.8189 -0.1162 -3.2967
19386TIP3   OH279572   1.496   6.706  14.859 -0.0952 -0.3670 -0.0036
19386TIP3    H179573   1.537   6.697  14.945  0.8804 -0.2439 -0.4291
19386TIP3    H279574   1.563   6.674  14.798 -0.9328 -0.8552 -0.6817
19387TIP3   OH279575   4.690   2.690   1.336 -0.4348 -0.2144 -0.1651
19387TIP3    H179576   4.600   2.703   1.305 -0.0629  3.0082 -0.2891
19387TIP3    H279577   4.744   2.724   1.264  0.9186 -1.7874  0.0525
19388TIP3   OH279578   4.691   1.103   3.809  0.6073  0.3255  0.5762
19388TIP3    H179579   4.660   1.013   3.823  0.1831  0.3306 -0.2669
19388TIP3    H279580   4.784   1.093   3.787  0.1103 -0.1124 -1.5520
19389TIP3   OH279581   2.583   4.331  15.858  0.4590 -0.0010 -0.4248
19389TIP3    H179582   2.672   4.365  15.860  0.5727 -0.2812 -0.6509
19389TIP3    H279583   2.571   4.298  15.769  0.5161 -0.9741 -0.0940
19390TIP3   OH279584   6.232   3.867  12.589  0.3231  0.6631 -0.3158
19390TIP3    H179585   6.153   3.921  12.584 -0.3746 -0.3879 -1.1535
19390TIP3    H279586   6.204   3.788  12.635  1.6162  1.4351  1.9373
19391TIP3   OH279587   0.433   2.825   1.184 -0.3229  0.3715  0.3546
19391TIP3    H179588   0.385   2.791   1.259  1.5023 -0.8609  1.0288
19391TIP3    H279589   0.496   2.886   1.222 -0.6823  1.2473 -0.4151
19392TIP3   OH279590   2.603   0.307   4.310  0.2601 -0.3073 -0.2108
19392TIP3    H179591   2.526   0.272   4.355 -0.1155 -0.8467 -1.2414
19392TIP3    H279592   2.603   0.400   4.331  1.1141 -0.7819  2.3612
19393TIP3   OH279593   0.788   0.417   1.317  0.6219  0.0303 -0.2001
19393TIP3    H179594   0.829   0.503   1.310  0.4220  0.1092 -0.3976
19393TIP3    H279595   0.697   0.431   1.290  1.0678 -0.6086 -2.2363
19394TIP3   OH279596   1.177   2.757  16.724  0.2895  0.0608  0.0709
19394TIP3    H179597   1.250   2.736  16.665 -0.9622 -1.3507 -1.0468
19394TIP3    H279598   1.185   2.693  16.795 -2.0276 -2.8338 -2.0366
19395TIP3   OH279599   0.716   5.006   0.033  0.1413  0.1150 -0.3483
19395TIP3    H179600   0.692   5.019  -0.059  0.4269  2.1272 -0.1890
19395TIP3    H279601   0.758   5.088   0.059  0.9396 -0.7612  1.3257
19396TIP3   OH279602   6.634   4.344   1.559  0.3623 -0.0962  0.4936
19396TIP3    H179603   6.707   4.288   1.586 -0.8048 -1.1433  1.6547
19396TIP3    H279604   6.659   4.432   1.588  1.4482 -0.2978  0.2345
19397TIP3   OH279605   4.203   2.448  16.070 -0.4654  0.3091  0.3273
19397TIP3    H179606   4.148   2.370  16.064  0.0873 -0.1221  0.6338
19397TIP3    H279607   4.186   2.483  16.158 -0.1973  0.1223  0.4590
19398TIP3   OH279608   3.474   0.416   2.526 -0.5503 -0.0352 -0.1271
19398TIP3    H179609   3.518   0.451   2.448  0.6114 -0.9121  0.1028
19398TIP3    H279610   3.384   0.401   2.499 -0.4861  0.9032 -0.9127
19399TIP3   OH279611   1.295   6.730  13.814  0.2921  0.1999 -0.6008
19399TIP3    H179612   1.317   6.670  13.743  0.8399  0.8720 -1.0037
19399TIP3    H279613   1.214   6.695  13.850 -0.0519 -0.0851 -1.6226
19400TIP3   OH279614   5.168   5.563   5.506  0.0887 -0.2101 -0.2227
19400TIP3    H179615   5.250   5.535   5.464  0.6740 -1.8532  1.8143
19400TIP3    H279616   5.197   5.618   5.579 -0.5080 -1.4011  0.9623
19401TIP3   OH279617   3.032   0.189  14.938  0.0494  0.1960  0.1094
19401TIP3    H179618   3.072   0.200  15.025  3.7743 -2.5382 -0.9915
19401TIP3    H279619   2.938   0.185  14.955  0.4816  1.7773  3.7156
19402TIP3   OH279620   5.301   2.224   0.448 -0.4382 -0.4459  0.1021
19402TIP3    H179621   5.215   2.229   0.408 -0.1332 -0.7472 -0.5997
19402TIP3    H279622   5.320   2.314   0.475 -0.6309 -0.2302 -0.4728
19403TIP3   OH279623   0.474   0.600   3.871 -0.0027  0.7048 -0.3859
19403TIP3    H179624   0.435   0.663   3.810 -0.4894  2.8165  1.9641
19403TIP3    H279625   0.399   0.560   3.915  0.3645 -0.2151 -0.5741
19404TIP3   OH279626   4.253   3.243  15.050 -0.0330 -0.0377  0.5028
19404TIP3    H179627   4.164   3.276  15.064 -0.0178 -0.4472  1.7004
19404TIP3    H279628   4.309   3.320  15.059 -0.2127  0.0982  0.4618
19405TIP3   OH279629   4.018   4.449   1.221  0.3598  0.3353 -0.0290
19405TIP3    H179630   4.069   4.480   1.296 -0.7291 -1.7092  1.6839
19405TIP3    H279631   4.079   4.395   1.171  1.0030  1.4083 -0.4152
19406TIP3   OH279632   0.141   5.219   0.520 -0.6134  0.4469 -0.1308
19406TIP3    H179633   0.097   5.137   0.543 -0.0953  0.5223  1.2170
19406TIP3    H279634   0.118   5.234   0.428 -2.7387  0.0770  0.2802
19407TIP3   OH279635   0.918   0.892   1.288 -0.8344  0.2179 -0.3011
19407TIP3    H179636   0.897   0.799   1.277 -0.5773  0.1167  0.0385
19407TIP3    H279637   1.005   0.902   1.248 -0.6256  0.1946  0.1344
19408TIP3   OH279638   4.899   4.584  12.637  0.4330 -0.2801 -0.2132
19408TIP3    H179639   4.919   4.677  12.643 -0.3328 -0.1970  1.7876
19408TIP3    H279640   4.963   4.542  12.695  0.9440 -1.0547 -1.2989
19409TIP3   OH279641   6.158   3.414  13.624 -0.0727 -0.6045  0.4448
19409TIP3    H179642   6.145   3.352  13.553  0.2910  0.3455 -0.4752
19409TIP3    H279643   6.086   3.476  13.616  0.2420 -0.2086  0.5961
19410TIP3   OH279644   3.050   1.188   2.974  0.7456 -0.1985  0.1450
19410TIP3    H179645   2.984   1.132   3.017 -0.4906  0.8139 -0.3692
19410TIP3    H279646   3.129   1.134   2.973  0.2782 -1.0195  1.8642
19411TIP3   OH279647   6.745   2.011   3.270 -0.1034  0.4796  0.3512
19411TIP3    H179648   6.727   1.971   3.355  0.1920  0.3335  0.3426
19411TIP3    H279649   6.834   2.044   3.277  0.2785 -0.4202 -0.2528
19412TIP3   OH279650   0.572   2.222   2.761  0.0712  0.5756  0.2358
19412TIP3    H179651   0.634   2.238   2.689 -0.9691 -0.0832 -0.8524
19412TIP3    H279652   0.574   2.302   2.813  1.5465  0.7049  0.0158
19413TIP3   OH279653   1.570   2.472   3.701 -0.0537  0.3745 -0.3855
19413TIP3    H179654   1.503   2.437   3.760  0.8143 -2.9193 -1.1669
19413TIP3    H279655   1.632   2.516   3.759 -0.0688 -1.3538  1.0014
19414TIP3   OH279656   3.337   5.836   4.347  0.3094 -0.1443 -0.3716
19414TIP3    H179657   3.392   5.830   4.425 -1.0828  4.7980  1.4185
19414TIP3    H279658   3.253   5.797   4.374  0.8018 -1.3793 -0.5973
19415TIP3   OH279659   1.987   0.028   3.458 -0.3439  0.0653  0.2712
19415TIP3    H179660   1.926  -0.033   3.416 -1.1604  0.1494  1.2870
19415TIP3    H279661   1.934   0.074   3.523  0.4083  1.4359 -0.0572
19416TIP3   OH279662   3.968   1.575  13.449 -0.0834  0.2085  0.7383
19416TIP3    H179663   4.038   1.595  13.387 -0.0770 -0.8518  0.3830
19416TIP3    H279664   4.001   1.607  13.534  0.9182 -0.4237  0.6120
19417TIP3   OH279665   2.330   0.765  11.382 -0.3037 -0.2845  0.2745
19417TIP3    H179666   2.296   0.677  11.368  0.9163 -0.7679  0.2205
19417TIP3    H279667   2.367   0.790  11.298  0.6963 -0.3402  0.6813
19418TIP3   OH279668   0.310   4.063   4.093  0.5915  0.1648 -0.5910
19418TIP3    H179669   0.347   4.119   4.161  1.0684  0.8474 -1.3955
19418TIP3    H279670   0.249   4.119   4.046  0.0938 -0.3660 -0.5890
19419TIP3   OH279671   5.085   4.216  11.743 -0.4029 -0.1333  0.1215
19419TIP3    H179672   5.152   4.222  11.810 -0.5194 -1.9058  0.4357
19419TIP3    H279673   5.047   4.304  11.740 -0.7138 -0.0965  2.7113
19420TIP3   OH279674   3.387   5.879  14.084 -0.4280  0.9172  0.2943
19420TIP3    H179675   3.360   5.967  14.111 -0.8377  1.3643 -1.4541
19420TIP3    H279676   3.480   5.889  14.060 -0.4312  0.8344  0.2463
19421TIP3   OH279677   5.457   4.748   3.006  0.3429  0.1264 -0.2559
19421TIP3    H179678   5.460   4.683   2.936  2.2767  0.0180 -0.1116
19421TIP3    H279679   5.522   4.814   2.980  1.5551 -0.2190  1.6927
19422TIP3   OH279680   3.848   6.766  12.632 -0.4742 -0.0562  0.3036
19422TIP3    H179681   3.776   6.758  12.570 -0.3507 -0.1635  0.1740
19422TIP3    H279682   3.857   6.678  12.669 -0.8719  0.1210  0.8361
19423TIP3   OH279683   4.167   6.178  14.841  0.6293 -0.0693  0.2295
19423TIP3    H179684   4.145   6.101  14.788  1.4940 -0.2750  0.1664
19423TIP3    H279685   4.110   6.247  14.807  0.1276 -0.5757  0.0190
19424TIP3   OH279686   2.946   4.401   1.381  0.7639  0.0542 -0.5149
19424TIP3    H179687   3.029   4.423   1.339 -0.2538  1.4508 -1.9419
19424TIP3    H279688   2.884   4.464   1.345 -0.6670 -0.1262  1.4918
19425TIP3   OH279689   6.633   4.301   2.218 -0.2409 -0.0306 -0.2707
19425TIP3    H179690   6.656   4.390   2.190 -0.3208  0.0457 -0.0954
19425TIP3    H279691   6.579   4.314   2.296  2.1885 -0.2550  1.5921
19426TIP3   OH279692   3.848   2.365  15.473 -0.6013 -0.0168  0.3819
19426TIP3    H179693   3.754   2.352  15.470 -0.9245  1.6888  1.4354
19426TIP3    H279694   3.866   2.430  15.404  0.0180 -1.2619 -0.6694
19427TIP3   OH279695   4.377   1.616   0.571 -0.2000 -0.3669 -0.3500
19427TIP3    H179696   4.353   1.656   0.487 -0.5267 -0.0517 -0.1110
19427TIP3    H279697   4.298   1.570   0.599  0.4635 -2.0037 -1.0782
19428TIP3   OH279698   4.947   6.317   4.662 -0.0006 -0.0066  0.6490
19428TIP3    H179699   5.000   6.293   4.737 -0.2127  0.3193  0.9081
19428TIP3    H279700   4.950   6.241   4.604 -1.0890 -0.8782  1.6813
19429TIP3   OH279701   5.965   3.049   0.608 -0.4215 -0.0883  0.2851
19429TIP3    H179702   6.016   3.005   0.676 -1.5547 -1.1550  0.4744
19429TIP3    H279703   5.876   3.018   0.621 -0.8854  0.6851 -0.9009
19430TIP3   OH279704   6.143   2.768   4.675  0.1648 -0.1221 -0.5710
19430TIP3    H179705   6.067   2.756   4.733  2.1559  0.4362  2.4111
19430TIP3    H279706   6.134   2.699   4.609 -2.0558 -1.1253  0.6545
19431TIP3   OH279707   4.543   4.528  12.951  0.0820  0.8721 -0.3155
19431TIP3    H179708   4.533   4.440  12.915  1.8180  0.5285 -0.0658
19431TIP3    H279709   4.568   4.581  12.875  1.2157  0.6690 -0.1080
19432TIP3   OH279710   6.271   4.105   4.975 -0.3862  0.0118  0.0743
19432TIP3    H179711   6.183   4.137   4.958 -1.1218 -0.5097  2.5906
19432TIP3    H279712   6.264   4.010   4.969  0.3060  0.0032 -0.8688
19433TIP3   OH279713   5.308   2.327   3.949  0.4907 -0.6173  0.4725
19433TIP3    H179714   5.395   2.287   3.958  1.5614  1.2606 -0.7545
19433TIP3    H279715   5.319   2.415   3.983 -0.0762  0.6568 -2.3812
19434TIP3   OH279716   4.300   4.779  14.656 -0.3750 -0.0779 -0.3468
19434TIP3    H179717   4.383   4.743  14.685 -0.0958 -0.7366 -1.8852
19434TIP3    H279718   4.323   4.861  14.612 -0.6637  0.2742  0.1416
19435TIP3   OH279719   5.354   6.100   4.651 -0.2567 -0.1988 -0.1837
19435TIP3    H179720   5.309   6.114   4.568  1.3453  0.9115 -0.9148
19435TIP3    H279721   5.364   6.187   4.688 -0.0921 -0.5909  0.7219
19436TIP3   OH279722   2.285   0.299   2.278 -0.6864 -0.0379  0.2240
19436TIP3    H179723   2.299   0.260   2.191  1.4339 -0.0953  0.5463
19436TIP3    H279724   2.248   0.228   2.330  1.3234 -1.1209  0.2736
19437TIP3   OH279725   1.034   5.686   1.044  0.0854 -0.3498 -0.2618
19437TIP3    H179726   1.018   5.778   1.065 -0.8741 -0.8031  1.1731
19437TIP3    H279727   0.953   5.656   1.005  0.8240 -0.3042 -1.8935
19438TIP3   OH279728   1.194   4.068   5.233  0.0809  0.0143 -0.1447
19438TIP3    H179729   1.115   4.120   5.250 -1.5908 -2.2662 -0.5095
19438TIP3    H279730   1.171   3.979   5.259  2.8903 -0.5936  0.6080
19439TIP3   OH279731   6.280   2.974  15.186  0.1185 -0.2813  0.0268
19439TIP3    H179732   6.240   2.887  15.178 -0.6967 -0.2225  2.5652
19439TIP3    H279733   6.310   2.994  15.097 -0.6209 -2.6780 -0.8686
19440TIP3   OH279734   0.398   2.364   2.071 -0.4246  0.0681 -0.2174
19440TIP3    H179735   0.478   2.343   2.119 -0.9587  0.0655  0.6902
19440TIP3    H279736   0.329   2.367   2.138 -1.7459 -2.7562 -1.2921
19441TIP3   OH279737   3.523   3.108   0.057  0.3579 -0.0347 -0.3115
19441TIP3    H179738   3.607   3.065   0.042  1.6011  1.3741  2.0071
19441TIP3    H279739   3.506   3.157  -0.024  1.5788 -0.6261 -0.9528
19442TIP3   OH279740   4.283   4.729   6.644  0.1128  0.8471  0.4884
19442TIP3    H179741   4.277   4.652   6.588  0.2477  0.6922  0.6854
19442TIP3    H279742   4.248   4.801   6.591 -0.0293  0.6461  0.3122
19443TIP3   OH279743   6.669   1.463  10.812 -0.1960  0.2362 -0.5421
19443TIP3    H179744   6.586   1.468  10.764 -0.0786  3.1053 -0.6118
19443TIP3    H279745   6.726   1.410  10.756 -1.8952 -1.7201 -0.5314
19444TIP3   OH279746   2.244   5.860   3.485 -0.0388 -0.4164  0.5246
19444TIP3    H179747   2.223   5.808   3.408  0.5973  1.0650 -0.7062
19444TIP3    H279748   2.340   5.860   3.488 -0.0552 -0.2917  1.2080
19445TIP3   OH279749   3.013   3.364  13.144  0.0011  0.1711  0.3873
19445TIP3    H179750   2.993   3.342  13.235  2.6976  0.0931  1.0357
19445TIP3    H279751   3.042   3.455  13.147 -1.8496  0.8609 -0.7847
19446TIP3   OH279752   3.960   2.163  16.682  0.2381 -0.1624  0.1613
19446TIP3    H179753   4.009   2.085  16.709 -1.8244 -1.6839 -0.1762
19446TIP3    H279754   3.906   2.183  16.758 -0.9226 -0.5227 -0.5433
19447TIP3   OH279755   1.870   0.909   2.506  0.1370 -0.0274 -0.5651
19447TIP3    H179756   1.940   0.900   2.442  1.0056  0.8258  0.2256
19447TIP3    H279757   1.824   0.824   2.504  1.4461 -0.7595 -0.8048
19448TIP3   OH279758   2.545   6.291  16.042 -0.4340  0.0557 -0.3752
19448TIP3    H179759   2.577   6.364  15.989  0.1167 -1.0103 -1.5782
19448TIP3    H279760   2.451   6.306  16.050 -0.2332  1.2092 -0.0739
19449TIP3   OH279761   1.151   1.054   4.307  0.7933  0.4390 -1.2436
19449TIP3    H179762   1.186   1.015   4.387  1.0578  1.2777 -0.9329
19449TIP3    H279763   1.170   1.148   4.316 -0.6443  0.7818 -1.5288
19450TIP3   OH279764   4.688   5.720   4.108 -0.2807 -0.2189  0.4359
19450TIP3    H179765   4.710   5.712   4.201  0.4602 -0.1388  0.2708
19450TIP3    H279766   4.615   5.659   4.095 -0.8531  0.2867  1.2202
19451TIP3   OH279767   4.844   2.495  16.188  0.1715 -0.0103  0.9024
19451TIP3    H179768   4.772   2.538  16.234  1.4316  1.0621  1.9602
19451TIP3    H279769   4.869   2.422  16.246  0.5143  0.1806  1.0020
19452TIP3   OH279770   3.845   6.748  15.476 -0.1157  0.3004  0.0216
19452TIP3    H179771   3.932   6.719  15.504 -1.0522 -0.8801  1.9356
19452TIP3    H279772   3.850   6.843  15.479  1.2620  0.2654 -0.4402
19453TIP3   OH279773   0.588   5.174  15.803  0.1562 -0.4548  0.2508
19453TIP3    H179774   0.606   5.116  15.729 -1.4528 -0.0632 -0.4923
19453TIP3    H279775   0.510   5.224  15.776 -0.1161  0.1109  1.9670
19454TIP3   OH279776   1.010   2.356   2.706  0.5619 -0.0777  0.4688
19454TIP3    H179777   0.931   2.381   2.753 -0.4680 -2.6724  0.2496
19454TIP3    H279778   0.990   2.272   2.667  2.5926  0.3238 -1.7168
19455TIP3   OH279779   3.249   2.078  13.028  0.4612  0.7377  0.3379
19455TIP3    H179780   3.244   2.005  12.967  1.1513  1.6362 -0.8119
19455TIP3    H279781   3.230   2.039  13.113  2.0376 -1.0341 -0.0598
19456TIP3   OH279782   4.507   6.676   4.566  0.9865  0.4468  0.2474
19456TIP3    H179783   4.548   6.599   4.525  1.4868  1.4508 -1.2140
19456TIP3    H279784   4.570   6.746   4.554  0.8048  0.9792  2.1326
19457TIP3   OH279785   5.777   5.172   1.486 -0.8618 -0.5384  0.8830
19457TIP3    H179786   5.809   5.258   1.459 -1.4387 -0.5060  0.2747
19457TIP3    H279787   5.753   5.183   1.578 -4.7265  1.1507 -0.1099
19458TIP3   OH279788   6.776   2.107   5.289 -0.0460  0.0998 -0.5473
19458TIP3    H179789   6.866   2.105   5.320 -0.6952  0.2106  1.4946
19458TIP3    H279790   6.730   2.043   5.344 -1.2069 -0.0061 -1.5879
19459TIP3   OH279791   0.479   3.739   2.145  0.3311  0.1704 -0.5096
19459TIP3    H179792   0.524   3.727   2.228  0.0239 -0.4710 -0.4319
19459TIP3    H279793   0.461   3.833   2.141 -0.8898  0.0164  0.7856
19460TIP3   OH279794   5.566   3.099  14.545 -0.3976  0.0346  0.1649
19460TIP3    H179795   5.529   3.164  14.604 -0.6250 -2.1779  2.6490
19460TIP3    H279796   5.491   3.058  14.503 -0.3692  0.1752 -0.0209
19461TIP3   OH279797   0.776   2.718   0.368  0.5925 -0.0501 -0.2186
19461TIP3    H179798   0.776   2.690   0.459  1.7187  1.4485  0.2766
19461TIP3    H279799   0.791   2.813   0.371 -2.4898  0.6605 -1.8263
19462TIP3   OH279800   3.261   6.775   5.585  0.1001  0.5241  0.2026
19462TIP3    H179801   3.182   6.732   5.618  1.6765 -2.3363  0.5748
19462TIP3    H279802   3.324   6.767   5.657  1.9739 -1.0683 -1.5045
19463TIP3   OH279803   4.939   0.768  12.147 -0.3329 -0.0626  0.0332
19463TIP3    H179804   4.881   0.791  12.074 -0.9947 -0.5504  0.4059
19463TIP3    H279805   4.881   0.733  12.215  0.3040  0.1596  0.7078
19464TIP3   OH279806   6.075   6.357  15.288 -0.1304 -0.3438 -0.2566
19464TIP3    H179807   6.039   6.367  15.376  0.0858  0.9340 -0.2977
19464TIP3    H279808   6.168   6.376  15.298 -0.1753  0.2056 -0.8183
19465TIP3   OH279809   4.265   2.587   4.252  0.2493 -0.3102 -0.1931
19465TIP3    H179810   4.252   2.665   4.306 -1.0019 -0.9569  0.4824
19465TIP3    H279811   4.210   2.520   4.293  1.2546 -1.5441 -0.7819
19466TIP3   OH279812   3.811   1.646  16.031 -0.1770  0.0579 -0.4965
19466TIP3    H179813   3.814   1.593  15.950 -0.4898  2.2337 -2.0171
19466TIP3    H279814   3.902   1.670  16.048 -0.0442 -0.8468  0.1512
19467TIP3   OH279815   5.568   1.681   2.861 -0.2284 -0.5073 -0.3949
19467TIP3    H179816   5.478   1.666   2.830 -0.6531  0.3247  0.3666
19467TIP3    H279817   5.568   1.773   2.888  1.0285 -0.3452 -0.9204
19468TIP3   OH279818   6.281   5.447  14.879  0.1989  0.5124  0.1549
19468TIP3    H179819   6.228   5.385  14.928  0.1510  1.4080  1.2682
19468TIP3    H279820   6.369   5.411  14.881  0.7944  1.8712  3.3517
19469TIP3   OH279821   4.266   6.460   1.640 -0.2355 -0.5468 -0.0412
19469TIP3    H179822   4.326   6.439   1.712 -0.0276 -0.6257 -0.2368
19469TIP3    H279823   4.256   6.555   1.645  1.7579 -0.1913 -1.4341
19470TIP3   OH279824   2.403   1.060   2.472  0.5884  0.0678 -0.1095
19470TIP3    H179825   2.451   1.053   2.555  1.9313 -2.4357 -0.9804
19470TIP3    H279826   2.312   1.038   2.495  0.6158  0.9401  0.9142
19471TIP3   OH279827   2.838   3.819   2.269 -0.1624  0.2479  0.1969
19471TIP3    H179828   2.806   3.787   2.354  1.3384 -0.2603  0.6030
19471TIP3    H279829   2.763   3.863   2.231 -1.0906 -0.1527  1.4737
19472TIP3   OH279830   3.485   6.775   2.990 -0.1140 -0.5024  0.3885
19472TIP3    H179831   3.526   6.802   3.071  3.6076 -2.3753 -0.6091
19472TIP3    H279832   3.505   6.845   2.928  1.3913 -1.2184  0.0108
19473TIP3   OH279833   6.224   4.443  16.009 -0.1961  0.0513  0.0153
19473TIP3    H179834   6.143   4.440  15.959  0.3456  1.0244 -0.9586
19473TIP3    H279835   6.201   4.404  16.094 -1.4799 -0.3508 -0.4892
19474TIP3   OH279836   0.861   6.268  13.311  0.3953  0.7230 -0.0039
19474TIP3    H179837   0.800   6.212  13.360 -1.2337  1.9666 -0.5099
19474TIP3    H279838   0.868   6.225  13.226  1.9196 -0.5414  0.7091
19475TIP3   OH279839   6.476   0.327   5.751  0.3021  0.2581 -0.0506
19475TIP3    H179840   6.554   0.334   5.695 -0.2619  1.4429 -0.7129
19475TIP3    H279841   6.511   0.301   5.837  1.2673 -0.7470 -0.7168
19476TIP3   OH279842   1.624   5.463   3.136 -0.1683  0.3417 -0.0433
19476TIP3    H179843   1.613   5.524   3.063  1.1858 -0.4592 -0.9762
19476TIP3    H279844   1.692   5.402   3.106 -1.5633 -1.7294  0.7751
19477TIP3   OH279845   1.334   2.461  12.756  0.2515  0.0906  0.1518
19477TIP3    H179846   1.360   2.515  12.831  1.4066  2.2082 -1.6751
19477TIP3    H279847   1.290   2.521  12.697  0.6726 -1.1922 -1.5406
19478TIP3   OH279848   5.984   3.249   0.200  0.2274 -0.4002  0.2078
19478TIP3    H179849   6.069   3.207   0.216 -0.2660 -2.0910 -1.3015
19478TIP3    H279850   5.989   3.278   0.109 -0.6323 -0.0515  0.2651
19479TIP3   OH279851   1.405   3.907  14.956 -0.4993  0.1768  0.1373
19479TIP3    H179852   1.456   3.961  15.018 -0.6804  0.3131  0.1664
19479TIP3    H279853   1.343   3.860  15.012 -0.1839 -0.2463  0.1404
19480TIP3   OH279854   1.036   0.644  15.276  0.2140 -0.0713 -0.0756
19480TIP3    H179855   1.038   0.720  15.218 -0.2589  1.0522  1.3425
19480TIP3    H279856   0.994   0.575  15.223  0.1074  0.8120 -1.1803
19481TIP3   OH279857   6.604   1.539  14.555 -0.5234  0.2423 -0.1917
19481TIP3    H179858   6.649   1.495  14.628 -1.9418 -0.4251  0.3195
19481TIP3    H279859   6.512   1.515  14.566 -0.7617  0.0683 -2.2602
19482TIP3   OH279860   2.411   4.813  12.511  0.0246 -0.0833 -0.0932
19482TIP3    H179861   2.377   4.738  12.463  0.4628 -0.1782 -0.2676
19482TIP3    H279862   2.334   4.861  12.540 -0.2529 -0.3997 -0.3047
19483TIP3   OH279863   1.996   0.799  16.876  0.1224 -0.7285  0.1112
19483TIP3    H179864   1.959   0.844  16.951  1.9201 -0.5507  0.9168
19483TIP3    H279865   2.055   0.733  16.913 -0.7177 -2.2378 -1.0948
19484TIP3   OH279866   3.459   2.320   1.841  0.0539  0.0824 -0.0753
19484TIP3    H179867   3.427   2.322   1.751 -1.7190 -0.3053  0.4921
19484TIP3    H279868   3.553   2.332   1.834  0.1534 -1.4485 -2.0782
19485TIP3   OH279869   5.493   6.043  12.823 -0.4659 -0.2644  0.4142
19485TIP3    H179870   5.424   6.022  12.761 -0.2988  0.9667 -0.2075
19485TIP3    H279871   5.489   6.138  12.834 -0.6634 -0.4626  2.5062
19486TIP3   OH279872   0.054   1.190   5.243  0.0025 -0.2738 -0.2396
19486TIP3    H179873   0.114   1.224   5.310 -0.7274 -0.0380  0.3079
19486TIP3    H279874  -0.015   1.256   5.237 -0.3102 -0.6389 -0.7084
19487TIP3   OH279875   4.625   0.979  15.561  0.2469  0.0607  0.0182
19487TIP3    H179876   4.553   0.924  15.593 -1.0681  2.4934  1.6256
19487TIP3    H279877   4.704   0.931  15.584 -0.7841 -0.5220  2.8507
19488TIP3   OH279878   3.789   4.358   3.948  0.1314  0.2515  0.1014
19488TIP3    H179879   3.825   4.279   3.907 -1.4268  0.3372 -1.5504
19488TIP3    H279880   3.793   4.424   3.879 -1.5299  0.7234  0.4251
19489TIP3   OH279881   4.804   1.521  13.867 -0.3589 -0.2351 -0.0033
19489TIP3    H179882   4.721   1.473  13.877 -0.1264 -0.5369  0.4674
19489TIP3    H279883   4.780   1.613  13.880 -0.6501 -0.3055 -0.0335
19490TIP3   OH279884   1.429   2.806   5.361 -1.0575  0.3412  0.1287
19490TIP3    H179885   1.414   2.764   5.446  0.8916  1.9506  1.3750
19490TIP3    H279886   1.364   2.877   5.358 -0.5397  0.8489  0.7152
19491TIP3   OH279887   4.695   4.428  15.429  0.1335  0.1459 -0.3174
19491TIP3    H179888   4.720   4.520  15.419  0.2988  0.2858  1.2188
19491TIP3    H279889   4.778   4.380  15.427  0.1382  0.1405  0.0002
19492TIP3   OH279890   0.697   0.681   5.977 -0.7711 -0.6322  0.0866
19492TIP3    H179891   0.767   0.689   5.913 -1.2496  2.1177 -0.2186
19492TIP3    H279892   0.739   0.695   6.061 -0.7579 -0.2756  0.0198
19493TIP3   OH279893   4.180   0.255   4.094 -0.2614 -0.0106 -0.1879
19493TIP3    H179894   4.134   0.259   4.010  0.2050  0.3850 -0.4330
19493TIP3    H279895   4.185   0.162   4.115 -1.4141 -0.0454 -0.0149
19494TIP3   OH279896   1.171   5.837   3.054  0.1501 -0.1367 -0.2079
19494TIP3    H179897   1.107   5.904   3.034  1.3324  0.4891 -2.1707
19494TIP3    H279898   1.173   5.781   2.976 -0.2642 -2.0535  1.0717
19495TIP3   OH279899   5.057   4.997  11.112 -0.4704 -0.4496 -0.0215
19495TIP3    H179900   5.093   4.926  11.164 -2.4588 -0.2605  1.7532
19495TIP3    H279901   5.087   4.979  11.023  1.0998 -2.1056  0.7868
19496TIP3   OH279902   3.309   1.176  11.601 -0.3160  0.3879 -0.8219
19496TIP3    H179903   3.317   1.172  11.506  1.0996  2.0745 -0.8237
19496TIP3    H279904   3.399   1.164  11.633 -0.5272  1.3815  0.2078
19497TIP3   OH279905   0.699   5.328   0.526  0.3789  0.7073  0.7259
19497TIP3    H179906   0.643   5.311   0.451  0.1442 -1.1787  1.2840
19497TIP3    H279907   0.725   5.420   0.516  0.6179  0.4322 -1.8081
19498TIP3   OH279908   3.213   1.093   0.673 -0.2988  0.2368 -0.1923
19498TIP3    H179909   3.160   1.012   0.672 -0.2192  0.1840 -0.6676
19498TIP3    H279910   3.288   1.072   0.728  0.8285 -0.7533 -2.0013
19499TIP3   OH279911   2.787   4.154   4.318 -0.3472 -0.1665  0.2579
19499TIP3    H179912   2.752   4.240   4.341  2.1448  0.7056  1.0168
19499TIP3    H279913   2.756   4.139   4.229 -1.1436  1.3340  0.2504
19500TIP3   OH279914   3.777   5.339  10.689 -0.5103  0.1037 -0.6642
19500TIP3    H179915   3.843   5.404  10.713 -2.8862  2.7959 -0.9767
19500TIP3    H279916   3.712   5.343  10.759 -2.6895  1.0782 -2.5991
19501TIP3   OH279917   6.560   5.666   3.518 -0.0828 -0.0299 -0.0019
19501TIP3    H179918   6.583   5.759   3.514  0.7073 -0.1617  1.1063
19501TIP3    H279919   6.475   5.661   3.473  0.2038  1.0984 -0.7104
19502TIP3   OH279920   2.226   1.334   4.929  0.0258  0.7235  0.2320
19502TIP3    H179921   2.318   1.311   4.914  0.0375  1.3358 -0.7120
19502TIP3    H279922   2.223   1.429   4.918 -0.5946  0.7964  0.9672
19503TIP3   OH279923   5.915   5.991   5.738 -0.0337 -0.3516  0.5206
19503TIP3    H179924   5.996   6.042   5.746 -0.3243  0.0020  1.3461
19503TIP3    H279925   5.915   5.935   5.815 -1.4606  0.9608  1.5171
19504TIP3   OH279926   2.222   3.591  15.937 -0.0213  0.1119 -0.0421
19504TIP3    H179927   2.235   3.644  15.858  0.2080  0.9446  0.5334
19504TIP3    H279928   2.255   3.647  16.008 -0.2086 -0.6293  0.6370
19505TIP3   OH279929   1.827   1.335  14.215  0.0167  0.1165  0.5378
19505TIP3    H179930   1.836   1.334  14.310 -0.9937  2.3781  0.7322
19505TIP3    H279931   1.853   1.423  14.189 -0.3691 -0.2361 -1.2194
19506TIP3   OH279932   2.364   5.440  14.360 -0.2742 -0.2434 -0.1907
19506TIP3    H179933   2.364   5.523  14.408  0.9080 -1.1597  1.4695
19506TIP3    H279934   2.452   5.405  14.371 -0.6546 -1.5912 -1.1225
19507TIP3   OH279935   5.327   4.371   4.704 -0.1014  0.2091  0.3098
19507TIP3    H179936   5.244   4.411   4.729  0.1169 -0.0073  1.4113
19507TIP3    H279937   5.390   4.407   4.766  0.1827 -1.5241  1.0567
19508TIP3   OH279938   4.747   1.847  16.378  0.1936  0.0730 -0.1633
19508TIP3    H179939   4.807   1.812  16.443  0.0831  0.8287  0.3512
19508TIP3    H279940   4.774   1.938  16.365  0.3947 -0.1377 -1.3849
19509TIP3   OH279941   2.157   0.721   5.785 -0.1842  0.2299  0.1273
19509TIP3    H179942   2.178   0.660   5.714  1.3424  0.8248  0.0310
19509TIP3    H279943   2.178   0.672   5.865  0.6723  0.4781  0.0632
19510TIP3   OH279944   5.048   6.241  12.539 -0.0909 -0.2631 -0.5711
19510TIP3    H179945   5.136   6.227  12.575  0.0012 -0.8518 -1.0135
19510TIP3    H279946   5.056   6.320  12.486  0.1800 -0.3316 -0.6332
19511TIP3   OH279947   0.039   4.402   4.741 -0.3428  0.3443  0.2542
19511TIP3    H179948   0.077   4.471   4.796  2.9024 -2.2380  1.6157
19511TIP3    H279949  -0.039   4.373   4.788  0.5373  0.4100  1.7932
19512TIP3   OH279950   4.621   1.311  15.984 -0.4384 -0.2032 -0.3411
19512TIP3    H179951   4.575   1.305  16.067 -1.9745 -1.7391 -1.2334
19512TIP3    H279952   4.635   1.220  15.958  0.5691  0.2420 -1.4795
19513TIP3   OH279953   5.708   4.862   0.753 -0.5328  0.4202 -0.3983
19513TIP3    H179954   5.616   4.835   0.748 -0.6003  0.8727 -1.9406
19513TIP3    H279955   5.708   4.953   0.725  0.2597  0.7639  0.6476
19514TIP3   OH279956   3.052   2.372   3.332 -0.2887 -0.6376 -0.2484
19514TIP3    H179957   3.000   2.435   3.382  0.5996  0.5175 -0.7070
19514TIP3    H279958   2.994   2.298   3.318 -0.9710 -0.4435  1.3759
19515TIP3   OH279959   0.748   1.208   3.722  0.2627 -0.2965  0.1851
19515TIP3    H179960   0.656   1.200   3.697 -0.1877 -1.6340  2.0125
19515TIP3    H279961   0.768   1.301   3.710 -0.9350 -0.2026 -1.4040
19516TIP3   OH279962   5.046   0.591  10.797  0.4872  0.5242  0.2248
19516TIP3    H179963   5.033   0.666  10.738  0.9300  0.8318  0.5089
19516TIP3    H279964   4.970   0.535  10.782  0.6899  0.4988 -0.7807
19517TIP3   OH279965   4.818   3.781  16.479 -0.3029  0.1271  0.0335
19517TIP3    H179966   4.753   3.748  16.541  0.5824 -1.3804  0.2054
19517TIP3    H279967   4.779   3.763  16.393  0.2969 -1.7551  0.1149
19518TIP3   OH279968   3.496   3.808  15.356  0.5019  0.3658  0.1559
19518TIP3    H179969   3.407   3.782  15.380  0.6443 -0.8560 -0.5535
19518TIP3    H279970   3.550   3.781  15.431  0.5113 -0.5679 -0.1701
19519TIP3   OH279971   6.652   2.290   1.021 -0.1973  0.0788  0.1895
19519TIP3    H179972   6.668   2.214   0.965 -1.6441 -0.4847  0.4979
19519TIP3    H279973   6.617   2.356   0.962  0.1125  0.1702  0.1029
19520TIP3   OH279974   6.101   4.698  16.047  0.3089  0.2753 -0.2687
19520TIP3    H179975   6.137   4.612  16.028  0.8302  0.4843 -0.2379
19520TIP3    H279976   6.053   4.722  15.967  0.6914  0.2246 -0.5200
19521TIP3   OH279977   2.516   6.276  16.735  0.1322 -0.2278  0.1212
19521TIP3    H179978   2.471   6.246  16.813  0.3090  0.0470  0.3288
19521TIP3    H279979   2.559   6.197  16.700  1.0317 -0.1258  0.9594
19522TIP3   OH279980   3.342   3.206  15.550 -0.2737 -0.4777 -0.1862
19522TIP3    H179981   3.334   3.111  15.556 -1.5819 -0.3070  1.3501
19522TIP3    H279982   3.257   3.240  15.579 -0.1864  1.1591 -1.6646
19523TIP3   OH279983   5.316   6.646  15.803 -0.1714  0.2027  0.2104
19523TIP3    H179984   5.317   6.690  15.888 -0.6817 -0.2035  0.4306
19523TIP3    H279985   5.239   6.590  15.806 -1.7646  2.1161 -1.4883
19524TIP3   OH279986   3.328   1.470  13.962  0.1075 -0.1423 -0.1388
19524TIP3    H179987   3.383   1.465  13.883 -2.3868  2.9201 -2.3167
19524TIP3    H279988   3.322   1.563  13.982 -2.1808 -0.5447  1.5125
19525TIP3   OH279989   6.393   1.833  13.596 -0.0692  0.4587  0.0501
19525TIP3    H179990   6.422   1.900  13.534  0.0975 -0.8581 -1.3724
19525TIP3    H279991   6.307   1.864  13.626  0.0646  1.3688 -0.4660
19526TIP3   OH279992   2.235   4.497  13.582 -0.2520  0.0627 -0.3491
19526TIP3    H179993   2.273   4.429  13.638 -0.9351 -1.8989 -2.1032
19526TIP3    H279994   2.308   4.556  13.563  0.5830 -0.6287  0.5968
19527TIP3   OH279995   6.556   0.764  11.095  0.4564 -0.1353 -0.6913
19527TIP3    H179996   6.487   0.704  11.126  0.3191  1.2374  1.9460
19527TIP3    H279997   6.512   0.849  11.087  0.9645 -0.0296 -3.0626
19528TIP3   OH279998   4.755   3.941   3.306  0.0677  0.0311 -0.0828
19528TIP3    H179999   4.789   4.020   3.262  1.9688 -1.0886 -0.7441
19528TIP3    H280000   4.817   3.925   3.377 -1.1424 -0.0621  0.9894
19529TIP3   OH280001   0.724   2.433   1.965 -0.0943  0.1726 -0.3082
19529TIP3    H180002   0.757   2.509   2.012  3.1645 -0.0683 -1.9048
19529TIP3    H280003   0.684   2.468   1.886 -1.4461  0.3176  0.4050
19530TIP3   OH280004   1.139   0.856   1.143 -0.0716  0.3143  0.2959
19530TIP3    H180005   1.149   0.856   1.048 -2.2035  0.5315  0.0182
19530TIP3    H280006   1.222   0.821   1.176  1.0363  0.9920 -1.5813
19531TIP3   OH280007   4.462   1.681   0.121 -0.1220  0.2370 -0.0035
19531TIP3    H180008   4.481   1.632   0.041 -0.6245 -2.7994  1.5955
19531TIP3    H280009   4.547   1.712   0.152  0.1463  0.9039 -1.3300
19532TIP3   OH280010   4.352   3.677  14.764  0.5483  0.3092  0.3527
19532TIP3    H180011   4.341   3.749  14.702 -1.5367  0.7488  1.1301
19532TIP3    H280012   4.415   3.709  14.829 -0.5225  1.5748  0.8186
19533TIP3   OH280013   0.864   1.846  13.246  0.0769  0.3572  0.7517
19533TIP3    H180014   0.869   1.753  13.222 -0.2591  0.7826 -1.1183
19533TIP3    H280015   0.941   1.885  13.205 -0.1574  1.0288  0.9479
19534TIP3   OH280016   1.440   2.183  15.934 -0.0577  0.0592  0.1903
19534TIP3    H180017   1.477   2.213  15.851  1.7614 -1.0821  0.5214
19534TIP3    H280018   1.358   2.140  15.910 -1.8093  3.4885 -0.4698
19535TIP3   OH280019   4.589   0.331  11.093 -0.5552 -0.3197 -0.2770
19535TIP3    H180020   4.636   0.313  11.174  0.8970  1.3274 -0.6942
19535TIP3    H280021   4.656   0.326  11.025 -1.7115 -1.4773 -1.3801
19536TIP3   OH280022   4.335   6.397  15.427 -0.2171 -0.2220  0.1097
19536TIP3    H180023   4.429   6.393  15.407 -0.3437 -1.1105 -0.3596
19536TIP3    H280024   4.294   6.353  15.353 -1.0411  0.5466  0.1009
19537TIP3   OH280025   2.974   5.738   3.458 -0.7388  0.1482  0.2898
19537TIP3    H180026   2.892   5.692   3.478 -0.9950  0.6205  0.3229
19537TIP3    H280027   2.948   5.828   3.443 -0.2430  0.2645  0.1279
19538TIP3   OH280028   3.744   0.018  15.009 -0.4055 -0.0554  0.0938
19538TIP3    H180029   3.654   0.048  15.020 -0.5888 -0.9954  1.4268
19538TIP3    H280030   3.795   0.066  15.074 -0.1019 -0.1826 -0.0418
19539TIP3   OH280031   5.403   2.344  13.808  0.6206 -0.4242 -0.0045
19539TIP3    H180032   5.453   2.421  13.835  1.3469 -0.6720 -0.6082
19539TIP3    H280033   5.467   2.288  13.764 -0.1380 -0.8555 -0.5872
19540TIP3   OH280034   4.629   0.955  11.154 -0.5738  0.3076 -0.0045
19540TIP3    H180035   4.579   0.919  11.081  1.0617 -0.5543 -0.7492
19540TIP3    H280036   4.682   1.024  11.115 -0.3203  0.4200  0.5335
19541TIP3   OH280037   3.070   3.265  12.451 -0.1511 -0.4053  0.7047
19541TIP3    H180038   3.051   3.344  12.501  0.8860  0.4849 -0.2554
19541TIP3    H280039   2.988   3.246  12.405  0.4009  2.0436 -1.5812
19542TIP3   OH280040   2.292   0.258   6.094  0.0900 -0.1187 -0.1807
19542TIP3    H180041   2.279   0.171   6.056 -0.2659  0.3899 -1.2615
19542TIP3    H280042   2.287   0.244   6.188 -0.3324 -1.2116 -0.3525
19543TIP3   OH280043   2.841   2.832   3.822 -0.0980 -0.6229 -0.4243
19543TIP3    H180044   2.763   2.862   3.868  0.2118 -0.7597  0.1985
19543TIP3    H280045   2.901   2.803   3.891  0.0584 -1.6048 -0.9447
19544TIP3   OH280046   5.375   6.393   3.699 -0.4888  0.6727  0.4399
19544TIP3    H180047   5.352   6.484   3.679 -0.1901  0.5037 -0.7091
19544TIP3    H280048   5.458   6.399   3.746  0.3503  0.9133 -1.0402
19545TIP3   OH280049   2.695   4.411  14.039  0.2656 -0.5239 -0.3529
19545TIP3    H180050   2.653   4.438  13.958  0.9605 -0.7659 -0.7989
19545TIP3    H280051   2.686   4.486  14.097 -3.8515 -1.6553  0.8235
19546TIP3   OH280052   4.851   2.751   5.201 -0.2335  0.1671  0.2281
19546TIP3    H180053   4.763   2.787   5.208 -0.8140 -1.1144 -0.2487
19546TIP3    H280054   4.875   2.729   5.292 -0.4973  0.3012  0.3312
19547TIP3   OH280055   2.047   0.438   1.391 -0.8168 -0.5333 -0.2867
19547TIP3    H180056   2.036   0.484   1.474 -0.8867 -1.4232  0.2103
19547TIP3    H280057   2.133   0.465   1.359  0.5015 -2.3516  1.5007
19548TIP3   OH280058   2.454   5.897  11.879 -0.0767  0.0336  0.0095
19548TIP3    H180059   2.416   5.816  11.912  0.2034 -1.4358 -2.9355
19548TIP3    H280060   2.548   5.882  11.879 -0.0220  0.3291 -0.6008
19549TIP3   OH280061   0.368   5.895   2.079 -0.0396  0.6958 -0.2103
19549TIP3    H180062   0.403   5.943   2.005 -3.2525 -1.8551 -3.7857
19549TIP3    H280063   0.290   5.944   2.105 -1.1218 -0.3848 -1.2712
19550TIP3   OH280064   1.061   6.224   0.327  0.4235  0.2491 -0.4811
19550TIP3    H180065   0.997   6.161   0.294 -0.5512  1.8752 -1.9028
19550TIP3    H280066   1.039   6.234   0.420 -1.0650  0.3407 -0.8161
19551TIP3   OH280067   2.246   0.613  10.967  0.1206 -0.0003 -0.3307
19551TIP3    H180068   2.166   0.588  11.013 -0.6371  0.3317 -1.4118
19551TIP3    H280069   2.315   0.561  11.008 -0.4352  0.6016  1.4372
19552TIP3   OH280070   1.778   5.092  14.791 -0.4208  0.2287  0.1488
19552TIP3    H180071   1.810   5.181  14.776 -1.9141  0.6339 -0.8319
19552TIP3    H280072   1.791   5.047  14.707  1.3316 -0.8544  0.9303
19553TIP3   OH280073   1.554   1.584   4.029 -0.2565 -0.4322  0.1767
19553TIP3    H180074   1.564   1.644   3.955 -1.0011  0.2035  0.5687
19553TIP3    H280075   1.518   1.504   3.990 -0.6281 -0.1090 -0.1648
19554TIP3   OH280076   1.357   3.211  11.051  0.0104  0.2480 -0.2815
19554TIP3    H180077   1.320   3.161  10.977 -0.3202 -0.7059  0.5101
19554TIP3    H280078   1.449   3.221  11.028  0.4176 -1.9674  0.1555
19555TIP3   OH280079   2.284   2.726   2.160 -0.0251  0.0196 -0.0941
19555TIP3    H180080   2.335   2.787   2.106 -0.3001  0.1082 -0.2545
19555TIP3    H280081   2.340   2.709   2.236 -0.5695  1.6834  0.7283
19556TIP3   OH280082   0.709   1.572   2.988 -0.6825 -0.3030  0.0026
19556TIP3    H180083   0.649   1.642   2.961 -2.3102 -2.0953 -1.2862
19556TIP3    H280084   0.730   1.525   2.908  1.7752 -0.3083  0.5767
19557TIP3   OH280085   3.128   5.589   2.969 -0.1063  0.7192 -0.2422
19557TIP3    H180086   3.164   5.630   2.891 -0.5439  2.1505  0.2786
19557TIP3    H280087   3.118   5.497   2.945  3.4578  0.2883 -0.5428
19558TIP3   OH280088   4.757   0.121  15.505 -0.2894 -0.5354 -0.0202
19558TIP3    H180089   4.740   0.206  15.464 -0.4580 -0.7517 -0.4035
19558TIP3    H280090   4.853   0.113  15.504 -0.0920  0.7142  2.2003
19559TIP3   OH280091   3.434   1.011  12.722  0.0061 -0.7368 -0.5554
19559TIP3    H180092   3.363   1.019  12.658  0.2622  0.3228 -0.7201
19559TIP3    H280093   3.433   0.919  12.747  0.9846 -1.6132 -3.3671
19560TIP3   OH280094   3.031   4.404   0.770 -0.2685 -0.4588 -0.4779
19560TIP3    H180095   2.956   4.441   0.722 -0.3769  0.8548  0.6169
19560TIP3    H280096   2.993   4.335   0.824 -0.4591 -0.6859 -0.8957
19561TIP3   OH280097   5.778   4.817  11.168 -0.3802  0.6427  0.0599
19561TIP3    H180098   5.767   4.911  11.180  0.8382  0.6801  1.0904
19561TIP3    H280099   5.730   4.778  11.241  1.0119  0.5814  0.9796
19562TIP3   OH280100   5.320   4.245   5.666  0.2299  0.2636 -0.6412
19562TIP3    H180101   5.333   4.257   5.572 -1.2627  0.7417 -0.8125
19562TIP3    H280102   5.336   4.152   5.681  0.9419  0.2799 -1.2866
19563TIP3   OH280103   5.404   5.656  11.241  0.1625 -0.2997  0.2917
19563TIP3    H180104   5.401   5.615  11.327  2.0644 -0.5896  0.2675
19563TIP3    H280105   5.477   5.614  11.196  0.7699  1.5311 -0.5705
19564TIP3   OH280106   3.844   6.620   2.683  0.1623 -0.8883  0.0886
19564TIP3    H180107   3.827   6.591   2.593  0.2416 -3.2651  0.7658
19564TIP3    H280108   3.757   6.628   2.723  0.0765  1.0338 -0.3931
19565TIP3   OH280109   3.323   1.615   3.275  0.1536  0.6436 -0.4630
19565TIP3    H180110   3.408   1.650   3.298 -0.6221  0.5256  3.0316
19565TIP3    H280111   3.334   1.520   3.278  0.3936  0.5768 -2.3169
19566TIP3   OH280112   2.711   3.699   0.859 -0.3473 -0.4117  0.3538
19566TIP3    H180113   2.703   3.607   0.835 -0.9960 -0.8068  1.9769
19566TIP3    H280114   2.772   3.701   0.932  0.5077  0.5971 -0.3481
19567TIP3   OH280115   2.028   0.264   2.947 -0.2600  0.0112  0.0790
19567TIP3    H180116   2.018   0.209   2.868  0.3323 -0.8284  0.5685
19567TIP3    H280117   2.029   0.201   3.019  0.7530  0.6397  0.6326
19568TIP3   OH280118   5.758   0.477  12.005  0.2304 -0.0876 -0.1605
19568TIP3    H180119   5.693   0.418  12.041 -1.1478  1.8098  0.6631
19568TIP3    H280120   5.814   0.500  12.080  0.2288  0.2771 -0.2653
19569TIP3   OH280121   5.085   4.072  10.686  0.1082 -0.2543 -0.0043
19569TIP3    H180122   5.133   4.001  10.645 -0.9570  0.0134 -1.8153
19569TIP3    H280123   5.072   4.136  10.616 -2.1568  0.0309  0.5966
19570TIP3   OH280124   5.316   4.011  14.509  0.1882  0.1194  0.0556
19570TIP3    H180125   5.397   4.023  14.459  0.4544 -2.3810 -0.2093
19570TIP3    H280126   5.345   3.968  14.590 -0.6750  0.9113  0.8079
19571TIP3   OH280127   1.342   0.003   0.722 -0.1974 -0.1137 -0.0589
19571TIP3    H180128   1.324  -0.081   0.763 -0.0068 -0.3263 -0.4035
19571TIP3    H280129   1.354  -0.017   0.629 -1.0409  0.4195 -0.2983
19572TIP3   OH280130   1.354   3.251   2.161 -0.5280 -0.8600  0.0897
19572TIP3    H180131   1.315   3.213   2.240 -0.4639 -1.2195 -0.0508
19572TIP3    H280132   1.324   3.342   2.161 -3.2294 -1.6279 -1.1565
19573TIP3   OH280133   6.099   0.824  16.755 -0.6958  0.3344  0.0937
19573TIP3    H180134   6.068   0.875  16.680 -0.4385  2.4025  1.3017
19573TIP3    H280135   6.032   0.835  16.822  1.0941  2.4319  1.7186
19574TIP3   OH280136   2.216   3.576  16.848  0.3276  0.9860 -0.2412
19574TIP3    H180137   2.169   3.649  16.888 -0.6625 -0.2551  0.9689
19574TIP3    H280138   2.149   3.509  16.835  1.4540 -0.2357  0.0170
19575TIP3   OH280139   3.514   3.765   6.334 -0.2726 -0.0704  0.7720
19575TIP3    H180140   3.533   3.792   6.424 -1.7285  0.0858  1.0718
19575TIP3    H280141   3.590   3.793   6.283  1.7577 -2.3892  2.3279
19576TIP3   OH280142   3.345   0.239  14.207  0.7738  0.4373  0.0562
19576TIP3    H180143   3.396   0.202  14.134  0.6756 -0.2689  0.3438
19576TIP3    H280144   3.257   0.203  14.195  0.8073  0.1549  0.6380
19577TIP3   OH280145   5.184   1.410   0.709 -0.6139  0.3292  0.3172
19577TIP3    H180146   5.164   1.364   0.628  0.4967 -1.3199  0.9250
19577TIP3    H280147   5.120   1.377   0.772 -0.4742  0.3872  0.4916
19578TIP3   OH280148   6.119   3.552  11.097  0.5868  0.2612 -0.3296
19578TIP3    H180149   6.178   3.480  11.117 -0.4065 -0.1259  1.3815
19578TIP3    H280150   6.140   3.619  11.162 -1.7012 -0.4168  1.2495
19579TIP3   OH280151   2.170   0.949  16.159 -0.1883 -0.4979  0.6407
19579TIP3    H180152   2.170   0.980  16.249 -0.2577  2.3876 -0.2505
19579TIP3    H280153   2.078   0.930  16.141 -0.3839  0.2745  0.7821
19580TIP3   OH280154   2.049   4.877  14.997 -0.1569 -0.7075  0.6374
19580TIP3    H180155   2.139   4.865  15.024 -0.5831 -0.4506  2.2691
19580TIP3    H280156   2.055   4.921  14.912  1.2440 -1.3590  0.3780
19581TIP3   OH280157   3.645   4.042   2.034  0.0212 -0.2223  0.5282
19581TIP3    H180158   3.596   4.082   2.105  1.2236 -1.0974  1.8927
19581TIP3    H280159   3.675   3.959   2.069  2.2207  0.1381 -0.3551
19582TIP3   OH280160   1.237   3.110  15.362  0.5077 -0.4542 -0.1344
19582TIP3    H180161   1.285   3.089  15.442  1.1711 -1.9561 -0.8901
19582TIP3    H280162   1.244   3.205  15.355  0.4805 -0.2880  1.5518
19583TIP3   OH280163   4.813   0.626  12.502  0.2113 -0.2675  0.0666
19583TIP3    H180164   4.756   0.702  12.493 -0.0276 -0.2110  1.7804
19583TIP3    H280165   4.900   0.663  12.516  0.0509 -0.2862  1.1792
19584TIP3   OH280166   5.565   6.293   1.076 -0.1939  0.0122 -0.7319
19584TIP3    H180167   5.608   6.340   1.147  0.0307 -0.2116 -0.7163
19584TIP3    H280168   5.503   6.234   1.119 -0.6658  0.4821 -0.7644
19585TIP3   OH280169   3.994   1.734   1.719 -0.1464  0.0736  0.0675
19585TIP3    H180170   3.983   1.806   1.657 -1.5848 -0.2373 -0.0731
19585TIP3    H280171   4.075   1.691   1.692 -1.2975 -0.7535 -2.3698
19586TIP3   OH280172   5.839   4.644  12.436 -0.2709 -0.3136 -0.4716
19586TIP3    H180173   5.857   4.675  12.525  2.1616  0.7457 -1.2564
19586TIP3    H280174   5.871   4.554  12.434  0.5704 -0.0167 -0.5315
19587TIP3   OH280175   1.456   1.747  13.530 -0.0804  0.4221  1.1285
19587TIP3    H180176   1.459   1.784  13.442 -2.0907 -0.1676  0.7784
19587TIP3    H280177   1.411   1.813  13.582  0.8559  0.6454  1.6842
19588TIP3   OH280178   2.589   1.567   3.684  0.1721  0.3994 -0.3385
19588TIP3    H180179   2.653   1.631   3.715 -3.4023  3.7045  1.0338
19588TIP3    H280180   2.581   1.504   3.756  1.9530 -0.2643 -0.6663
19589TIP3   OH280181   2.053   2.075   5.480 -0.2715  0.2035 -0.7525
19589TIP3    H180182   2.113   2.108   5.413 -2.4900  2.0994 -1.9734
19589TIP3    H280183   1.975   2.050   5.431 -1.5060  0.4467  0.9977
19590TIP3   OH280184   2.363   6.247  12.551  0.6446  0.0818 -0.5045
19590TIP3    H180185   2.442   6.295  12.576  0.4938  1.2400 -2.1104
19590TIP3    H280186   2.294   6.287  12.604  1.2308 -1.7522  1.8282
19591TIP3   OH280187   1.024   3.579   3.168  0.1243  0.1266  0.1169
19591TIP3    H180188   0.952   3.640   3.184  0.5568  0.7340 -0.2162
19591TIP3    H280189   1.085   3.595   3.240 -0.0599 -0.3685  0.3843
19592TIP3   OH280190   6.218   4.988   2.252  0.6917 -0.2091 -0.1591
19592TIP3    H180191   6.234   5.060   2.190  0.0266 -1.7961 -2.2859
19592TIP3    H280192   6.182   4.918   2.198 -0.6277 -1.4506  2.1794
19593TIP3   OH280193   4.022   1.836  15.965  0.0388  0.9209  0.1989
19593TIP3    H180194   4.057   1.925  15.956 -0.8054  1.1667 -0.8694
19593TIP3    H280195   4.044   1.793  15.883 -2.8295  1.3603 -0.9213
19594TIP3   OH280196   6.725   4.126  14.836  0.6338  0.0746 -0.1054
19594TIP3    H180197   6.819   4.116  14.846  0.3068 -2.8937  0.9493
19594TIP3    H280198   6.705   4.082  14.753  0.0356 -0.6374  0.4059
19595TIP3   OH280199   6.302   5.109   0.989 -0.2859  0.0300 -1.0082
19595TIP3    H180200   6.329   5.149   0.907 -0.9604  1.3888 -0.6000
19595TIP3    H280201   6.269   5.023   0.964  0.2007  0.1296 -2.0542
19596TIP3   OH280202   5.192   6.525   2.845  0.0639  0.4339  0.0084
19596TIP3    H180203   5.277   6.540   2.885  0.2163  1.6552 -0.7086
19596TIP3    H280204   5.195   6.574   2.762 -0.2031 -2.0618 -1.5731
19597TIP3   OH280205   2.403   1.219  16.817 -0.0506 -0.5735  0.1885
19597TIP3    H180206   2.431   1.163  16.745  0.0869 -1.1019  0.6409
19597TIP3    H280207   2.364   1.295  16.775 -0.8976 -1.3338 -0.4462
19598TIP3   OH280208   2.484   6.245  11.521  0.2777 -0.1873  0.1221
19598TIP3    H180209   2.519   6.176  11.465  0.0741  0.4010 -0.7488
19598TIP3    H280210   2.500   6.215  11.610  3.1167  0.1094 -0.2134
19599TIP3   OH280211   6.280   2.733  16.689 -0.1507  0.2222 -0.0840
19599TIP3    H180212   6.256   2.750  16.781 -1.9322  2.1500 -0.8169
19599TIP3    H280213   6.321   2.646  16.690  0.2724  0.3634  2.5801
19600TIP3   OH280214   2.010   0.829  15.188 -0.1844 -0.8260 -0.5794
19600TIP3    H180215   2.066   0.803  15.115  0.6498  1.5546 -0.8823
19600TIP3    H280216   1.921   0.830  15.152  0.2303  0.4371 -1.6466
19601TIP3   OH280217   5.068   5.037   0.400 -0.4517  0.0961  0.2871
19601TIP3    H180218   5.129   5.108   0.382 -0.1821  0.1416  1.3244
19601TIP3    H280219   5.024   5.022   0.317 -0.0696  1.0582 -0.1057
19602TIP3   OH280220   4.385   1.007  16.137 -0.4573  0.4967 -0.0008
19602TIP3    H180221   4.419   0.945  16.074  1.1676  1.9539 -0.6465
19602TIP3    H280222   4.371   1.088  16.087 -3.1383  0.5270  0.6564
19603TIP3   OH280223   5.656   6.278   0.595 -0.5019 -0.1485  0.1736
19603TIP3    H180224   5.602   6.355   0.613  1.3693  1.4176 -0.4170
19603TIP3    H280225   5.728   6.285   0.658  0.5174 -0.5098 -0.9138
19604TIP3   OH280226   5.686   5.218  13.831 -0.3041 -0.3880 -0.0157
19604TIP3    H180227   5.647   5.291  13.879 -0.8671  0.7202 -2.0792
19604TIP3    H280228   5.778   5.243  13.820 -0.5466  0.1251 -0.9118
19605TIP3   OH280229   5.051   5.501   5.230 -0.2536 -0.1093 -0.8796
19605TIP3    H180230   5.092   5.567   5.174  0.3243 -0.6658 -1.1125
19605TIP3    H280231   5.123   5.449   5.264 -0.4421  0.9374  1.3741
19606TIP3   OH280232   0.446   5.293  11.681  0.1145  0.4347 -0.2400
19606TIP3    H180233   0.443   5.222  11.744 -1.3376 -0.3711 -1.1684
19606TIP3    H280234   0.361   5.337  11.690 -0.2130  0.1681 -1.7613
19607TIP3   OH280235   5.579   1.314   1.412  0.1635 -0.4842 -0.2336
19607TIP3    H180236   5.654   1.363   1.377 -0.3452  0.3999 -0.1209
19607TIP3    H280237   5.562   1.355   1.497  0.0497 -1.2059  0.0941
19608TIP3   OH280238   5.184   0.740  15.167  0.2509  0.3388  0.0929
19608TIP3    H180239   5.132   0.679  15.115 -0.7615  1.1092  0.1673
19608TIP3    H280240   5.186   0.820  15.115  2.1064  0.0707 -0.3011
19609TIP3   OH280241   0.061   3.217  12.907  0.1787  0.5115  0.2179
19609TIP3    H180242  -0.032   3.203  12.893 -0.3048  2.6337  0.9201
19609TIP3    H280243   0.091   3.263  12.828  0.2183  1.4173  0.7502
19610TIP3   OH280244   2.682   5.331   0.268 -0.6929  0.0159 -0.1622
19610TIP3    H180245   2.644   5.257   0.315 -0.4177  0.0093  0.0492
19610TIP3    H280246   2.666   5.312   0.176  0.5085 -0.9386 -0.1948
19611TIP3   OH280247   5.884   4.953   4.927 -0.1548  0.0791 -0.0483
19611TIP3    H180248   5.884   4.998   4.843  2.7205  1.7734  0.7091
19611TIP3    H280249   5.795   4.966   4.961 -0.9799  0.4981 -2.2233
19612TIP3   OH280250   6.649   3.371   3.396 -0.2912  0.4473 -0.0489
19612TIP3    H180251   6.692   3.297   3.440  0.3365 -0.3222 -1.8349
19612TIP3    H280252   6.562   3.338   3.374  0.3961 -0.3101 -1.9453
19613TIP3   OH280253   0.049   3.543  11.561 -0.8314  0.2041 -0.3147
19613TIP3    H180254   0.136   3.536  11.523 -0.1019  1.5610  1.0013
19613TIP3    H280255   0.010   3.621  11.520 -1.4320 -0.3782 -0.8772
19614TIP3   OH280256   3.028   2.610  13.849  0.4069  0.3807 -0.1049
19614TIP3    H180257   3.011   2.676  13.782  0.1156  0.2909 -0.1198
19614TIP3    H280258   3.119   2.585  13.835  0.0821 -0.2972 -1.0510
19615TIP3   OH280259   6.786   2.666   2.145  0.1765 -0.1667  0.1293
19615TIP3    H180260   6.795   2.579   2.106 -0.5503 -0.8182  1.3629
19615TIP3    H280261   6.854   2.671   2.212 -1.7839 -1.1231  2.3456
19616TIP3   OH280262   2.745   0.150  13.711  0.2917 -0.0274 -0.5716
19616TIP3    H180263   2.673   0.206  13.681  0.5325  0.3139 -0.5112
19616TIP3    H280264   2.810   0.211  13.746  1.6199 -0.1654 -2.6767
19617TIP3   OH280265   4.033   6.087  15.569  0.4279 -0.3676 -0.3328
19617TIP3    H180266   3.954   6.116  15.524 -0.0925 -1.1562  0.0495
19617TIP3    H280267   4.104   6.101  15.506 -0.1532 -0.5782 -1.0343
19618TIP3   OH280268   3.519   0.985   5.659  0.1528  0.0371  0.0726
19618TIP3    H180269   3.483   1.072   5.644 -0.1243  0.0093  0.5632
19618TIP3    H280270   3.498   0.965   5.750 -0.5852 -0.9231 -0.2828
19619TIP3   OH280271   3.305   6.421  15.870  0.5083 -0.1225  0.5764
19619TIP3    H180272   3.212   6.401  15.859  0.9998 -1.3730 -2.7532
19619TIP3    H280273   3.338   6.350  15.925  0.0018 -1.7434 -1.0655
19620TIP3   OH280274   5.347   0.054   3.800 -0.1860  0.0330 -0.3299
19620TIP3    H180275   5.299   0.098   3.730 -0.3000 -1.0133 -0.9317
19620TIP3    H280276   5.335   0.110   3.877 -1.8005  0.1458 -0.6343
19621TIP3   OH280277   4.450   2.751  11.132  0.2452  0.2972 -0.4610
19621TIP3    H180278   4.518   2.766  11.198  2.3936  0.8713 -2.6817
19621TIP3    H280279   4.400   2.832  11.129  0.3477  0.3895  0.1650
19622TIP3   OH280280   4.906   5.199  15.932 -0.9230  0.0330  0.2853
19622TIP3    H180281   4.881   5.230  15.845 -0.4932 -0.4532 -0.0218
19622TIP3    H280282   4.914   5.279  15.984 -3.1186  0.2203  0.4322
19623TIP3   OH280283   4.753   0.534  13.726 -0.3470 -0.3785  0.2193
19623TIP3    H180284   4.775   0.549  13.819  0.5946  0.3058 -0.0946
19623TIP3    H280285   4.681   0.594  13.709  0.2563  0.3624  0.2159
19624TIP3   OH280286   4.440   4.755   3.972  0.5682  0.1415  0.0847
19624TIP3    H180287   4.421   4.783   4.061 -0.3304 -1.2993  0.3786
19624TIP3    H280288   4.429   4.660   3.973 -1.0687  0.2254 -1.9174
19625TIP3   OH280289   4.962   0.106   5.519 -0.3377 -0.7024  0.5019
19625TIP3    H180290   4.938   0.082   5.609 -0.1650 -0.5904  0.5786
19625TIP3    H280291   4.897   0.062   5.465 -0.6671 -0.4739  0.7025
19626TIP3   OH280292   0.602   0.698  11.726  0.1278 -0.3355  0.4642
19626TIP3    H180293   0.508   0.694  11.744 -0.2235  0.1341 -1.0746
19626TIP3    H280294   0.626   0.608  11.706 -0.3585 -0.2316 -0.6812
19627TIP3   OH280295   3.572   6.406   4.668  0.2767 -0.8845 -0.1995
19627TIP3    H180296   3.653   6.410   4.616 -0.6964  0.0258 -1.7186
19627TIP3    H280297   3.518   6.341   4.624 -0.2173 -0.7494  0.1957
19628TIP3   OH280298   5.837   4.040   5.118 -0.1835  0.0759 -0.3878
19628TIP3    H180299   5.866   4.035   5.210  0.5054  0.9622 -0.5432
19628TIP3    H280300   5.744   4.018   5.121 -0.5664  1.6839  0.7550
19629TIP3   OH280301   2.757   0.419  11.503  0.1809  0.0213 -0.5758
19629TIP3    H180302   2.683   0.405  11.563  1.9079  1.5238  2.1385
19629TIP3    H280303   2.764   0.514  11.496  1.8102 -0.0910 -0.7851
19630TIP3   OH280304   3.394   5.080  16.086 -0.1338  1.1526 -0.6160
19630TIP3    H180305   3.479   5.125  16.082  0.6077  0.2674  2.5622
19630TIP3    H280306   3.329   5.150  16.083  0.8089  2.0533 -0.5603
19631TIP3   OH280307   0.237   2.385  11.675  0.5993  0.1677 -0.0675
19631TIP3    H180308   0.264   2.448  11.608  0.5258  0.9387  0.6111
19631TIP3    H280309   0.296   2.311  11.663  1.0687  0.6060 -0.5117
19632TIP3   OH280310   1.874   0.598   4.668 -0.5174 -0.3413  0.0613
19632TIP3    H180311   1.965   0.613   4.643 -0.7255 -0.9906 -1.2137
19632TIP3    H280312   1.878   0.534   4.738 -0.0006 -0.7150 -0.3028
19633TIP3   OH280313   1.178   4.930   5.466 -0.6295 -0.3212  0.1253
19633TIP3    H180314   1.246   4.863   5.457  0.8504  1.0082  1.0391
19633TIP3    H280315   1.226   5.013   5.469 -2.2776  0.6403  1.0368
19634TIP3   OH280316   1.616   6.201   3.597  0.5148 -0.4915  0.4872
19634TIP3    H180317   1.666   6.220   3.518 -1.3708  1.9371 -0.2352
19634TIP3    H280318   1.678   6.215   3.669  0.8864  2.8891 -0.3399
19635TIP3   OH280319   3.944   4.367   6.009  0.5144  0.3006 -0.2080
19635TIP3    H180320   3.931   4.457   5.980 -3.1753  0.1151  0.3596
19635TIP3    H280321   3.950   4.373   6.105  0.8323  0.0009 -0.2080
19636TIP3   OH280322   4.177   1.752   6.021  0.1355  0.4062  0.4767
19636TIP3    H180323   4.221   1.739   5.937 -0.7808  0.3405 -0.0035
19636TIP3    H280324   4.248   1.767   6.084  0.8333  0.2939 -0.2792
19637TIP3   OH280325   4.132   6.418   0.180 -0.1685 -0.0581  0.6756
19637TIP3    H180326   4.053   6.444   0.132  1.3839 -0.2590 -2.1990
19637TIP3    H280327   4.155   6.496   0.231 -0.9792  0.8074 -0.2303
19638TIP3   OH280328   3.322   4.103   3.658  0.0543  0.0805 -0.5112
19638TIP3    H180329   3.238   4.062   3.680  0.5929 -0.9513 -0.3298
19638TIP3    H280330   3.324   4.183   3.710 -1.1575  0.5190 -1.1103
19639TIP3   OH280331   5.584   0.768  15.688  0.1906  0.0949  0.3616
19639TIP3    H180332   5.643   0.765  15.613 -0.5456  1.9830 -0.3446
19639TIP3    H280333   5.532   0.688  15.681  1.0374 -0.4049 -0.3729
19640TIP3   OH280334   4.941   6.365   5.439  0.0024  0.2973 -0.1226
19640TIP3    H180335   4.974   6.440   5.489  1.3011  0.4076 -1.0918
19640TIP3    H280336   5.019   6.321   5.408 -0.7528 -0.1415 -1.5023
19641TIP3   OH280337   1.322   1.136  14.104  0.1325 -0.2178 -0.2950
19641TIP3    H180338   1.371   1.211  14.139 -0.4686  0.2543 -0.4563
19641TIP3    H280339   1.231   1.162  14.109 -0.2048 -1.4507  0.8789
19642TIP3   OH280340   2.810   3.439   2.479 -0.0823  0.2035 -0.3661
19642TIP3    H180341   2.860   3.395   2.410 -0.6733  1.1157 -1.3927
19642TIP3    H280342   2.759   3.369   2.520  0.8724 -0.4761 -0.3152
19643TIP3   OH280343   4.258   1.418  15.050  0.4051 -0.3663 -0.2983
19643TIP3    H180344   4.174   1.386  15.083  0.3084 -0.0650 -0.2492
19643TIP3    H280345   4.257   1.394  14.957  0.1723 -0.1718 -0.3468
19644TIP3   OH280346   5.078   3.158  16.370 -0.0349  0.3040 -0.9070
19644TIP3    H180347   5.163   3.148  16.412 -0.0266 -1.6430 -1.2659
19644TIP3    H280348   5.097   3.158  16.276 -0.4799 -2.0740 -1.0790
19645TIP3   OH280349   5.072   4.093   5.361 -0.0247 -0.3828 -0.0497
19645TIP3    H180350   5.001   4.083   5.424  0.6134 -0.6036  0.6451
19645TIP3    H280351   5.031   4.078   5.276 -0.3593 -2.9079  0.4871
19646TIP3   OH280352   1.150   5.173  11.783 -0.0589  0.1855  0.0718
19646TIP3    H180353   1.110   5.253  11.751 -2.9594 -0.7795  0.9562
19646TIP3    H280354   1.181   5.196  11.871 -1.4339  0.2563  0.5717
19647TIP3   OH280355   1.398   1.535  11.173  0.2041  0.1449 -0.5762
19647TIP3    H180356   1.481   1.520  11.128  0.8403  0.7069  0.3950
19647TIP3    H280357   1.422   1.561  11.261 -1.0212 -0.3076 -0.0839
19648TIP3   OH280358   3.002   3.189   3.311  0.3581  0.0586  0.0981
19648TIP3    H180359   2.925   3.229   3.352  1.7042  1.4844  1.3550
19648TIP3    H280360   3.039   3.134   3.380  0.9512  0.0687 -0.2069
19649TIP3   OH280361   3.121   3.811   5.847 -1.4074 -0.2737  0.2577
19649TIP3    H180362   3.134   3.888   5.792  1.1344 -0.6414  0.2231
19649TIP3    H280363   3.141   3.737   5.790  1.0262 -0.6719  1.5227
19650TIP3   OH280364   1.967   3.607  12.713  0.5574  0.0727  0.5632
19650TIP3    H180365   1.940   3.546  12.782 -0.7416  0.2535  0.2417
19650TIP3    H280366   1.995   3.686  12.760  0.3098 -0.0434  0.9055
19651TIP3   OH280367   2.932   4.828  16.022  0.1081 -0.0302  0.4731
19651TIP3    H180368   2.956   4.906  15.973  1.3559  1.0062  2.5767
19651TIP3    H280369   2.996   4.762  15.995  1.0786  0.6663  0.9668
19652TIP3   OH280370   5.476   2.266   1.183 -0.1054  0.3672  0.0908
19652TIP3    H180371   5.447   2.357   1.185 -0.1933  0.4348 -2.0854
19652TIP3    H280372   5.570   2.270   1.201 -0.2771  0.7742  0.9451
19653TIP3   OH280373   6.249   4.834  11.856 -0.3889 -0.4967  0.0459
19653TIP3    H180374   6.232   4.856  11.765  2.0641 -1.0668 -0.6298
19653TIP3    H280375   6.289   4.912  11.893 -1.4563 -0.2364  0.6966
19654TIP3   OH280376   3.769   6.470  14.646  0.4907 -0.4213  0.0854
19654TIP3    H180377   3.743   6.506  14.561  0.5721  0.2708  0.3504
19654TIP3    H280378   3.745   6.537  14.709 -1.2636 -1.6525  0.8336
19655TIP3   OH280379   2.858   2.249  15.283 -0.2037  0.2156 -0.5159
19655TIP3    H180380   2.871   2.178  15.346 -0.4613  0.6503  0.0323
19655TIP3    H280381   2.768   2.277  15.297  0.0340  0.9446 -0.4276
19656TIP3   OH280382   0.390   4.179  15.002  0.8292  0.2832 -0.0230
19656TIP3    H180383   0.335   4.159  14.927  0.2961 -0.2783  0.5056
19656TIP3    H280384   0.419   4.093  15.034  0.0440  0.4302  1.1416
19657TIP3   OH280385   1.708   3.327   2.305  0.2791  0.2330 -0.4138
19657TIP3    H180386   1.644   3.398   2.306  0.6614  0.7260 -3.5127
19657TIP3    H280387   1.722   3.307   2.398 -1.8154  2.3715  0.4670
19658TIP3   OH280388   5.637   2.858   6.319  0.8736  0.0450  0.0325
19658TIP3    H180389   5.584   2.850   6.239  0.9785 -2.1001  0.1153
19658TIP3    H280390   5.663   2.950   6.321 -0.4263  0.5062 -1.5686
19659TIP3   OH280391   5.325   0.481   2.313  0.2438 -0.4751 -0.0038
19659TIP3    H180392   5.309   0.537   2.237 -1.8648 -0.7003  0.2153
19659TIP3    H280393   5.334   0.393   2.276  0.8370 -0.3809 -0.1038
19660TIP3   OH280394   3.506   5.679   3.304 -0.1493 -0.0418 -0.2319
19660TIP3    H180395   3.601   5.685   3.318 -0.3862  1.4690  0.9742
19660TIP3    H280396   3.478   5.770   3.293 -1.2629 -0.5671 -2.2340
19661TIP3   OH280397   6.019   0.205   0.536 -0.2406  0.3014  0.1150
19661TIP3    H180398   6.016   0.145   0.461  1.7405 -0.0927  0.2972
19661TIP3    H280399   6.038   0.148   0.611  2.4138  1.1502  0.1863
19662TIP3   OH280400   4.721   5.943  16.114  0.3613 -0.3448  0.1709
19662TIP3    H180401   4.780   5.919  16.043 -2.0292  0.7215 -2.3726
19662TIP3    H280402   4.754   6.026  16.147 -0.1564  0.7209 -1.8579
19663TIP3   OH280403   0.459   2.554  10.685 -0.1936 -0.2151 -0.7145
19663TIP3    H180404   0.419   2.639  10.701 -0.8605 -0.7032  0.2728
19663TIP3    H280405   0.551   2.566  10.708 -0.6940 -0.3081  1.5508
19664TIP3   OH280406   1.433   3.593   6.159  0.3782 -0.2598  0.2751
19664TIP3    H180407   1.378   3.669   6.180 -0.2197 -0.9747  1.3631
19664TIP3    H280408   1.509   3.602   6.217  0.0324 -0.7892  0.8155
19665TIP3   OH280409   1.748   4.438   3.388  0.1327 -0.2565  0.0276
19665TIP3    H180410   1.799   4.385   3.327  0.0166 -0.4168  0.0714
19665TIP3    H280411   1.689   4.377   3.431 -1.1249  0.1489 -1.0589
19666TIP3   OH280412   5.769   4.504  16.618  0.1953  0.7081 -0.4924
19666TIP3    H180413   5.701   4.561  16.583  0.6163  0.8252 -1.1369
19666TIP3    H280414   5.771   4.524  16.712  1.3323  2.8802 -0.8866
19667TIP3   OH280415   3.585   4.152   5.408  0.0027 -0.4270  0.3572
19667TIP3    H180416   3.612   4.148   5.316  1.4101 -1.9674  0.7951
19667TIP3    H280417   3.648   4.210   5.450 -1.7750  1.8642  0.0522
19668TIP3   OH280418   3.590   0.631  14.775 -0.2401 -0.2175  0.1218
19668TIP3    H180419   3.502   0.594  14.768 -0.2980  0.1644 -1.5767
19668TIP3    H280420   3.577   0.725  14.761  0.4546 -0.1976 -0.4594
19669TIP3   OH280421   3.799   4.597   0.839  0.4835 -0.4015  0.0207
19669TIP3    H180422   3.789   4.673   0.783 -1.9080 -0.7649 -0.1506
19669TIP3    H280423   3.841   4.531   0.783 -0.8029 -0.3727 -1.0337
19670TIP3   OH280424   0.354   2.881   3.430 -0.4085  0.1653 -0.3184
19670TIP3    H180425   0.366   2.974   3.409 -2.1819  0.3626 -0.5843
19670TIP3    H280426   0.262   2.873   3.453 -0.4872 -1.6894 -1.1140
19671TIP3   OH280427   4.718   2.675  14.226  0.3734  0.2596  0.6020
19671TIP3    H180428   4.648   2.722  14.272  1.3805  2.6181 -0.1358
19671TIP3    H280429   4.772   2.744  14.188  1.7064 -1.5449 -0.9482
19672TIP3   OH280430   4.153   6.352  13.714  0.4676 -0.3360 -0.0757
19672TIP3    H180431   4.167   6.414  13.786 -0.2487 -2.1481  1.7270
19672TIP3    H280432   4.082   6.391  13.663 -0.7752 -0.1409  1.6867
19673TIP3   OH280433   1.313   3.944  14.394  0.4936  0.3035  0.5014
19673TIP3    H180434   1.280   3.950  14.483  0.3372 -1.6813  0.6004
19673TIP3    H280435   1.315   4.035  14.363 -0.0529  0.9509  2.2881
19674TIP3   OH280436   6.029   4.540  16.499 -0.7495  0.3007  0.2900
19674TIP3    H180437   5.991   4.576  16.418  0.1799 -0.7712 -0.6533
19674TIP3    H280438   5.953   4.511  16.550 -1.3011 -0.2354 -0.7976
19675TIP3   OH280439   1.148   4.793  13.881  0.3417  0.4288 -0.0156
19675TIP3    H180440   1.127   4.705  13.849 -0.2118  0.3642  0.4926
19675TIP3    H280441   1.075   4.848  13.851  0.4785  0.6285  0.0156
19676TIP3   OH280442   3.302   1.970  14.328  0.1250  0.3175  0.3454
19676TIP3    H180443   3.278   2.046  14.276  2.0024  0.2077 -0.7584
19676TIP3    H280444   3.218   1.934  14.359 -0.8625  1.9769 -0.2959
19677TIP3   OH280445   5.123   3.955   0.187 -0.2761  0.1909  0.2367
19677TIP3    H180446   5.054   3.946   0.252 -0.7819  2.2137  0.0577
19677TIP3    H280447   5.181   3.881   0.203 -2.2202 -1.3346  0.6787
19678TIP3   OH280448   2.355   4.401  16.830  0.2674 -0.2838 -0.3067
19678TIP3    H180449   2.382   4.391  16.921  1.7136 -0.5436 -0.7475
19678TIP3    H280450   2.266   4.436  16.836 -0.0748 -1.2888  1.1992
19679TIP3   OH280451   5.215   2.862   0.375  0.1173 -0.0131  0.4458
19679TIP3    H180452   5.191   2.822   0.291  1.8620  0.2356 -0.2065
19679TIP3    H280453   5.216   2.956   0.357 -2.6568  0.3556  1.6338
19680TIP3   OH280454   0.904   1.311   6.518 -0.3289  0.3448 -0.2366
19680TIP3    H180455   0.890   1.217   6.506  2.0986  0.0288 -1.0600
19680TIP3    H280456   0.837   1.337   6.582 -3.2133 -1.2308 -2.4025
19681TIP3   OH280457   5.197   6.287  11.689 -0.1444 -0.5163  0.8708
19681TIP3    H180458   5.115   6.308  11.646  0.2695 -1.9935 -0.7724
19681TIP3    H280459   5.174   6.276  11.782 -1.3900  1.0530  0.7768
19682TIP3   OH280460   0.296   3.525   2.066 -0.6784  0.3440  0.3646
19682TIP3    H180461   0.372   3.580   2.081 -1.4701  1.3606  0.7809
19682TIP3    H280462   0.255   3.562   1.988 -0.3729 -0.6403 -0.2850
19683TIP3   OH280463   2.869   0.137   3.439  0.3183  0.1278 -0.0499
19683TIP3    H180464   2.819   0.082   3.499 -2.1703  0.7240 -1.4445
19683TIP3    H280465   2.833   0.225   3.450  1.5497  0.7443 -0.6449
19684TIP3   OH280466   2.271   1.933  16.508  0.5695  0.3466 -0.0199
19684TIP3    H180467   2.243   1.952  16.598 -0.2989  0.3559 -0.2868
19684TIP3    H280468   2.196   1.955  16.454  1.0190  0.1536 -0.7405
19685TIP3   OH280469   5.215   6.787  15.269  0.7499  0.8286 -0.1015
19685TIP3    H180470   5.223   6.763  15.362  2.0512 -1.8269 -0.8158
19685TIP3    H280471   5.182   6.709  15.227 -1.2025  2.4384 -1.7532
19686TIP3   OH280472   4.032   3.734   6.165  0.4137 -0.2699  0.2327
19686TIP3    H180473   4.099   3.681   6.209  0.6730 -0.6965 -0.6652
19686TIP3    H280474   4.071   3.758   6.081  0.5552  1.9167  0.8633
19687TIP3   OH280475   0.791   1.117   2.698  0.2701 -0.9101 -0.5467
19687TIP3    H180476   0.780   1.109   2.603 -0.6624 -1.7746 -0.3801
19687TIP3    H280477   0.847   1.043   2.721  0.4938 -0.7013 -0.4149
19688TIP3   OH280478   0.265   1.546  12.484 -0.1252 -0.5323  0.3271
19688TIP3    H180479   0.295   1.456  12.498 -0.2242 -0.4998  0.7603
19688TIP3    H280480   0.294   1.593  12.562 -1.1058 -0.4463  0.6493
19689TIP3   OH280481   6.558   5.947  11.741  0.1492 -0.0716  0.0878
19689TIP3    H180482   6.611   6.015  11.700 -0.5800  0.2570 -0.3247
19689TIP3    H280483   6.507   5.993  11.808  0.3349 -0.3720  0.4377
19690TIP3   OH280484   3.529   0.906   3.979 -0.0405  0.4523 -0.6038
19690TIP3    H180485   3.511   0.963   4.053  1.2058 -0.0303  0.1180
19690TIP3    H280486   3.550   0.965   3.907 -3.0175  0.9800 -1.1348
19691TIP3   OH280487   5.992   4.616   5.734  0.2253 -0.6395  0.4484
19691TIP3    H180488   6.077   4.659   5.725  0.1840 -0.8092 -0.9892
19691TIP3    H280489   6.012   4.523   5.723 -0.1497 -0.6685 -0.0098
19692TIP3   OH280490   2.299   4.057  13.070  0.1726 -0.0099 -0.3779
19692TIP3    H180491   2.293   3.998  13.145 -0.6463 -0.0738 -0.4891
19692TIP3    H280492   2.290   4.145  13.108 -2.7328 -0.1150 -0.6143
19693TIP3   OH280493   0.039   1.400   1.794  0.3127 -0.3066 -0.1608
19693TIP3    H180494   0.096   1.449   1.852  1.7661  0.1441 -1.8967
19693TIP3    H280495   0.007   1.465   1.731 -2.5665 -0.4308  1.0080
19694TIP3   OH280496   1.471   3.795   5.935  0.0660  0.4871 -0.3152
19694TIP3    H180497   1.397   3.778   5.994  0.4930  0.5326  0.2335
19694TIP3    H280498   1.549   3.786   5.990  0.5033 -0.0968 -1.0109
19695TIP3   OH280499   0.068   0.481  16.594 -0.5103 -0.4848  0.0486
19695TIP3    H180500   0.032   0.403  16.554  1.7900 -1.6417  0.0469
19695TIP3    H280501   0.130   0.515  16.529 -0.7580  0.7890  0.4451
19696TIP3   OH280502   6.056   1.816   2.847 -0.2870 -0.3041  0.4445
19696TIP3    H180503   6.089   1.803   2.936  0.5642 -0.2499  0.1469
19696TIP3    H280504   6.027   1.908   2.846 -1.0647 -0.5333  0.8961
19697TIP3   OH280505   5.404   3.569   4.646  0.5394 -0.9726 -0.0365
19697TIP3    H180506   5.355   3.650   4.630 -0.2385 -1.1490  1.2990
19697TIP3    H280507   5.458   3.589   4.722  1.2986 -1.3253 -0.4719
19698TIP3   OH280508   3.897   4.763   3.096  0.3786  0.4268  0.7243
19698TIP3    H180509   3.818   4.809   3.125 -0.6858 -1.0660  0.3369
19698TIP3    H280510   3.864   4.681   3.060  2.0599  0.1498 -0.2683
19699TIP3   OH280511   6.464   4.291   1.927  0.3992 -0.2198  0.2883
19699TIP3    H180512   6.387   4.315   1.978  1.5649  1.4172  1.3662
19699TIP3    H280513   6.430   4.240   1.854 -1.6701  0.3345  0.8228
19700TIP3   OH280514   0.901   3.723  13.103 -0.5883 -0.0551 -0.5260
19700TIP3    H180515   0.861   3.663  13.040  0.3304 -0.9126 -0.3162
19700TIP3    H280516   0.913   3.670  13.182 -2.4332  1.1969  0.6999
19701TIP3   OH280517   5.130   3.867   4.107  0.1030 -0.0731  0.0668
19701TIP3    H180518   5.187   3.942   4.126  0.7885 -0.4838 -0.3363
19701TIP3    H280519   5.143   3.850   4.013  1.2683 -1.7742  0.5024
19702TIP3   OH280520   2.988   6.224   4.583  0.5182 -0.6326 -0.2130
19702TIP3    H180521   2.913   6.260   4.536 -1.0590 -1.4012  1.6167
19702TIP3    H280522   3.055   6.293   4.576 -0.8601  0.7265 -0.6081
19703TIP3   OH280523   4.333   4.013   0.965 -0.6480  0.2213  0.3780
19703TIP3    H180524   4.278   3.961   1.025 -0.7386 -0.1442 -0.0197
19703TIP3    H280525   4.403   4.047   1.021  0.2916 -1.5772  0.3796
19704TIP3   OH280526   6.263   0.656  15.866  1.0214  0.0222 -0.1790
19704TIP3    H180527   6.326   0.585  15.863 -0.6279 -1.4775 -2.2480
19704TIP3    H280528   6.200   0.630  15.933  1.9070  0.9730  1.0768
19705TIP3   OH280529   4.357   5.202   2.975 -0.0023 -0.1937  0.3359
19705TIP3    H180530   4.403   5.185   3.058  0.2034  0.6988  0.4185
19705TIP3    H280531   4.350   5.298   2.971 -0.9792 -0.2717 -0.1565
19706TIP3   OH280532   5.198   1.742  15.253  0.3863  0.3449 -0.6965
19706TIP3    H180533   5.108   1.761  15.279 -0.3403 -1.4653 -1.6747
19706TIP3    H280534   5.218   1.659  15.295  0.4911 -0.7748 -2.8330
19707TIP3   OH280535   5.067   6.450  10.989  0.1990  0.5918 -0.4148
19707TIP3    H180536   5.125   6.405  11.051  0.5746 -0.2358 -1.3318
19707TIP3    H280537   5.102   6.426  10.903  0.3590  2.6158 -0.9499
19708TIP3   OH280538   5.132   1.846   1.523 -0.1616 -0.5002 -0.1584
19708TIP3    H180539   5.090   1.768   1.559 -0.1200 -0.9648 -1.0946
19708TIP3    H280540   5.143   1.904   1.598  0.3035 -1.6206  0.6646
19709TIP3   OH280541   1.743   3.488   4.394  0.1024  0.2950  0.2690
19709TIP3    H180542   1.709   3.490   4.484  0.7679 -0.5069  0.5588
19709TIP3    H280543   1.838   3.480   4.405  0.1519 -0.2193 -0.5008
19710TIP3   OH280544   4.429   6.077  16.489 -0.3205 -0.8199  0.2004
19710TIP3    H180545   4.479   5.999  16.465  0.2624 -0.9322  1.6711
19710TIP3    H280546   4.350   6.042  16.531 -0.9892 -0.6165 -0.8334
19711TIP3   OH280547   0.191   6.558  12.836 -0.1793  0.5088 -0.6185
19711TIP3    H180548   0.106   6.599  12.853  0.3597  1.4761 -0.1491
19711TIP3    H280549   0.252   6.632  12.830  0.1649  0.1072 -4.0839
19712TIP3   OH280550   1.859   5.287  13.382  0.2910 -0.3233 -0.7455
19712TIP3    H180551   1.954   5.283  13.388  0.3205 -1.7922 -1.7058
19712TIP3    H280552   1.840   5.287  13.288 -0.6429  0.9667 -0.5880
19713TIP3   OH280553   5.191   5.923  12.997 -0.1945 -0.3378  0.1130
19713TIP3    H180554   5.278   5.886  12.985 -0.3474 -0.7426  0.2380
19713TIP3    H280555   5.141   5.892  12.921  0.1726  1.1250 -0.7594
19714TIP3   OH280556   3.723   1.392   1.961  0.2474 -0.0091 -0.4614
19714TIP3    H180557   3.797   1.331   1.956  1.0847  0.7886  1.3840
19714TIP3    H280558   3.650   1.338   1.992  0.8144 -0.2296  0.5370
19715TIP3   OH280559   5.435   4.879   2.676  0.0931  0.1019  0.1552
19715TIP3    H180560   5.506   4.870   2.740  1.6177  1.8314 -1.1652
19715TIP3    H280561   5.382   4.800   2.688  1.0361 -0.2583  2.6145
19716TIP3   OH280562   3.534   2.935   3.186 -0.1852 -0.1507 -0.1365
19716TIP3    H180563   3.618   2.968   3.219 -0.5386 -0.3084  0.9581
19716TIP3    H280564   3.552   2.843   3.165 -0.5884 -0.8489  2.2273
19717TIP3   OH280565   4.854   2.164  12.711 -0.0526  0.2081  0.0219
19717TIP3    H180566   4.938   2.123  12.734 -0.0106 -0.0453 -0.5908
19717TIP3    H280567   4.810   2.102  12.654 -0.6423  0.3666  0.2949
19718TIP3   OH280568   6.042   6.627   1.468 -0.0626 -0.2566  0.1152
19718TIP3    H180569   6.034   6.656   1.377 -0.6961  0.1918  0.3090
19718TIP3    H280570   6.089   6.698   1.511 -0.0727 -0.3087  0.2125
19719TIP3   OH280571   4.273   5.799   0.421  0.0741  0.1983 -0.5758
19719TIP3    H180572   4.262   5.893   0.437 -1.4917 -0.1647  0.7723
19719TIP3    H280573   4.318   5.794   0.337  1.3870  2.1590 -0.0692
19720TIP3   OH280574   3.520   3.345  12.790 -0.3361  0.4853  0.1369
19720TIP3    H180575   3.429   3.325  12.812 -0.6085  2.4204  0.9189
19720TIP3    H280576   3.526   3.328  12.696 -1.9574  1.8121 -0.2431
19721TIP3   OH280577   2.450   2.540  16.484 -0.1876  0.3942 -0.7153
19721TIP3    H180578   2.398   2.553  16.564  0.3243 -0.2492 -0.2655
19721TIP3    H280579   2.429   2.450  16.457  1.5279 -0.3039  0.1203
19722TIP3   OH280580   5.461   0.774   5.916  0.5319 -0.0114  0.1410
19722TIP3    H180581   5.492   0.805   5.831 -1.3941  1.4125 -0.1131
19722TIP3    H280582   5.487   0.682   5.919 -2.3012 -1.2333 -3.6037
19723TIP3   OH280583   1.880   6.595   4.446  0.5088  0.6128 -0.1501
19723TIP3    H180584   1.787   6.611   4.433  0.2004 -1.4529 -0.7561
19723TIP3    H280585   1.923   6.665   4.396 -0.7192  0.6034 -1.2695
19724TIP3   OH280586   5.899   5.530  13.476 -0.0205  0.4320 -0.6583
19724TIP3    H180587   5.876   5.504  13.565  1.5678  0.0120 -0.3402
19724TIP3    H280588   5.816   5.561  13.438 -1.3986 -2.1870 -0.0481
19725TIP3   OH280589   4.303   0.869   3.934  0.2341  0.2014 -0.2127
19725TIP3    H180590   4.307   0.813   4.011  0.4351  0.6070  0.0731
19725TIP3    H280591   4.341   0.816   3.864  1.1096  0.2378  0.2147
19726TIP3   OH280592   1.560   6.364   1.392  0.1064  0.2973 -0.3200
19726TIP3    H180593   1.574   6.373   1.486  0.5214 -0.5518 -0.2844
19726TIP3    H280594   1.553   6.453   1.360 -2.9816  0.6375  0.9280
19727TIP3   OH280595   1.180   0.132  11.181 -0.4353 -0.1745  0.4450
19727TIP3    H180596   1.235   0.080  11.240  2.5660  1.1247 -0.9815
19727TIP3    H280597   1.166   0.076  11.105 -3.1359 -1.3367  1.6970
19728TIP3   OH280598   4.234   3.490  11.899 -0.0912  0.4604 -0.2165
19728TIP3    H180599   4.150   3.518  11.936 -1.5730 -0.8899 -2.3526
19728TIP3    H280600   4.222   3.495  11.804  2.5611  1.0132 -0.5990
19729TIP3   OH280601   6.298   0.024   5.389  0.4733 -0.7862  0.0968
19729TIP3    H180602   6.393   0.011   5.384  0.4059 -0.9277 -3.3782
19729TIP3    H280603   6.263  -0.061   5.414  1.1404 -1.5833 -1.5781
19730TIP3   OH280604   4.936   6.154  10.969  0.5632 -0.4093  0.2812
19730TIP3    H180605   4.950   6.128  11.059  0.8949 -0.1136  0.3165
19730TIP3    H280606   5.021   6.187  10.939  0.5491 -0.8230 -0.2462
19731TIP3   OH280607   2.978   5.365   0.782  0.5049 -0.5207 -0.2137
19731TIP3    H180608   2.933   5.317   0.713 -1.4624  1.1560 -0.2079
19731TIP3    H280609   3.060   5.393   0.743 -0.1554 -0.3938 -1.5597
19732TIP3   OH280610   3.504   3.877  12.490  0.0642 -0.8819 -0.1328
19732TIP3    H180611   3.597   3.872  12.470 -0.1781 -2.0796 -1.0297
19732TIP3    H280612   3.499   3.867  12.585  0.8848  0.0162  0.0287
19733TIP3   OH280613   0.379   3.062  12.836  0.2689  0.5650 -0.6575
19733TIP3    H180614   0.361   3.111  12.916 -1.1744 -0.9534  0.0024
19733TIP3    H280615   0.404   3.129  12.772  0.2162  1.9412  0.7135
19734TIP3   OH280616   2.170   0.607  15.158 -0.0366  0.3363  0.2670
19734TIP3    H180617   2.122   0.590  15.239  1.7462 -2.4968  0.8589
19734TIP3    H280618   2.211   0.524  15.136  1.2273  1.5480 -2.4622
19735TIP3   OH280619   4.550   5.003  14.919  0.3863 -0.3427  0.3136
19735TIP3    H180620   4.479   5.061  14.891  0.9586 -0.7361 -2.2468
19735TIP3    H280621   4.559   5.020  15.012 -0.4244  2.6303 -0.0287
19736TIP3   OH280622   6.159   4.181  10.596  0.4623  0.7988 -0.3856
19736TIP3    H180623   6.181   4.271  10.618  0.1308  0.8176 -0.1322
19736TIP3    H280624   6.070   4.169  10.628  0.1983  0.6361 -1.1665
19737TIP3   OH280625   5.769   4.633   6.000  0.0176  0.3129 -0.5935
19737TIP3    H180626   5.753   4.545   6.035  0.3166  0.7632  0.7285
19737TIP3    H280627   5.731   4.692   6.065 -0.4210  1.1687 -1.6046
19738TIP3   OH280628   2.277   3.230   5.329 -0.1297 -0.5235 -0.5253
19738TIP3    H180629   2.205   3.291   5.315  0.0296  0.2249  1.6198
19738TIP3    H280630   2.264   3.163   5.262 -1.2632  0.9606 -1.8976
19739TIP3   OH280631   1.779   6.713   5.635 -0.1211 -0.5886 -0.1333
19739TIP3    H180632   1.751   6.799   5.666  2.4854 -0.2549  1.6655
19739TIP3    H280633   1.740   6.651   5.697 -2.0701 -0.8216 -1.4788
19740TIP3   OH280634   3.888   2.186   5.088 -0.1357  0.1957  0.3699
19740TIP3    H180635   3.832   2.120   5.047 -2.4771  1.7292  0.8834
19740TIP3    H280636   3.977   2.159   5.067 -1.0693 -0.4810 -3.5976
19741TIP3   OH280637   4.340   5.928  15.649 -0.0605 -0.0564  0.3108
19741TIP3    H180638   4.291   5.966  15.722 -0.3754  0.4460 -0.1589
19741TIP3    H280639   4.292   5.955  15.571  1.1460  0.7150 -0.1859
19742TIP3   OH280640   3.531   3.675   2.296 -0.2644 -0.3340 -0.0669
19742TIP3    H180641   3.567   3.628   2.372  0.3239  1.4023  0.7878
19742TIP3    H280642   3.436   3.670   2.307 -0.3319 -2.9115 -1.0517
19743TIP3   OH280643   1.918   5.597  11.963  0.7591  0.6776  0.3202
19743TIP3    H180644   2.000   5.562  11.998  0.7821  0.5118  0.1083
19743TIP3    H280645   1.945   5.670  11.907  0.8164  0.2203 -0.2565
19744TIP3   OH280646   3.925   1.714  14.739  0.3437  0.1926  0.9613
19744TIP3    H180647   3.919   1.744  14.649  0.6910  0.1323  0.9157
19744TIP3    H280648   3.892   1.625  14.738  2.0296 -0.4564  0.5513
19745TIP3   OH280649   1.805   0.978   4.184  0.2421  0.1751 -0.6707
19745TIP3    H180650   1.881   0.920   4.192 -0.7530 -1.1947 -0.8713
19745TIP3    H280651   1.729   0.920   4.190 -0.8791  1.6997  1.4886
19746TIP3   OH280652   5.926   3.263  15.416  0.2762  0.1611  0.0029
19746TIP3    H180653   6.019   3.239  15.420  0.2985  0.3598  0.9144
19746TIP3    H280654   5.899   3.237  15.329  0.9579 -0.7645  0.0459
19747TIP3   OH280655   3.089   5.855  10.706 -0.4571  0.3268 -0.0727
19747TIP3    H180656   3.012   5.849  10.764 -1.0030  0.3088 -0.7833
19747TIP3    H280657   3.156   5.897  10.760 -1.0474  0.5754  0.4888
19748TIP3   OH280658   2.389   2.257   2.689 -0.9071 -0.4511 -0.0802
19748TIP3    H180659   2.332   2.205   2.632  0.7640 -1.2027 -1.1258
19748TIP3    H280660   2.474   2.255   2.646 -0.0472  0.5546  1.4984
19749TIP3   OH280661   4.924   4.610  13.430  0.2189  0.8014 -0.0879
19749TIP3    H180662   4.916   4.678  13.363  1.7096 -0.1937 -1.3443
19749TIP3    H280663   4.946   4.531  13.381  0.1894 -0.2184  1.4859
19750TIP3   OH280664   2.567   1.402   3.163  0.1154  0.2360 -0.2538
19750TIP3    H180665   2.471   1.395   3.163  0.1826 -2.7922  1.6465
19750TIP3    H280666   2.590   1.410   3.255  1.7113  1.0765 -0.6983
19751TIP3   OH280667   5.277   5.591  14.651  0.0307  0.6368  0.3478
19751TIP3    H180668   5.263   5.628  14.563 -1.8604  1.1990  0.8359
19751TIP3    H280669   5.203   5.624  14.702  0.0284 -1.2600  1.6485
19752TIP3   OH280670   2.465   2.344  16.900 -0.1772 -0.4340  0.5617
19752TIP3    H180671   2.529   2.412  16.878 -1.6161  1.3150  1.4750
19752TIP3    H280672   2.470   2.336  16.995 -1.4727 -0.0883  0.6712
19753TIP3   OH280673   4.157   6.071  10.406  0.3756 -0.0391  0.1771
19753TIP3    H180674   4.073   6.108  10.434  0.4676  1.1929 -1.1180
19753TIP3    H280675   4.216   6.146  10.399  1.7779 -0.9369  1.5608
19754TIP3   OH280676   0.194   4.955  14.025  0.3599  0.3881 -0.0786
19754TIP3    H180677   0.210   4.928  13.935 -2.5542  2.4428 -1.3998
19754TIP3    H280678   0.099   4.969  14.029  0.3535  0.2845  3.3794
19755TIP3   OH280679   2.903   0.294  15.527 -0.0985  0.1521  0.2931
19755TIP3    H180680   2.982   0.307  15.579 -0.7300 -0.0417  1.3457
19755TIP3    H280681   2.925   0.223  15.467  0.4702 -0.0156  0.6931
19756TIP3   OH280682   2.355   3.466  10.723  0.1376  0.0433 -0.3594
19756TIP3    H180683   2.431   3.465  10.781  0.7090  2.4588 -0.9473
19756TIP3    H280684   2.369   3.392  10.664  1.1675 -0.5419  0.5806
19757TIP3   OH280685   5.814   6.592   2.194  0.0875  0.1910 -0.1437
19757TIP3    H180686   5.744   6.570   2.132  0.6414 -2.6413  0.1068
19757TIP3    H280687   5.894   6.558   2.153  0.7302 -0.0849  1.2764
19758TIP3   OH280688   0.321   5.224  12.173  0.3712  0.3272  0.4532
19758TIP3    H180689   0.345   5.309  12.135 -1.4584  1.2097  1.1543
19758TIP3    H280690   0.393   5.166  12.149  1.2854  1.8742 -0.7382
19759TIP3   OH280691   1.460   3.032  10.809  0.0725  0.3512  0.1404
19759TIP3    H180692   1.369   3.061  10.814  0.5379  1.7006  1.7808
19759TIP3    H280693   1.497   3.082  10.736 -0.5423 -0.3611 -0.6690
19760TIP3   OH280694   2.669   6.180  16.507  0.0041  0.0150 -0.3360
19760TIP3    H180695   2.738   6.113  16.509  2.7215  2.6340  1.7657
19760TIP3    H280696   2.694   6.238  16.435 -0.3668  0.6664  0.0583
19761TIP3   OH280697   5.948   3.104   6.028 -0.1896  0.0375 -0.0727
19761TIP3    H180698   5.902   3.058   5.958 -0.1774  1.7491 -1.2777
19761TIP3    H280699   6.029   3.054   6.041 -1.0667 -1.3900  0.0855
19762TIP3   OH280700   6.403   3.629   0.747 -0.4873 -0.2763 -0.2354
19762TIP3    H180701   6.314   3.619   0.714 -0.7282  1.1380 -0.0847
19762TIP3    H280702   6.436   3.707   0.702  0.5597 -0.5960 -0.0451
19763TIP3   OH280703   6.705   5.754   0.379  0.1779  0.0527  0.0465
19763TIP3    H180704   6.770   5.812   0.341  0.8141 -1.3709 -1.1228
19763TIP3    H280705   6.738   5.734   0.467  0.9188 -0.0677 -0.2613
19764TIP3   OH280706   6.619   2.547   5.261  0.6188  0.6980  0.0434
19764TIP3    H180707   6.685   2.496   5.215  1.7575  0.3072  1.9946
19764TIP3    H280708   6.634   2.637   5.233  1.4948  0.5126 -0.1182
19765TIP3   OH280709   0.498   2.366   0.943 -0.7991 -0.0070 -0.4039
19765TIP3    H180710   0.428   2.401   0.998 -1.0205 -2.1448  0.7944
19765TIP3    H280711   0.530   2.290   0.992  3.2508  1.5719 -0.2526
19766TIP3   OH280712   0.416   3.491  11.984 -0.3690 -0.0573 -0.3755
19766TIP3    H180713   0.397   3.404  12.020 -0.5390 -0.6718 -1.8593
19766TIP3    H280714   0.345   3.507  11.922  0.4468  0.4884 -1.1980
19767TIP3   OH280715   4.572   2.965   1.397 -0.6824  0.1190 -0.2120
19767TIP3    H180716   4.523   3.047   1.406  0.5192  0.7878  0.5026
19767TIP3    H280717   4.606   2.968   1.307 -3.2135 -1.1287 -1.3186
19768TIP3   OH280718   5.110   0.324  15.068 -0.1708 -0.5039  0.4369
19768TIP3    H180719   5.193   0.321  15.116  0.3859 -0.3091 -0.4884
19768TIP3    H280720   5.108   0.242  15.019  0.4901  0.3915 -1.1579
19769TIP3   OH280721   1.890   4.621  14.749  0.3638 -0.4492 -0.0524
19769TIP3    H180722   1.973   4.581  14.775 -0.4664 -2.0129  0.3200
19769TIP3    H280723   1.855   4.562  14.682  0.4003  1.1889 -1.6027
19770TIP3   OH280724   2.736   0.132  17.084  0.2765  0.1666  0.5966
19770TIP3    H180725   2.808   0.082  17.047 -0.4618 -0.0350 -0.6493
19770TIP3    H280726   2.774   0.215  17.110  1.1839 -0.3960  1.1283
19771TIP3   OH280727   5.776   2.571  11.068 -0.2975  0.3017 -0.2723
19771TIP3    H180728   5.822   2.627  11.006  1.2474 -0.7110 -0.1087
19771TIP3    H280729   5.773   2.485  11.025 -0.7582  0.0018  0.3347
19772TIP3   OH280730   3.165   0.847  10.563  0.1950 -0.2173 -0.0145
19772TIP3    H180731   3.229   0.857  10.634  1.6270  0.8318 -1.3640
19772TIP3    H280732   3.123   0.933  10.558  1.4427  0.3485 -1.5927
19773TIP3   OH280733   4.387   2.279   1.109 -0.2887  0.1469  0.1646
19773TIP3    H180734   4.461   2.300   1.165  0.7779 -0.2291 -1.0472
19773TIP3    H280735   4.367   2.187   1.128  0.6031 -0.2241 -0.6319
19774TIP3   OH280736   1.867   2.788   2.397 -0.0467  0.7423 -0.4386
19774TIP3    H180737   1.908   2.864   2.355 -0.4374  1.3929  0.3226
19774TIP3    H280738   1.773   2.804   2.387 -0.1305  0.2317 -0.4838
19775TIP3   OH280739   5.517   1.284  12.839  0.3369  0.7166 -0.6162
19775TIP3    H180740   5.491   1.216  12.776  0.4071 -0.1017  0.2090
19775TIP3    H280741   5.568   1.236  12.905  0.5555  1.6134 -0.1254
19776TIP3   OH280742   1.400   4.437   5.885  0.1847 -0.6246 -0.1521
19776TIP3    H180743   1.480   4.436   5.834  1.1569  1.0812  1.2387
19776TIP3    H280744   1.417   4.377   5.958  1.1093  1.3714  1.3528
19777TIP3   OH280745   0.514   2.559  16.212  0.3721  0.0756 -0.6931
19777TIP3    H180746   0.501   2.520  16.125 -1.6035  1.3040 -1.0116
19777TIP3    H280747   0.436   2.613  16.226  0.9518  0.4165  1.5906
19778TIP3   OH280748   0.720   3.881   1.520  0.1332  0.1258 -1.0074
19778TIP3    H180749   0.710   3.910   1.611  1.5462 -0.8555 -0.5018
19778TIP3    H280750   0.679   3.951   1.468 -0.8761  0.6149  0.3694
19779TIP3   OH280751   0.057   4.370  13.536 -0.2347 -0.3219  0.2972
19779TIP3    H180752  -0.016   4.417  13.575  1.0731  2.4475 -0.3350
19779TIP3    H280753   0.039   4.371  13.442  1.0040  1.2146  0.0464
19780TIP3   OH280754   6.601   5.847  13.176 -0.2987 -0.5034 -0.8385
19780TIP3    H180755   6.621   5.767  13.224 -4.1471 -0.7256  0.7789
19780TIP3    H280756   6.638   5.917  13.230  1.1432 -1.0590 -1.0805
19781TIP3   OH280757   6.479   1.221  16.896 -0.1428  0.2426  0.3573
19781TIP3    H180758   6.441   1.140  16.863 -1.1834  0.5746  0.6850
19781TIP3    H280759   6.540   1.193  16.965 -1.6112 -0.2168  1.5294
19782TIP3   OH280760   4.868   2.325   5.337  0.4509 -0.1235 -0.0838
19782TIP3    H180761   4.932   2.278   5.284  0.6537  1.0709 -0.9260
19782TIP3    H280762   4.793   2.336   5.279  0.0332 -0.2310  0.4272
19783TIP3   OH280763   1.434   3.352   3.360 -0.1684  0.3885 -0.1672
19783TIP3    H180764   1.396   3.440   3.359 -0.1954  0.3913  0.5876
19783TIP3    H280765   1.469   3.340   3.272  0.6385  1.5070 -0.0209
19784TIP3   OH280766   0.144   4.565   3.140 -0.1286  0.2225  0.3582
19784TIP3    H180767   0.128   4.490   3.083  2.6138 -0.2044  0.0444
19784TIP3    H280768   0.108   4.538   3.225  0.5556 -1.3566  0.1850
19785TIP3   OH280769   3.712   1.621  16.466 -0.4737 -0.6866 -0.4683
19785TIP3    H180770   3.807   1.627  16.471 -0.5414  0.8824 -0.6306
19785TIP3    H280771   3.688   1.676  16.392 -1.4466 -1.9586 -1.1392
19786TIP3   OH280772   5.038   5.571  16.398 -0.4991 -0.1743 -0.2911
19786TIP3    H180773   5.081   5.651  16.429 -0.5397 -0.3058  0.1173
19786TIP3    H280774   4.968   5.602  16.341 -0.4620  0.0793 -0.2022
19787TIP3   OH280775   2.763   1.605   2.791  0.2050  0.5271  0.0298
19787TIP3    H180776   2.755   1.509   2.798 -0.4100  0.4311 -1.5887
19787TIP3    H280777   2.858   1.620   2.787  0.3011 -0.0639 -0.1686
19788TIP3   OH280778   1.042   0.669   1.612 -0.5384  0.7998 -0.0893
19788TIP3    H180779   1.062   0.729   1.541  1.2948  0.4543  0.0922
19788TIP3    H280780   0.947   0.661   1.610 -0.7567  2.9458 -0.7142
19789TIP3   OH280781   6.693   3.455  16.442  0.2405  0.2164  0.0299
19789TIP3    H180782   6.727   3.497  16.522  1.9908  1.2154 -1.1674
19789TIP3    H280783   6.657   3.528  16.391  1.2872 -0.0271 -1.0982
19790TIP3   OH280784   2.484   6.806   4.236  0.5750  0.0816  0.6164
19790TIP3    H180785   2.481   6.846   4.323 -0.3719 -0.9929  1.1048
19790TIP3    H280786   2.450   6.874   4.178  1.3323  0.8542  1.0467
19791TIP3   OH280787   0.529   5.943  14.002 -0.3613 -0.1262  0.2960
19791TIP3    H180788   0.492   5.893  14.075 -0.8923 -1.0827 -0.6030
19791TIP3    H280789   0.624   5.939  14.016 -0.1122 -3.9362 -1.2485
19792TIP3   OH280790   3.526   4.898  16.396 -0.0438 -0.3858  0.5133
19792TIP3    H180791   3.492   4.910  16.308  1.5820 -1.5082 -0.3265
19792TIP3    H280792   3.520   4.804  16.411 -0.7115 -0.1613  1.8056
19793TIP3   OH280793   5.563   4.780   5.862 -0.1758  0.5880 -0.0579
19793TIP3    H180794   5.481   4.736   5.884 -0.3113  0.4321 -0.8573
19793TIP3    H280795   5.586   4.830   5.941 -1.3395  1.0998 -0.0251
19794TIP3   OH280796   6.290   6.723  15.472 -0.1704 -0.9898 -0.4675
19794TIP3    H180797   6.337   6.668  15.410  0.8959  0.5236 -1.0514
19794TIP3    H280798   6.239   6.784  15.417 -1.8637 -1.7818  0.1578
19795TIP3   OH280799   5.213   5.329   4.651 -0.6265  0.3336 -0.4398
19795TIP3    H180800   5.258   5.366   4.727  1.6232  1.7194 -2.2969
19795TIP3    H280801   5.128   5.374   4.649 -1.4600 -0.9364  2.0880
19796TIP3   OH280802   3.657   5.983  13.193  0.9001  0.3050 -0.2967
19796TIP3    H180803   3.678   5.996  13.285 -1.7904 -0.3649  0.4846
19796TIP3    H280804   3.611   6.064  13.167 -0.7404 -0.5780 -0.2452
19797TIP3   OH280805   6.224   0.742   2.754 -0.3539  0.3015 -0.1829
19797TIP3    H180806   6.198   0.807   2.689  0.3573 -0.5389 -1.3415
19797TIP3    H280807   6.286   0.789   2.811 -0.4161  0.8432 -0.5505
19798TIP3   OH280808   1.731   3.957  16.650  0.3477  0.4629 -0.8207
19798TIP3    H180809   1.649   3.938  16.605  0.1532  0.4620 -0.4691
19798TIP3    H280810   1.793   3.893  16.615  0.3168  0.7491 -1.4137
19799TIP3   OH280811   1.503   0.452  16.156 -0.4201 -0.6434 -0.9674
19799TIP3    H180812   1.546   0.384  16.104  0.7803  0.5190 -1.5557
19799TIP3    H280813   1.525   0.432  16.247  1.0000 -0.3480 -1.2293
19800TIP3   OH280814   5.727   0.722  15.451 -0.1086  0.3416  0.1465
19800TIP3    H180815   5.789   0.792  15.429  1.2058 -0.5196  0.9755
19800TIP3    H280816   5.661   0.727  15.382  0.2967  1.9734 -0.1831
19801TIP3   OH280817   4.032   5.451  14.183  0.0731 -0.0615 -0.0798
19801TIP3    H180818   4.026   5.459  14.088 -0.2771  1.4746  0.0483
19801TIP3    H280819   4.076   5.367  14.197 -0.2426 -0.5062 -1.5797
19802TIP3   OH280820   3.970   2.894   2.605  0.3225 -0.3847 -0.4190
19802TIP3    H180821   4.010   2.939   2.680 -1.9950  1.2535 -0.0680
19802TIP3    H280822   3.954   2.963   2.541  0.4835 -1.4418 -1.6455
19803TIP3   OH280823   2.988   2.092  14.875 -0.3221 -0.4213 -0.5267
19803TIP3    H180824   3.020   2.014  14.829  0.0861 -0.0761 -0.8328
19803TIP3    H280825   2.979   2.159  14.807  0.3262  0.1022 -0.1080
19804TIP3   OH280826   6.217   2.970   1.969 -0.0822  0.5061  0.3730
19804TIP3    H180827   6.199   3.061   1.990  2.3931  1.2404 -0.3765
19804TIP3    H280828   6.290   2.946   2.027  0.0341 -0.6573 -0.2166
19805TIP3   OH280829   6.152   4.434  15.385 -0.5136  0.0796 -0.3651
19805TIP3    H180830   6.227   4.403  15.434 -2.6938 -1.2921  2.3866
19805TIP3    H280831   6.159   4.391  15.300  1.5538 -0.2783 -0.0611
19806TIP3   OH280832   2.086   0.591  15.429  0.6979 -0.2002  0.1576
19806TIP3    H180833   2.060   0.508  15.471 -0.1817  0.7808  1.6307
19806TIP3    H280834   2.107   0.649  15.502 -0.0665  1.3062 -0.7764
19807TIP3   OH280835   5.273   1.941   0.493 -0.6984  0.0475 -0.6098
19807TIP3    H180836   5.219   1.934   0.415  1.6144  0.2147 -2.3013
19807TIP3    H280837   5.266   2.034   0.518 -2.6064 -0.2877  0.3675
19808TIP3   OH280838   3.341   2.896   4.759  0.3051  0.1869  0.1496
19808TIP3    H180839   3.402   2.864   4.693 -1.0538  0.1413 -1.1562
19808TIP3    H280840   3.322   2.986   4.733  0.0174  0.2815  0.6685
19809TIP3   OH280841   3.662   3.079  15.990  0.5807  0.2744  0.7349
19809TIP3    H180842   3.728   3.022  16.028 -0.5886 -0.7025  1.3522
19809TIP3    H280843   3.677   3.164  16.031  1.4267  0.0654  0.8779
19810TIP3   OH280844   3.191   1.936   3.866 -0.2685  0.0741 -0.4934
19810TIP3    H180845   3.218   1.879   3.938 -0.9357  0.9082  0.4192
19810TIP3    H280846   3.268   1.989   3.848 -0.6883  1.2026  0.9099
19811TIP3   OH280847   0.184   3.862  11.666  0.3425  0.2967 -0.4555
19811TIP3    H180848   0.201   3.931  11.603  0.5799 -0.1577 -0.8992
19811TIP3    H280849   0.246   3.793  11.643  0.6575  0.2561  0.4790
19812TIP3   OH280850   2.538   2.114  14.974 -0.0774  0.2752 -0.5438
19812TIP3    H180851   2.494   2.172  15.037 -0.2641 -1.0744  0.6347
19812TIP3    H280852   2.620   2.090  15.017  0.2731  0.1411 -1.2790
19813TIP3   OH280853   2.972   6.250   3.293  0.4531 -0.0507  0.3056
19813TIP3    H180854   3.049   6.307   3.292  1.5479 -1.4819 -0.4876
19813TIP3    H280855   2.926   6.270   3.212  0.4374  0.2305  0.3848
19814TIP3   OH280856   4.485   4.282   1.102 -0.4118  0.4585 -0.6193
19814TIP3    H180857   4.528   4.209   1.147 -1.1375  0.0555 -0.5681
19814TIP3    H280858   4.535   4.293   1.021  1.1164  1.4043  0.3884
19815TIP3   OH280859   1.770   6.643  13.182  0.3011  0.1174  0.2636
19815TIP3    H180860   1.818   6.560  13.179  0.7771  0.3231  1.6719
19815TIP3    H280861   1.760   6.662  13.275 -0.1788  1.4274 -0.0381
19816TIP3   OH280862   6.604   2.992  13.097 -0.0603 -0.4861 -0.5518
19816TIP3    H180863   6.624   3.042  13.018 -0.2395 -0.0754 -0.3407
19816TIP3    H280864   6.521   2.948  13.078 -1.1764  1.2149  0.1246
19817TIP3   OH280865   5.167   2.251  12.774 -0.5714  0.0025 -0.3850
19817TIP3    H180866   5.124   2.314  12.832 -0.7638  0.7218 -1.2825
19817TIP3    H280867   5.166   2.169  12.823 -1.8119  0.3097  0.1454
19818TIP3   OH280868   6.315   0.009  10.378  0.1619 -0.2811  0.4690
19818TIP3    H180869   6.372  -0.017  10.450  1.9512 -0.6454 -0.9746
19818TIP3    H280870   6.362   0.081  10.335 -0.6580 -0.3153 -0.5393
19819TIP3   OH280871   2.104   2.566  14.224  0.0815 -0.3203 -0.0927
19819TIP3    H180872   2.193   2.596  14.208  0.1689 -0.7484 -0.4452
19819TIP3    H280873   2.087   2.586  14.316  1.8170 -3.3684  1.0360
19820TIP3   OH280874   2.717   1.261   2.978  0.4666  0.0582 -0.6063
19820TIP3    H180875   2.664   1.181   2.976  1.6350 -0.7416 -0.3213
19820TIP3    H280876   2.677   1.313   3.047  0.2858 -0.7229 -0.1033
19821TIP3   OH280877   5.815   5.342   4.852  0.4634  0.1082  0.8291
19821TIP3    H180878   5.860   5.286   4.788  2.6141 -0.7470  2.9636
19821TIP3    H280879   5.884   5.394   4.892 -1.0255  1.6671  1.4850
19822TIP3   OH280880   6.101   0.663  15.082 -0.0475  0.5542  0.1820
19822TIP3    H180881   6.086   0.614  15.001  0.1736  1.3400 -0.3392
19822TIP3    H280882   6.026   0.722  15.089  1.0425  2.1343 -0.6929
19823TIP3   OH280883   2.526   5.153   3.801 -0.0042  0.4900  0.0193
19823TIP3    H180884   2.441   5.183   3.767 -0.0425  0.8016  0.3923
19823TIP3    H280885   2.504   5.081   3.860  0.2585 -2.9076 -3.5711
19824TIP3   OH280886   0.999   5.486   2.424 -0.2301 -0.2067  0.5700
19824TIP3    H180887   0.995   5.541   2.345  2.0302 -0.0441  0.5179
19824TIP3    H280888   1.091   5.464   2.433 -0.9639 -3.7183  0.8200
19825TIP3   OH280889   2.769   6.542   4.554  0.9532 -0.1434  0.8679
19825TIP3    H180890   2.736   6.625   4.520 -1.7256 -1.4797 -0.1052
19825TIP3    H280891   2.786   6.489   4.476 -0.4038 -1.5316  1.4594
19826TIP3   OH280892   5.819   2.524  11.356 -0.5475  0.1670  0.0699
19826TIP3    H180893   5.811   2.547  11.263 -0.8593 -0.5373 -0.0832
19826TIP3    H280894   5.913   2.531  11.374 -0.3726 -0.5099 -0.5209
19827TIP3   OH280895   0.072   4.572  17.073 -0.2173 -0.5191  0.1659
19827TIP3    H180896   0.104   4.588  17.162 -0.6492  3.1646 -0.2170
19827TIP3    H280897  -0.023   4.563  17.083 -0.3462  0.6271  0.0169
19828TIP3   OH280898   6.117   6.809   2.844  0.5598  0.2425  0.6408
19828TIP3    H180899   6.041   6.802   2.902 -0.9297  0.3675 -1.1930
19828TIP3    H280900   6.138   6.902   2.843  0.4752  0.2648  0.8373
19829TIP3   OH280901   6.517   0.940  10.886 -0.7431  0.2572  0.1411
19829TIP3    H180902   6.471   0.856  10.891 -1.8995  0.9093  0.8672
19829TIP3    H280903   6.548   0.945  10.796 -2.9265  0.1844 -0.6786
19830TIP3   OH280904   5.531   1.999  15.339 -0.3606  0.3771  0.2388
19830TIP3    H180905   5.444   2.002  15.299 -0.0455  2.1725 -0.4119
19830TIP3    H280906   5.562   1.910  15.323 -0.8818  0.5533 -2.1611
19831TIP3   OH280907   0.561   6.554   1.945  0.0724 -0.2893  0.0601
19831TIP3    H180908   0.531   6.463   1.955 -0.6529  0.0518  1.1363
19831TIP3    H280909   0.493   6.606   1.987  0.5124  0.7576 -0.5090
19832TIP3   OH280910   1.006   1.966  13.943  0.4643 -0.0323 -0.2378
19832TIP3    H180911   1.062   2.041  13.963 -1.2433  1.5724 -1.1685
19832TIP3    H280912   1.027   1.902  14.010  0.9824  1.8103  1.4553
19833TIP3   OH280913   1.365   4.381  16.911 -0.4408 -0.1830  0.5212
19833TIP3    H180914   1.365   4.398  16.817 -0.5382 -1.4850  0.2713
19833TIP3    H280915   1.297   4.439  16.946  0.3528  1.1388 -0.0320
19834TIP3   OH280916   4.681   2.126  15.743 -0.2819  0.4563 -0.0305
19834TIP3    H180917   4.706   2.204  15.794  0.8955  0.5233 -0.6824
19834TIP3    H280918   4.644   2.161  15.662  0.4473  0.3506 -0.4170
19835TIP3   OH280919   1.548   0.725   1.513  0.0243 -0.2238  0.0516
19835TIP3    H180920   1.637   0.738   1.480 -0.5557  0.8621 -1.1519
19835TIP3    H280921   1.532   0.631   1.502  0.7138 -0.2804 -0.5150
19836TIP3   OH280922   2.328   1.306  16.264 -0.1700 -0.2527  0.6063
19836TIP3    H180923   2.361   1.393  16.289 -1.1595  0.3299 -0.0539
19836TIP3    H280924   2.376   1.245  16.320  2.4095  0.4961 -0.6402
19837TIP3   OH280925   2.003   3.811  13.857  0.6317 -0.6438 -0.4861
19837TIP3    H180926   1.920   3.843  13.892  0.4331 -0.2998 -1.2749
19837TIP3    H280927   2.022   3.734  13.911 -0.9749 -1.6593 -1.2875
19838TIP3   OH280928   5.373   0.698   4.939  0.2153  0.4256  0.0178
19838TIP3    H180929   5.427   0.642   4.995 -0.0565  0.5633  0.4238
19838TIP3    H280930   5.368   0.781   4.986  1.4888  1.1546 -1.0704
19839TIP3   OH280931   5.239   1.065   0.885 -0.1710 -0.0114 -0.2205
19839TIP3    H180932   5.205   1.132   0.945 -0.9061 -0.4629 -0.1242
19839TIP3    H280933   5.161   1.027   0.845  0.1497 -1.8194  0.7993
19840TIP3   OH280934   4.275   4.246  10.847 -0.6399 -0.3414  0.0189
19840TIP3    H180935   4.365   4.269  10.826 -0.8609 -0.4660 -1.1014
19840TIP3    H280936   4.260   4.162  10.803 -1.2097 -0.4830  0.4633
19841TIP3   OH280937   1.107   2.798   1.395  0.5736 -0.5492  0.0056
19841TIP3    H180938   1.054   2.720   1.375 -0.9116  0.0636  1.3570
19841TIP3    H280939   1.168   2.804   1.322 -1.8588 -0.7332 -2.1781
19842TIP3   OH280940   5.036   4.327   1.290 -0.4753  0.6806  0.3479
19842TIP3    H180941   5.034   4.306   1.197  0.7847  0.0066  0.4627
19842TIP3    H280942   4.946   4.309   1.320 -0.2168 -1.8451 -0.1598
19843TIP3   OH280943   2.614   3.206   3.226  0.1645 -0.8996  0.2703
19843TIP3    H180944   2.570   3.135   3.273  0.1715 -0.4919  0.8936
19843TIP3    H280945   2.685   3.233   3.284 -1.6691  1.6987  1.4752
19844TIP3   OH280946   3.479   6.392  10.309 -0.0072 -0.1800  0.0549
19844TIP3    H180947   3.464   6.312  10.359  0.0509  0.3859  1.0111
19844TIP3    H280948   3.398   6.442  10.319  0.3863  0.3972  0.4933
19845TIP3   OH280949   0.251   4.203   6.312 -0.3991  0.3981  0.0297
19845TIP3    H180950   0.176   4.238   6.360  1.7015  3.0772  1.6522
19845TIP3    H280951   0.297   4.148   6.375  0.6600  1.3466  0.1263
19846TIP3   OH280952   0.887   1.882   4.252 -0.2726 -0.3299  0.2352
19846TIP3    H180953   0.889   1.788   4.272 -0.4403 -0.1948  0.9090
19846TIP3    H280954   0.863   1.924   4.334  1.6192  0.4500  0.4529
19847TIP3   OH280955   5.312   5.086   0.910  0.1709  0.0738 -0.3515
19847TIP3    H180956   5.228   5.131   0.897  1.3137  2.0270 -1.4207
19847TIP3    H280957   5.350   5.081   0.822  2.4605  1.9341  0.4335
19848TIP3   OH280958   1.255   0.872   3.495  0.2629 -0.4848 -0.2887
19848TIP3    H180959   1.205   0.879   3.414 -0.6248 -0.8020  0.2192
19848TIP3    H280960   1.199   0.914   3.561  1.2964  0.4520  0.0325
19849TIP3   OH280961   6.356   5.573  16.969  0.0815  0.5981 -0.9263
19849TIP3    H180962   6.434   5.520  16.986 -0.7702 -1.1346 -2.1289
19849TIP3    H280963   6.332   5.608  17.055 -0.0353 -2.0517  0.2016
19850TIP3   OH280964   1.109   0.400   4.579  0.5049 -0.1717  0.2485
19850TIP3    H180965   1.050   0.370   4.648  0.9308  1.2955  1.2965
19850TIP3    H280966   1.092   0.340   4.506 -0.2995 -1.4754  1.4409
19851TIP3   OH280967   1.187   2.159   5.723 -0.5059 -0.4788 -0.1869
19851TIP3    H180968   1.268   2.208   5.737 -1.9711  1.7149  1.3194
19851TIP3    H280969   1.191   2.087   5.785  0.7697 -1.1212 -0.9683
19852TIP3   OH280970   6.740   2.193   0.789  0.1125  0.7751  0.1924
19852TIP3    H180971   6.667   2.215   0.732  0.3609  0.1699 -0.3649
19852TIP3    H280972   6.817   2.193   0.732  0.0501 -2.1319 -0.0008
19853TIP3   OH280973   5.600   3.072  12.501 -0.6122  0.0590 -0.4356
19853TIP3    H180974   5.612   3.006  12.569 -1.6085  0.5889  0.2867
19853TIP3    H280975   5.566   3.023  12.426  0.6776 -0.5584 -0.6343
19854TIP3   OH280976   0.427   3.338  16.731 -0.1946 -0.6676  0.4213
19854TIP3    H180977   0.350   3.311  16.781 -1.4525 -1.0732 -1.5919
19854TIP3    H280978   0.396   3.410  16.676  1.7581  1.3922  1.8664
19855TIP3   OH280979   1.190   0.950  11.659 -0.0908 -0.2202  0.0351
19855TIP3    H180980   1.159   0.863  11.682 -0.2484  0.0016  0.7067
19855TIP3    H280981   1.168   1.004  11.736  1.9195 -0.0449  0.5489
19856TIP3   OH280982   3.904   6.189   4.572  0.3444  0.2505 -0.0742
19856TIP3    H180983   3.985   6.196   4.522 -0.2146  0.8920 -0.9261
19856TIP3    H280984   3.846   6.255   4.533 -1.6158 -2.1221 -1.4579
19857TIP3   OH280985   6.767   4.788  13.790  0.0507 -0.6979 -0.4170
19857TIP3    H180986   6.749   4.811  13.699  1.5601  0.8796 -0.3682
19857TIP3    H280987   6.843   4.730  13.785  0.2165 -0.5041 -0.1489
19858TIP3   OH280988   2.950   3.621  12.191  0.4943 -0.3376  0.2178
19858TIP3    H180989   3.033   3.657  12.221  0.0149  0.6500  0.3900
19858TIP3    H280990   2.898   3.698  12.167 -0.6358 -0.9008  0.7999
19859TIP3   OH280991   0.921   1.452  16.249  0.0088  0.0383  0.0519
19859TIP3    H180992   0.827   1.457  16.235 -0.1827 -0.8843  0.9005
19859TIP3    H280993   0.940   1.358  16.254  0.9459  0.2136  0.0531
19860TIP3   OH280994   4.584   3.887   1.631 -0.0156 -0.2907  0.7789
19860TIP3    H180995   4.498   3.847   1.648  0.8172 -1.7870  1.7668
19860TIP3    H280996   4.613   3.849   1.548 -0.9009  1.3507 -0.3329
19861TIP3   OH280997   4.933   4.613  13.082  0.1564 -0.2494 -0.5845
19861TIP3    H180998   4.919   4.520  13.097 -0.6117 -0.3665 -1.8284
19861TIP3    H280999   4.879   4.657  13.148  1.3863 -0.6527  0.7301
19862TIP3   OH281000   1.817   6.739   3.721 -0.7560 -0.6299  0.2633
19862TIP3    H181001   1.726   6.739   3.691  0.4064 -1.1897 -3.8650
19862TIP3    H281002   1.848   6.828   3.705 -0.4484 -0.5335  1.3339
19863TIP3   OH281003   4.791   4.409  11.224  0.6797  0.1850  0.3641
19863TIP3    H181004   4.799   4.495  11.181 -1.8593  0.2674 -0.1169
19863TIP3    H281005   4.713   4.370  11.184  1.6473 -2.3033  0.7220
19864TIP3   OH281006   0.399   2.688  14.868  0.3036  0.6509 -0.0755
19864TIP3    H181007   0.473   2.703  14.809  1.1564 -1.3539  0.4079
19864TIP3    H281008   0.381   2.594  14.860  0.6381  0.2185  3.0254
19865TIP3   OH281009   0.821   6.266  14.650 -0.1870 -0.0007  0.3335
19865TIP3    H181010   0.855   6.219  14.574 -0.2297  0.2351  0.1658
19865TIP3    H281011   0.895   6.315  14.684 -0.2913  0.3080  0.1253
19866TIP3   OH281012   0.440   0.646   2.541 -0.1220 -0.3130 -0.9463
19866TIP3    H181013   0.408   0.669   2.628 -0.7051 -3.2638 -0.2734
19866TIP3    H281014   0.479   0.727   2.507 -0.3448  1.0586  1.8266
19867TIP3   OH281015   4.696   3.435   3.305 -0.2326 -0.2730 -0.2360
19867TIP3    H181016   4.616   3.417   3.256 -0.6474  0.0939  0.2914
19867TIP3    H281017   4.733   3.513   3.264  0.3145 -0.9187 -1.0152
19868TIP3   OH281018   1.556   3.515  13.666  0.3721  0.3062 -0.5900
19868TIP3    H181019   1.640   3.492  13.706  0.1719 -0.0127 -0.3535
19868TIP3    H281020   1.549   3.610  13.680  0.3093  0.2033  0.1328
19869TIP3   OH281021   2.098   2.918  12.346  0.3700 -0.6013 -0.1343
19869TIP3    H181022   2.146   2.992  12.384 -1.7853  2.0538 -2.1200
19869TIP3    H281023   2.144   2.900  12.264 -1.4611  1.6408 -1.8116
19870TIP3   OH281024   4.289   3.095  15.837  0.0391  0.4881  0.0557
19870TIP3    H181025   4.271   3.079  15.744  0.5585 -0.6262  0.1331
19870TIP3    H281026   4.236   3.029  15.883 -0.6234  1.3717  0.5834
19871TIP3   OH281027   1.054   0.571  14.753  0.1384  0.2281 -0.2470
19871TIP3    H181028   1.044   0.483  14.788  0.5501 -0.6834 -2.2779
19871TIP3    H281029   1.074   0.558  14.661 -0.8409  2.4827 -0.8486
19872TIP3   OH281030   0.849   4.904  14.087  0.0020 -0.0869  0.8213
19872TIP3    H181031   0.939   4.918  14.056 -0.2359 -1.6900 -0.7998
19872TIP3    H281032   0.845   4.810  14.107 -1.0915  0.1240  1.6758
19873TIP3   OH281033   4.030   0.594   2.732 -0.2513 -0.5057 -0.4257
19873TIP3    H181034   3.963   0.657   2.758  0.8343  0.1346  0.9539
19873TIP3    H281035   3.987   0.539   2.667 -2.5678 -0.9982  1.3905
19874TIP3   OH281036   4.042   5.243   1.619  0.2303  0.0219 -0.3002
19874TIP3    H181037   3.974   5.210   1.561 -0.7267 -1.9423  1.7954
19874TIP3    H281038   3.998   5.309   1.672  0.8207  1.0214 -1.0175
19875TIP3   OH281039   6.708   0.605   0.207  0.9139 -0.2593 -0.3411
19875TIP3    H181040   6.743   0.529   0.254  0.3382  0.0846  0.6514
19875TIP3    H281041   6.782   0.665   0.201  0.7531  0.0842  0.9487
19876TIP3   OH281042   6.657   3.851  12.781 -0.2504  0.3471  0.0791
19876TIP3    H181043   6.669   3.757  12.771  0.1177  0.5192 -1.2542
19876TIP3    H281044   6.746   3.887  12.777 -0.4297  0.7967  0.1119
19877TIP3   OH281045   2.931   0.906   5.454  0.1158  0.7349 -0.4826
19877TIP3    H181046   2.903   0.945   5.537 -0.2621  2.9115 -1.5717
19877TIP3    H281047   2.978   0.976   5.409  2.8650 -1.2676 -0.9437
19878TIP3   OH281048   0.526   1.665  13.887 -0.1873  0.2472 -0.2457
19878TIP3    H181049   0.611   1.631  13.860 -1.0227 -0.8299 -1.6202
19878TIP3    H281050   0.545   1.754  13.917  1.4652 -0.0840 -0.1889
19879TIP3   OH281051   6.072   1.828   3.502 -0.1313  0.0171 -0.1837
19879TIP3    H181052   6.154   1.826   3.452 -0.4697  0.9530 -0.8089
19879TIP3    H281053   6.098   1.849   3.591  0.2339  1.5074 -0.6122
19880TIP3   OH281054   2.814   0.650   0.616 -0.1740 -0.5412  0.2380
19880TIP3    H181055   2.889   0.655   0.556 -0.0389 -1.6013  0.2989
19880TIP3    H281056   2.741   0.625   0.560 -0.6011  0.9546  0.0971
19881TIP3   OH281057   2.811   6.476   3.041  0.5919 -0.1621 -0.2991
19881TIP3    H181058   2.815   6.531   3.119 -0.3732 -0.0552 -0.3176
19881TIP3    H281059   2.903   6.462   3.017  0.8861  0.0901  0.6470
19882TIP3   OH281060   0.762   5.643   1.430 -0.0178 -0.1465 -0.1655
19882TIP3    H181061   0.734   5.694   1.506 -2.0219  0.4688 -1.2478
19882TIP3    H281062   0.744   5.699   1.355 -1.0716 -1.9169 -1.3157
19883TIP3   OH281063   1.152   3.358   0.247 -0.0126 -0.3698  0.1147
19883TIP3    H181064   1.079   3.300   0.228  0.2027 -0.6975  0.2710
19883TIP3    H281065   1.217   3.337   0.180 -0.5774  0.8712 -0.8682
19884TIP3   OH281066   0.974   1.716   3.613  0.1254  0.3921 -0.2870
19884TIP3    H181067   0.890   1.722   3.660 -0.8990 -2.1334 -1.5897
19884TIP3    H281068   0.952   1.743   3.524  0.9201  0.5840 -0.4238
19885TIP3   OH281069   0.134   2.357  17.077  0.3513 -0.1248 -0.7214
19885TIP3    H181070   0.190   2.434  17.087  0.1838 -0.0854 -0.1080
19885TIP3    H281071   0.057   2.376  17.130 -0.6623  0.1964 -2.2131
19886TIP3   OH281072   4.026   2.150   4.754 -0.0180  0.0584  0.2842
19886TIP3    H181073   3.952   2.090   4.762  0.5157 -0.7233 -0.4264
19886TIP3    H281074   3.988   2.237   4.761 -0.9201 -0.3494  0.5031
19887TIP3   OH281075   0.774   3.230  11.226  0.0201  0.2634 -0.3279
19887TIP3    H181076   0.682   3.258  11.231 -0.0892  0.1667 -1.4561
19887TIP3    H281077   0.779   3.154  11.284 -1.0624 -0.8253 -1.6013
19888TIP3   OH281078   4.334   6.473  11.217 -0.2408  0.0222  0.6670
19888TIP3    H181079   4.296   6.501  11.134  0.4210  0.0489  0.3642
19888TIP3    H281080   4.260   6.444  11.269 -0.8307  1.3253  0.5885
19889TIP3   OH281081   5.745   0.934   1.758  0.0458  0.2211 -0.1606
19889TIP3    H181082   5.803   0.896   1.692 -0.4477  1.2868 -1.2521
19889TIP3    H281083   5.780   0.903   1.841 -0.4219 -2.6928 -0.9588
19890TIP3   OH281084   1.792   2.629  12.489  0.1116 -0.0815  0.4041
19890TIP3    H181085   1.745   2.575  12.552 -0.1244 -0.1858  0.1387
19890TIP3    H281086   1.731   2.698  12.465 -0.0283 -0.3966 -0.1798
19891TIP3   OH281087   6.727   2.430  13.943  0.5888 -0.3301  0.0578
19891TIP3    H181088   6.641   2.411  13.905  1.6475 -1.7372 -1.7879
19891TIP3    H281089   6.789   2.408  13.873  2.5664 -1.2232  1.9920
19892TIP3   OH281090   3.693   2.704   3.189  0.7216  0.3476 -0.1651
19892TIP3    H181091   3.783   2.733   3.202  1.3166 -0.4036 -2.1710
19892TIP3    H281092   3.696   2.651   3.109 -1.5467  0.5112 -0.4371
19893TIP3   OH281093   6.099   3.668   3.704 -0.3067 -0.3155  0.2479
19893TIP3    H181094   6.030   3.635   3.762  0.3320 -1.3853  0.4190
19893TIP3    H281095   6.086   3.620   3.622 -1.2596  1.2502 -0.5622
19894TIP3   OH281096   1.543   5.208  17.088 -0.7759 -0.2625 -0.2254
19894TIP3    H181097   1.605   5.198  17.016 -0.7604  4.1195 -1.1105
19894TIP3    H281098   1.593   5.185  17.166  0.1841 -2.0906 -1.3257
19895TIP3   OH281099   6.162   3.672  16.187  0.1833  0.4948  1.0749
19895TIP3    H181100   6.155   3.578  16.169  0.6434  0.4469  1.1364
19895TIP3    H281101   6.102   3.687  16.260  0.3246  0.1958  1.2522
19896TIP3   OH281102   4.141   5.554  13.681  0.2248 -0.3165 -0.2075
19896TIP3    H181103   4.166   5.646  13.667 -0.3362 -0.0765  0.3276
19896TIP3    H281104   4.218   5.504  13.653  1.2034  0.3888  1.1243
19897TIP3   OH281105   2.847   4.233  15.949 -0.4336  0.3475 -0.9293
19897TIP3    H181106   2.915   4.249  15.884  0.2029  0.9541 -0.1379
19897TIP3    H281107   2.850   4.139  15.964  2.0379  0.6255  0.9507
19898TIP3   OH281108   4.511   0.179  14.294 -0.2144 -0.0654  0.3029
19898TIP3    H181109   4.598   0.198  14.331 -0.0780 -1.1606  0.5660
19898TIP3    H281110   4.530   0.144  14.206 -0.3874 -0.3168  0.3660
19899TIP3   OH281111   3.950   4.300   4.568 -0.5777 -0.4422 -0.3808
19899TIP3    H181112   3.883   4.280   4.633  1.1740 -2.5068  0.8849
19899TIP3    H281113   3.918   4.258   4.488 -1.4415 -0.2100 -0.1734
19900TIP3   OH281114   0.839   4.363  11.337  0.0480 -0.6112  0.2168
19900TIP3    H181115   0.764   4.304  11.347  0.7696 -1.3480  1.5228
19900TIP3    H281116   0.877   4.340  11.252 -0.7418 -0.7630 -0.0997
19901TIP3   OH281117   4.392   4.023   1.250 -0.6141 -0.4644 -0.7657
19901TIP3    H181118   4.364   4.106   1.287 -1.3261 -1.5000  1.1189
19901TIP3    H281119   4.479   4.008   1.286  0.1714  0.1271 -2.2961
19902TIP3   OH281120   0.432   1.820  12.429  0.0544 -0.6615 -0.4299
19902TIP3    H181121   0.379   1.782  12.499 -2.0993  0.8130 -1.1602
19902TIP3    H281122   0.381   1.806  12.350  0.7126  0.8909 -1.1776
19903TIP3   OH281123   1.156   2.430   6.178 -0.5395 -0.4302  0.2802
19903TIP3    H181124   1.224   2.467   6.234 -2.1440 -0.2769  2.2162
19903TIP3    H281125   1.159   2.336   6.194 -0.8534 -0.4129  0.4376
19904TIP3   OH281126   1.373   1.702   1.382  0.4132 -0.7849  0.2560
19904TIP3    H181127   1.324   1.753   1.448  2.9882  1.0172  0.9267
19904TIP3    H281128   1.391   1.764   1.312  0.5384 -1.8027 -0.6384
19905TIP3   OH281129   3.427   2.510  14.200  0.3089 -0.4695  0.1081
19905TIP3    H181130   3.501   2.567  14.180  1.9686 -2.6854 -0.4618
19905TIP3    H281131   3.432   2.496  14.295  1.2242 -1.3437 -0.0557
19906TIP3   OH281132   5.720   4.334  10.986 -0.3024 -0.4279 -0.7925
19906TIP3    H181133   5.717   4.239  10.997 -1.0946 -0.3457 -0.1566
19906TIP3    H281134   5.706   4.348  10.892 -0.4733 -0.9334 -0.8472
19907TIP3   OH281135   2.331   4.541   1.959 -0.3454 -0.4048 -0.2946
19907TIP3    H181136   2.400   4.513   1.899 -0.6956  1.7633 -1.8017
19907TIP3    H281137   2.345   4.635   1.969 -2.0931 -0.2208  0.6931
19908TIP3   OH281138   1.260   5.162  11.067 -0.1433  0.0675  0.6409
19908TIP3    H181139   1.273   5.171  10.972 -0.8231  2.2644  0.7026
19908TIP3    H281140   1.176   5.116  11.075 -0.3002  0.2659  0.1800
19909TIP3   OH281141   1.079   4.407   2.116 -0.3038  0.5675 -0.4562
19909TIP3    H181142   1.043   4.476   2.061 -0.9109  0.0723 -0.6868
19909TIP3    H281143   1.065   4.438   2.206  0.1025  1.0750 -0.5590
19910TIP3   OH281144   2.857   3.232   1.935 -0.1010 -0.6462  0.0294
19910TIP3    H181145   2.904   3.266   1.859  0.0718  0.1385  0.4761
19910TIP3    H281146   2.786   3.294   1.949  0.4945 -0.1847  1.1407
19911TIP3   OH281147   6.141   2.111  13.063  0.6357 -0.2998  0.7352
19911TIP3    H181148   6.112   2.033  13.014  1.3220  0.6439 -1.3018
19911TIP3    H281149   6.079   2.179  13.038  2.4287  0.8433 -0.9117
19912TIP3   OH281150   2.881   6.014   1.695 -0.6315  0.6225 -0.1044
19912TIP3    H181151   2.919   6.042   1.612 -0.7516 -1.6944 -1.0130
19912TIP3    H281152   2.798   5.973   1.672  0.4442 -2.3602  0.7370
19913TIP3   OH281153   5.205   2.830   6.395 -0.8006  0.3959  0.0298
19913TIP3    H181154   5.132   2.798   6.448 -0.4726  0.2753  0.4138
19913TIP3    H281155   5.277   2.770   6.414 -0.5490  0.6211 -0.2032
19914TIP3   OH281156   2.954   5.008   1.454 -0.4278 -0.8409  0.0208
19914TIP3    H181157   3.018   5.070   1.419  0.9623 -1.6370  1.0463
19914TIP3    H281158   3.001   4.962   1.524 -1.8758 -2.0294  0.2592
19915TIP3   OH281159   2.532   4.427   6.271 -0.1014 -0.3009  0.3153
19915TIP3    H181160   2.509   4.346   6.225  1.6897 -1.1339  0.7796
19915TIP3    H281161   2.515   4.407   6.363  1.9805 -0.8429  0.6401
19916TIP3   OH281162   3.357   4.662  16.471 -0.3503 -0.5235 -0.0534
19916TIP3    H181163   3.405   4.667  16.554  0.0633  1.5584 -0.3570
19916TIP3    H281164   3.279   4.716  16.485 -0.8528 -1.0765 -0.6697
19917TIP3   OH281165   4.340   6.101   1.871  0.7388 -0.4258 -0.1922
19917TIP3    H181166   4.359   6.026   1.928  0.4283 -0.0673  0.3836
19917TIP3    H281167   4.273   6.068   1.811  0.1799 -0.4419  0.4317
19918TIP3   OH281168   6.123   0.890  14.890  0.0770 -1.2351  0.4708
19918TIP3    H181169   6.210   0.887  14.931  1.3595  1.6788 -1.6984
19918TIP3    H281170   6.063   0.870  14.962  2.4284 -2.4615  2.2814
19919TIP3   OH281171   4.694   5.382  11.262 -0.2102  0.4270 -0.5754
19919TIP3    H181172   4.693   5.332  11.344  0.9735  2.1149  0.5396
19919TIP3    H281173   4.774   5.353  11.218 -0.9345 -0.6047 -1.2526
19920TIP3   OH281174   4.389   1.437  17.025 -0.1802  0.5029  0.4905
19920TIP3    H181175   4.392   1.397  16.939  1.2790 -1.8120  1.5048
19920TIP3    H281176   4.306   1.408  17.062 -0.1496  0.2622  0.3758
19921TIP3   OH281177   5.798   3.174   2.781 -0.2425  0.1551 -0.5083
19921TIP3    H181178   5.881   3.149   2.740  1.1512  0.8154  1.7352
19921TIP3    H281179   5.764   3.093   2.818 -0.8143 -0.1799 -1.7109
19922TIP3   OH281180   1.210   5.484   6.047  0.1747  0.8058 -0.3048
19922TIP3    H181181   1.227   5.452   5.958  0.5265  1.9966 -0.6863
19922TIP3    H281182   1.145   5.424   6.082  1.2080 -0.6344 -0.7834
19923TIP3   OH281183   1.521   5.094  16.675  0.0366  0.0197  0.3327
19923TIP3    H181184   1.471   5.161  16.628  0.0975  0.5682  1.0396
19923TIP3    H281185   1.473   5.082  16.757 -1.3851 -2.5728 -0.7614
19924TIP3   OH281186   3.579   2.279  13.009 -0.0160  0.1415  0.5325
19924TIP3    H181187   3.634   2.204  13.031 -0.8917 -0.7643 -0.2742
19924TIP3    H281188   3.521   2.289  13.084  0.6381  0.5454  0.9977
19925TIP3   OH281189   1.584   4.144   3.715 -0.5050  0.1773 -0.2098
19925TIP3    H181190   1.536   4.227   3.723 -1.3122 -0.3277  0.3040
19925TIP3    H281191   1.605   4.137   3.622 -1.1730  0.5530 -0.3947
19926TIP3   OH281192   2.274   4.925  16.941  0.8035  0.2573 -0.0590
19926TIP3    H181193   2.268   4.886  16.853  1.7410  1.7672 -0.8400
19926TIP3    H281194   2.365   4.954  16.947  0.6414  0.5430  1.2722
19927TIP3   OH281195   2.666   2.407   2.830  0.0286  0.3947  0.0790
19927TIP3    H181196   2.633   2.441   2.913 -0.6888  1.3719 -0.5766
19927TIP3    H281197   2.722   2.334   2.854 -3.4602 -2.1809  1.3041
19928TIP3   OH281198   4.079   0.882   5.677 -0.2401  0.4294  0.5796
19928TIP3    H181199   4.093   0.953   5.614  0.5096  0.0941  0.3673
19928TIP3    H281200   3.989   0.854   5.660  0.5515 -0.9918 -1.7525
19929TIP3   OH281201   6.716   1.628   5.410  0.3589 -0.8087  0.4504
19929TIP3    H181202   6.737   1.670   5.493 -0.0356  1.6084 -0.5952
19929TIP3    H281203   6.800   1.620   5.365  0.2545  0.2949  0.0412
19930TIP3   OH281204   2.020   1.630   5.003 -0.4954 -0.0346 -0.0267
19930TIP3    H181205   2.006   1.688   5.078  0.8612  1.4105 -0.8301
19930TIP3    H281206   1.933   1.617   4.966 -0.7732  2.2213 -0.3248
19931TIP3   OH281207   4.904   1.192  15.567  0.1305  0.0644 -0.1160
19931TIP3    H181208   4.961   1.144  15.627  0.0645  2.1358  1.7519
19931TIP3    H281209   4.826   1.137  15.559  0.4080 -0.5750  1.2177
19932TIP3   OH281210   1.486   5.873   4.199 -0.2123  0.1814 -0.2946
19932TIP3    H181211   1.449   5.961   4.202  0.2886  0.5438 -2.5705
19932TIP3    H281212   1.410   5.816   4.186 -0.3462  0.5705 -1.3608
19933TIP3   OH281213   0.222   1.514  13.315  0.0447 -0.2485  0.6966
19933TIP3    H181214   0.174   1.449  13.364  0.0470 -1.4043 -0.7688
19933TIP3    H281215   0.203   1.597  13.360 -3.7068 -0.5261 -0.0479
19934TIP3   OH281216   0.302   5.562   3.106  0.3568 -0.1262 -0.7622
19934TIP3    H181217   0.269   5.652   3.099 -0.5710 -0.4621 -0.8436
19934TIP3    H281218   0.390   5.566   3.069  0.6142  0.9022 -0.0993
19935TIP3   OH281219   1.870   3.103   3.387 -0.6956  0.1310  0.2578
19935TIP3    H181220   1.945   3.091   3.445 -0.1117 -0.1210 -0.5356
19935TIP3    H281221   1.794   3.101   3.445 -0.1053  0.1283  1.0388
19936TIP3   OH281222   5.118   5.105   5.259  0.1443 -0.1508 -0.2039
19936TIP3    H181223   5.052   5.095   5.327  0.4655 -3.6338 -0.2308
19936TIP3    H281224   5.101   5.033   5.198  1.8104  0.9685 -2.1476
19937TIP3   OH281225   1.136   5.266  10.509 -0.9169 -0.1504 -0.0468
19937TIP3    H181226   1.119   5.296  10.419  0.5813  1.0026  0.0316
19937TIP3    H281227   1.168   5.177  10.498  2.1745  0.9382 -0.9925
19938TIP3   OH281228   6.361   2.560  15.142  0.1634 -0.3725 -0.8504
19938TIP3    H181229   6.344   2.625  15.073  0.5264 -1.0381 -1.5803
19938TIP3    H281230   6.444   2.519  15.116  1.4957  0.8577  1.1316
19939TIP3   OH281231   5.790   5.287   2.205 -0.1248  0.3145 -0.3824
19939TIP3    H181232   5.723   5.252   2.147  1.1984 -0.3849 -1.5417
19939TIP3    H281233   5.828   5.360   2.157  0.6017  0.0900 -0.1547
19940TIP3   OH281234   1.135   4.958   1.833 -0.0716 -0.0118  0.5552
19940TIP3    H181235   1.146   4.969   1.738  0.4776 -1.1305  0.4801
19940TIP3    H281236   1.042   4.939   1.844 -0.0355 -0.4186  0.1814
19941TIP3   OH281237   4.665   0.269   6.546  0.2763 -0.8200 -0.1513
19941TIP3    H181238   4.605   0.240   6.477  0.3918 -2.9744  0.5677
19941TIP3    H281239   4.611   0.277   6.624  0.4606 -0.1459 -0.0888
19942TIP3   OH281240   0.321   5.195   4.579  0.2280  0.6090  0.6372
19942TIP3    H181241   0.333   5.204   4.484  1.0879  2.2127  0.8640
19942TIP3    H281242   0.405   5.162   4.610 -0.2705 -0.5670  0.7923
19943TIP3   OH281243   0.433   3.526  12.486 -1.1208 -0.4506  0.4360
19943TIP3    H181244   0.525   3.499  12.474 -0.8312  1.3621 -2.1493
19943TIP3    H281245   0.383   3.447  12.467 -0.1557 -1.6068  2.3416
19944TIP3   OH281246   4.056   2.827   3.859 -0.4014  0.7069 -0.3868
19944TIP3    H181247   4.009   2.815   3.942  0.2645 -1.3226 -0.2364
19944TIP3    H281248   4.148   2.832   3.884 -0.0678 -1.2746 -1.0358
19945TIP3   OH281249   5.020   0.055   3.355 -0.1431 -0.6607  0.3370
19945TIP3    H181250   5.029   0.141   3.314  1.4976 -0.2680  1.4517
19945TIP3    H281251   4.929   0.052   3.384 -0.2080  0.7173  0.3500
19946TIP3   OH281252   1.581   2.194   5.908  0.3398 -0.4437 -0.0845
19946TIP3    H181253   1.602   2.124   5.970  2.6787 -0.2772 -0.6016
19946TIP3    H281254   1.663   2.212   5.863 -0.6917  1.2316 -1.4301
19947TIP3   OH281255   1.316   5.653  14.785 -0.0949 -0.3082  0.7771
19947TIP3    H181256   1.332   5.596  14.860 -1.4297  1.1988  2.2880
19947TIP3    H281257   1.300   5.739  14.823  1.4126  1.0337 -1.3943
19948TIP3   OH281258   0.608   1.093  13.078  0.2446 -0.4169 -0.1819
19948TIP3    H181259   0.565   1.147  13.145  1.5215 -0.4616  0.7046
19948TIP3    H281260   0.537   1.038  13.043 -0.4813 -0.3132  1.0541
19949TIP3   OH281261   5.952   2.536  14.533  0.0579 -0.6294  0.0159
19949TIP3    H181262   5.989   2.507  14.617  0.6766  0.9372  0.3175
19949TIP3    H281263   5.946   2.631  14.541 -1.7723 -0.6087 -0.9777
19950TIP3   OH281264   5.805   2.448   6.067  0.3567 -0.2249  0.1488
19950TIP3    H181265   5.755   2.400   6.000 -0.5848  0.5241  0.2965
19950TIP3    H281266   5.896   2.436   6.041  0.0339 -0.3309 -1.0145
19951TIP3   OH281267   2.432   2.912   4.400 -0.5306  0.1615 -0.3350
19951TIP3    H181268   2.489   2.930   4.474  1.4836 -0.0631 -1.7457
19951TIP3    H281269   2.389   2.829   4.422 -1.2553  0.9147  1.2595
19952TIP3   OH281270   6.477   3.395   4.990 -0.8198  0.0001 -0.1979
19952TIP3    H181271   6.479   3.363   5.080 -1.7472  1.8517  0.5397
19952TIP3    H281272   6.568   3.415   4.970 -0.4465 -1.5247 -0.1165
19953TIP3   OH281273   0.367   6.017  13.018 -0.2231  0.4017 -0.2737
19953TIP3    H181274   0.430   6.089  13.021 -0.5162  0.6255  1.4520
19953TIP3    H281275   0.412   5.944  13.058 -1.0442  0.5771  1.0173
19954TIP3   OH281276   3.213   2.765   4.279  0.4148  0.6131 -0.7168
19954TIP3    H181277   3.238   2.685   4.325 -0.0424  0.9611  0.1623
19954TIP3    H281278   3.122   2.778   4.302 -0.1641  0.2381 -2.5913
19955TIP3   OH281279   6.080   0.838   4.073 -0.1508  0.2823 -0.0669
19955TIP3    H181280   6.136   0.869   4.144 -0.2285  0.4962 -0.0975
19955TIP3    H281281   5.999   0.887   4.083  0.0823  0.8114 -0.7085
19956TIP3   OH281282   3.903   3.045  14.245  0.4105  0.1897  0.4771
19956TIP3    H181283   3.969   3.017  14.181  2.1905  0.7597  1.9591
19956TIP3    H281284   3.854   2.966  14.266 -0.3590  0.0256 -1.6802
19957TIP3   OH281285   0.130   5.071   3.965 -0.3805 -0.0040 -0.1078
19957TIP3    H181286   0.218   5.100   3.943  0.2566 -2.2369 -0.7811
19957TIP3    H281287   0.139   5.032   4.052 -0.6756 -0.3345 -0.2250
19958TIP3   OH281288   4.761   6.124  13.881 -0.0970 -0.1901 -0.0277
19958TIP3    H181289   4.799   6.057  13.938 -1.1257  1.0969  2.2924
19958TIP3    H281290   4.833   6.185  13.865  0.3209 -0.7988 -0.5181
19959TIP3   OH281291   6.062   5.201  14.133 -0.3885  0.1687  0.2062
19959TIP3    H181292   6.153   5.189  14.159  0.0534  2.0121 -0.3684
19959TIP3    H281293   6.029   5.112  14.120  1.7286 -0.5000 -0.9884
19960TIP3   OH281294   1.169   6.249   1.840  0.1811  0.0952 -0.6501
19960TIP3    H181295   1.082   6.233   1.877  0.8291 -0.3011  0.7735
19960TIP3    H281296   1.204   6.161   1.825  0.3773  0.2544 -1.1130
19961TIP3   OH281297   5.725   6.807  12.936 -0.2460 -0.6294 -0.2908
19961TIP3    H181298   5.634   6.825  12.959 -0.8184 -0.0179 -2.7367
19961TIP3    H281299   5.735   6.712  12.947 -0.6532 -0.5006  1.5386
19962TIP3   OH281300   5.545   1.768   3.155 -0.7434  0.4079  0.1259
19962TIP3    H181301   5.533   1.832   3.085 -0.3078  0.9731  0.5629
19962TIP3    H281302   5.636   1.740   3.147 -1.0280 -0.4293 -0.2841
19963TIP3   OH281303   4.638   3.037  13.918  0.1335 -0.1001 -0.0438
19963TIP3    H181304   4.624   3.048  13.824 -0.3855  0.0764  0.0525
19963TIP3    H281305   4.553   3.013  13.953  0.7697 -2.4354  0.0735
19964TIP3   OH281306   2.437   5.938  15.976  0.6101 -0.0930 -0.1303
19964TIP3    H181307   2.508   5.902  15.922  0.3274 -2.1211  0.7273
19964TIP3    H281308   2.394   5.860  16.012 -0.0277  1.1484  1.9548
19965TIP3   OH281309   3.014   3.092   4.845  0.2959 -0.7108 -0.1803
19965TIP3    H181310   3.049   3.004   4.860  1.3520 -0.4358 -0.9457
19965TIP3    H281311   3.020   3.104   4.750 -1.4647 -0.4651 -0.2857
19966TIP3   OH281312   2.762   0.237  16.075 -0.0483 -0.0818 -0.3094
19966TIP3    H181313   2.768   0.233  16.171  1.6949  0.2577 -0.3716
19966TIP3    H281314   2.816   0.165  16.045 -1.7221 -1.0738 -1.0642
19967TIP3   OH281315   1.127   2.791   5.659  0.7113 -0.2083 -0.2549
19967TIP3    H181316   1.121   2.881   5.691 -0.0637 -0.1753 -0.4893
19967TIP3    H281317   1.221   2.771   5.664  0.9807  0.8219 -0.7905
19968LIG      O81318   3.010   3.209  16.470 -0.2234 -0.1160  0.1652
19968LIG      N81319   2.987   3.081  16.873 -0.1069  0.9629 -0.4644
19968LIG     C181320   2.904   3.402  16.542 -1.2378 -0.1966 -0.3526
19968LIG     C281321   3.026   3.319  16.566  0.4358  1.0370  0.3230
19968LIG     C381322   2.873   3.505  16.651 -0.3820 -0.3717  0.7241
19968LIG     C481323   2.899   3.480  16.411  0.0365  0.3334  0.4246
19968LIG     C581324   3.048   3.244  16.704  0.4253  0.6793 -0.1209
19968LIG     C681325   2.736   3.565  16.643  0.5288  0.0597 -0.6592
19968LIG     C781326   2.754   3.540  16.387  0.0423  0.7089 -0.7938
19968LIG     C881327   2.709   3.629  16.505 -0.2255 -0.3311  0.2377
19968LIG     C981328   2.949   3.134  16.740 -0.3890 -0.2059  0.0765
19968LIG    C1081329   3.147   3.407  16.535 -0.7114  0.4219 -0.0803
19968LIG    C1181330   2.879   3.005  16.940  0.4095 -0.3833  0.4554
19968LIG    C1281331   3.111   3.005  16.881  0.4295 -0.0554 -0.3319
19968LIG    C1381332   2.848   2.890  16.853 -0.2881  0.5588 -0.3618
19968LIG    C1481333   3.091   2.875  16.802  0.0305  0.1620  0.5302
19968LIG    C1581334   2.977   2.798  16.854  0.3842 -0.5278 -0.2454
19968LIG    C1681335   3.203   3.489  16.633 -0.0285  0.0546  0.4321
19968LIG    C1781336   3.213   3.400  16.416 -1.1925  0.1134 -0.2843
19968LIG    C1881337   3.308   3.576  16.603 -0.3948 -0.2646  0.0453
19968LIG    C1981338   3.326   3.482  16.385 -0.5679 -0.4445  0.7755
19968LIG    C2081339   3.373   3.572  16.474 -0.0395  0.1178 -0.4677
19968LIG     H181340   2.817   3.333  16.539 -2.4243  1.1515  1.4701
19968LIG     H281341   2.958   3.577  16.654  1.0226 -1.8392 -1.0233
19968LIG     H381342   2.871   3.459  16.752 -1.5187  0.3023  1.0318
19968LIG     H481343   2.914   3.412  16.324  1.0870  0.3513  0.5874
19968LIG     H581344   2.979   3.555  16.397  0.2169  0.1311  0.3671
19968LIG     H681345   3.046   3.320  16.786 -1.6704  0.7371 -0.1652
19968LIG     H781346   3.149   3.201  16.688  0.5026  1.1511 -0.9569
19968LIG     H881347   2.723   3.623  16.736 -0.1340 -0.5790 -0.3370
19968LIG     H981348   2.679   3.470  16.656 -0.0151  0.2705 -1.4203
19968LIG    H1081349   2.686   3.453  16.388  0.2881  0.4976 -1.6687
19968LIG    H1181350   2.750   3.604  16.295 -2.3874  0.0182 -1.2447
19968LIG    H1281351   2.765   3.725  16.508  1.3022 -1.1920  0.6279
19968LIG    H1381352   2.600   3.645  16.494 -0.5467 -2.4878 -0.2613
19968LIG    H1481353   2.844   3.171  16.741 -1.5637 -3.3211  0.5436
19968LIG    H1581354   2.947   3.054  16.664  0.0430 -0.4261  0.2954
19968LIG    H1681355   2.791   3.072  16.947  1.1394  0.9487 -1.9553
19968LIG    H1781356   2.897   2.958  17.039 -0.7501 -0.6608  0.5534
19968LIG    H1881357   3.116   2.985  16.991  3.0283  1.7362 -0.0271
19968LIG    H1981358   3.188   3.074  16.841  1.1853 -0.3397  0.5803
19968LIG    H2081359   3.091   3.161  16.490 -0.2461 -0.7016 -1.0778
19968LIG    H2181360   2.833   2.900  16.744 -0.7249 -1.7639 -0.5751
19968LIG    H2281361   2.760   2.832  16.889 -0.0243 -0.8701 -1.8672
19968LIG    H2381362   3.180   2.812  16.821 -0.5635 -1.1473 -0.7666
19968LIG    H2481363   3.064   2.884  16.694 -0.3341 -1.9802  0.4106
19968LIG    H2581364   2.958   2.710  16.789 -0.6610 -0.2589 -0.3254
19968LIG    H2681365   2.992   2.749  16.953 -4.0510  2.0676  2.0647
19968LIG    H2781366   3.156   3.492  16.730 -0.9496 -0.0340 -0.0050
19968LIG    H2881367   3.187   3.327  16.341  1.7897 -1.6241  0.2008
19968LIG    H2981368   3.347   3.649  16.673  0.1493  0.1357 -0.6542
19968LIG    H3081369   3.363   3.486  16.284 -2.1849  0.7440  0.1870
19968LIG    H3181370   3.453   3.641  16.449  0.7115 -0.6021 -0.1069
   6.81125   6.81125  17.09490
